ATOMS
H             0.00000000      0.00000000     -0.00998254            -0.00313742      0.70709982     -0.00002928
H             0.00000000      0.00000000      0.73998166             0.00313742     -0.70709982      0.00002928
