 Calculating transmission coefficient
                                      BLAS
 DBCSR| Multrec recursion limit                                              512
 DBCSR| Multiplication stack size                                           1000
 DBCSR| Maximum elements for images                                    UNLIMITED
 DBCSR| Multiplicative factor virtual images                                   1
 DBCSR| Use multiplication densification                                       T
 DBCSR| Multiplication size stacks                                             3
 DBCSR| Use memory pool for CPU allocation                                     F
 DBCSR| Number of 3D layers                                               SINGLE
 DBCSR| Use MPI memory allocation                                              F
 DBCSR| Use RMA algorithm                                                      F
 DBCSR| Use Communication thread                                               T
 DBCSR| Communication thread load                                             83
 DBCSR| MPI: My node id                                                        0
 DBCSR| MPI: Number of nodes                                                 576
 DBCSR| OMP: Current number of threads                                         2
 DBCSR| OMP: Max number of threads                                             2
 DBCSR| Split modifier for TAS multiplication algorithm                  1.0E+00


  **** **** ******  **  PROGRAM STARTED AT               2023-11-16 13:36:03.223
 ***** ** ***  *** **   PROGRAM STARTED ON                             nid004465
 **    ****   ******    PROGRAM STARTED BY                                cahart
 ***** **    ** ** **   PROGRAM PROCESS ID                                248080
  **** **  *******  **  PROGRAM STARTED IN /mnt/lustre/a2fs-work2/work/e05/e05/c
                                           ahart/postdoc/transport/cp2k-smeagol-
                                           examples/au-h2/cp2k-smeagol/transmiss
                                           ion_all/kpoints-3-3-20_omp-2_Parallel
                                           OverKNum-9_contour-single/kpoints-3-3
                                           -20_omp-2_ParallelOverKNum-9_contour-
                                           single_dynamic-14/1.7

 CP2K| version string:                 CP2K version 2022.1 (Development Version)
 CP2K| source code revision number:                                  git:215a478
 CP2K| cp2kflags: omp libint fftw3 libxc elpa parallel mpi3 scalapack mkl       
 CP2K| is freely available from                            https://www.cp2k.org/
 CP2K| Program compiled at                          Mon 30 Oct 16:32:24 GMT 2023
 CP2K| Program compiled on                                                  ln03
 CP2K| Program compiled for                                                local
 CP2K| Data directory path    /work/e05/e05/cahart/smeagol/smgl/cp2k-private-ser
 CP2K| Input file name                                                4_1.7V.inp

 GLOBAL| Force Environment number                                              1
 GLOBAL| Basis set file name                                        BASIS_MOLOPT
 GLOBAL| Potential file name                                      GTH_POTENTIALS
 GLOBAL| MM Potential file name                                     MM_POTENTIAL
 GLOBAL| Coordinate file name                                             em.xyz
 GLOBAL| Method name                                                        CP2K
 GLOBAL| Project name                                                       1.7V
 GLOBAL| Run type                                                             MD
 GLOBAL| FFT library                                                       FFTW3
 GLOBAL| Diagonalization library                                            ELPA
 GLOBAL| Minimum number of eigenvectors for ELPA usage                        16
 GLOBAL| Orthonormality check for eigenvectors                          DISABLED
 GLOBAL| Matrix multiplication library                                 ScaLAPACK
 GLOBAL| All-to-all communication in single precision                          F
 GLOBAL| FFTs using library dependent lengths                                  T
 GLOBAL| Grid backend                                                       AUTO
 GLOBAL| Global print level                                               MEDIUM
 GLOBAL| MPI I/O enabled                                                       T
 GLOBAL| Total number of message passing processes                           576
 GLOBAL| Number of threads for this process                                    2
 GLOBAL| This output is from process                                           0
 GLOBAL| Stack size for threads created by OpenMP (OMP_STACKSIZE)        default
 GLOBAL| CPU model name                          AMD EPYC 7742 64-Core Processor
 GLOBAL| CPUID                                                              1002

 MEMORY| system memory details [Kb]
 MEMORY|                        rank 0           min           max       average
 MEMORY| MemTotal            263341976     263341976     263341976     263341976
 MEMORY| MemFree             237825504     237554860     242468600     240885467
 MEMORY| Buffers                     0             0             0             0
 MEMORY| Cached                5532224       1378428       5556728       2311891
 MEMORY| Slab                  3235464       2814800       3235464       2893244
 MEMORY| SReclaimable           138300        111872        138300        118340
 MEMORY| MemLikelyFree       243496028     243107400     243974648     243315699


 *** Fundamental physical constants (SI units) ***

 *** Literature: B. J. Mohr and B. N. Taylor,
 ***             CODATA recommended values of the fundamental physical
 ***             constants: 2006, Web Version 5.1
 ***             http://physics.nist.gov/constants

 Speed of light in vacuum [m/s]                             2.99792458000000E+08
 Magnetic constant or permeability of vacuum [N/A**2]       1.25663706143592E-06
 Electric constant or permittivity of vacuum [F/m]          8.85418781762039E-12
 Planck constant (h) [J*s]                                  6.62606896000000E-34
 Planck constant (h-bar) [J*s]                              1.05457162825177E-34
 Elementary charge [C]                                      1.60217648700000E-19
 Electron mass [kg]                                         9.10938215000000E-31
 Electron g factor [ ]                                     -2.00231930436220E+00
 Proton mass [kg]                                           1.67262163700000E-27
 Fine-structure constant                                    7.29735253760000E-03
 Rydberg constant [1/m]                                     1.09737315685270E+07
 Avogadro constant [1/mol]                                  6.02214179000000E+23
 Boltzmann constant [J/K]                                   1.38065040000000E-23
 Atomic mass unit [kg]                                      1.66053878200000E-27
 Bohr radius [m]                                            5.29177208590000E-11

 *** Conversion factors ***

 [u] -> [a.u.]                                              1.82288848426455E+03
 [Angstrom] -> [Bohr] = [a.u.]                              1.88972613288564E+00
 [a.u.] = [Bohr] -> [Angstrom]                              5.29177208590000E-01
 [a.u.] -> [s]                                              2.41888432650478E-17
 [a.u.] -> [fs]                                             2.41888432650478E-02
 [a.u.] -> [J]                                              4.35974393937059E-18
 [a.u.] -> [N]                                              8.23872205491840E-08
 [a.u.] -> [K]                                              3.15774647902944E+05
 [a.u.] -> [kJ/mol]                                         2.62549961709828E+03
 [a.u.] -> [kcal/mol]                                       6.27509468713739E+02
 [a.u.] -> [Pa]                                             2.94210107994716E+13
 [a.u.] -> [bar]                                            2.94210107994716E+08
 [a.u.] -> [atm]                                            2.90362800883016E+08
 [a.u.] -> [eV]                                             2.72113838565563E+01
 [a.u.] -> [Hz]                                             6.57968392072181E+15
 [a.u.] -> [1/cm] (wave numbers)                            2.19474631370540E+05
 [a.u./Bohr**2] -> [1/cm]                                   5.14048714338585E+03
 

 CELL_TOP| Volume [angstrom^3]:                                      3044.391638
 CELL_TOP| Vector a [angstrom     8.867     0.000     0.000   |a| =     8.867120
 CELL_TOP| Vector b [angstrom     0.000     8.867     0.000   |b| =     8.867120
 CELL_TOP| Vector c [angstrom     0.000     0.000    38.720   |c| =    38.720000
 CELL_TOP| Angle (b,c), alpha [degree]:                                90.000000
 CELL_TOP| Angle (a,c), beta  [degree]:                                90.000000
 CELL_TOP| Angle (a,b), gamma [degree]:                                90.000000
 CELL_TOP| Numerically orthorhombic:                                         YES
 CELL_TOP| Periodicity                                                       XYZ

 GENERATE|  Preliminary Number of Bonds generated:                             0
 GENERATE|  Achieved consistency in connectivity generation.

 CELL| Volume [angstrom^3]:                                          3044.391638
 CELL| Vector a [angstrom]:       8.867     0.000     0.000   |a| =     8.867120
 CELL| Vector b [angstrom]:       0.000     8.867     0.000   |b| =     8.867120
 CELL| Vector c [angstrom]:       0.000     0.000    38.720   |c| =    38.720000
 CELL| Angle (b,c), alpha [degree]:                                    90.000000
 CELL| Angle (a,c), beta  [degree]:                                    90.000000
 CELL| Angle (a,b), gamma [degree]:                                    90.000000
 CELL| Numerically orthorhombic:                                             YES
 CELL| Periodicity                                                           XYZ

 CELL_REF| Volume [angstrom^3]:                                      3044.391638
 CELL_REF| Vector a [angstrom     8.867     0.000     0.000   |a| =     8.867120
 CELL_REF| Vector b [angstrom     0.000     8.867     0.000   |b| =     8.867120
 CELL_REF| Vector c [angstrom     0.000     0.000    38.720   |c| =    38.720000
 CELL_REF| Angle (b,c), alpha [degree]:                                90.000000
 CELL_REF| Angle (a,c), beta  [degree]:                                90.000000
 CELL_REF| Angle (a,b), gamma [degree]:                                90.000000
 CELL_REF| Numerically orthorhombic:                                         YES
 CELL_REF| Periodicity                                                       XYZ

 *** WARNING in cryssym.F:165 :: Symmetry library SPGLIB not available ***


 *******************************************************************************
                                    Kpoints
 *******************************************************************************
 BRILLOUIN| K-point scheme                                        Monkhorst-Pack
 BRILLOUIN| K-Point grid                                             3    3    1
 BRILLOUIN| Accuracy in Symmetry determination                      0.100000E-07
 BRILLOUIN| K-Point point group symmetrization                               OFF
 BRILLOUIN| Wavefunction type                                            COMPLEX
 BRILLOUIN| Use full k-point grid     
 BRILLOUIN| List of Kpoints [2 Pi/Bohr]                                        9
 BRILLOUIN| Number           Weight            X              Y              Z
 BRILLOUIN|     1           0.11111       -0.33333       -0.33333        0.00000
 BRILLOUIN|     2           0.11111       -0.33333        0.00000        0.00000
 BRILLOUIN|     3           0.11111       -0.33333        0.33333        0.00000
 BRILLOUIN|     4           0.11111        0.00000       -0.33333        0.00000
 BRILLOUIN|     5           0.11111        0.00000        0.00000        0.00000
 BRILLOUIN|     6           0.11111        0.00000        0.33333        0.00000
 BRILLOUIN|     7           0.11111        0.33333       -0.33333        0.00000
 BRILLOUIN|     8           0.11111        0.33333        0.00000        0.00000
 BRILLOUIN|     9           0.11111        0.33333        0.33333        0.00000
 *******************************************************************************

 *******************************************************************************
 *******************************************************************************
 **                                                                           **
 **     #####                         ##              ##                      **
 **    ##   ##            ##          ##              ##                      **
 **   ##     ##                       ##            ######                    **
 **   ##     ##  ##   ##  ##   #####  ##  ##   ####   ##    #####    #####    **
 **   ##     ##  ##   ##  ##  ##      ## ##   ##      ##   ##   ##  ##   ##   **
 **   ##  ## ##  ##   ##  ##  ##      ####     ###    ##   ######   ######    **
 **    ##  ###   ##   ##  ##  ##      ## ##      ##   ##   ##       ##        **
 **     #######   #####   ##   #####  ##  ##  ####    ##    #####   ##        **
 **           ##                                                    ##        **
 **                                                                           **
 **                                                ... make the atoms dance   **
 **                                                                           **
 **            Copyright (C) by CP2K developers group (2000-2022)             **
 **                      J. Chem. Phys. 152, 194103 (2020)                    **
 **                                                                           **
 *******************************************************************************

 DFT| Spin restricted Kohn-Sham (RKS) calculation                            RKS
 DFT| Multiplicity                                                             2
 DFT| Number of spin states                                                    1
 DFT| Charge                                                                   0
 DFT| Self-interaction correction (SIC)                                       NO
 DFT| Cutoffs: density                                              1.000000E-10
 DFT|          gradient                                             1.000000E-10
 DFT|          tau                                                  1.000000E-10
 DFT|          cutoff_smoothing_range                               0.000000E+00
 DFT| XC density smoothing                                                  NONE
 DFT| XC derivatives                                                          PW

 FUNCTIONAL| PBE:
 FUNCTIONAL| J.P.Perdew, K.Burke, M.Ernzerhof, Phys. Rev. Letter, vol. 77, n 18,
 FUNCTIONAL|  pp. 3865-3868, (1996){spin unpolarized}                           


 QS| Method:                                                                 GPW
 QS| Density plane wave grid type                        NON-SPHERICAL FULLSPACE
 QS| Number of grid levels:                                                    4
 QS| Density cutoff [a.u.]:                                                300.0
 QS| Multi grid cutoff [a.u.]: 1) grid level                               300.0
 QS|                           2) grid level                               100.0
 QS|                           3) grid level                                33.3
 QS|                           4) grid level                                11.1
 QS| Grid level progression factor:                                          3.0
 QS| Relative density cutoff [a.u.]:                                        30.0
 QS| Interaction thresholds: eps_pgf_orb:                                1.0E-05
 QS|                         eps_filter_matrix:                          0.0E+00
 QS|                         eps_core_charge:                            1.0E-12
 QS|                         eps_rho_gspace:                             1.0E-10
 QS|                         eps_rho_rspace:                             1.0E-10
 QS|                         eps_gvg_rspace:                             1.0E-05
 QS|                         eps_ppl:                                    1.0E-02
 QS|                         eps_ppnl:                                   1.0E-07


 ATOMIC KIND INFORMATION

  1. Atomic kind: Au                                    Number of atoms:     111

     Orbital Basis Set                                         SZV-MOLOPT-SR-GTH

       Number of orbital shell sets:                                           1
       Number of orbital shells:                                               3
       Number of primitive Cartesian functions:                                5
       Number of Cartesian basis functions:                                   10
       Number of spherical basis functions:                                    9
       Norm type:                                                              2

       Normalised Cartesian orbitals:

                        Set   Shell   Orbital            Exponent    Coefficient

                          1       1    2s                2.950008       0.074626
                                                         1.563057      -0.007898
                                                         0.666664      -0.297688
                                                         0.251083       0.136809
                                                         0.081714       0.088198

                          1       2    3px               2.950008       0.148824
                                                         1.563057       0.025430
                                                         0.666664      -0.123003
                                                         0.251083       0.033648
                                                         0.081714       0.059008
                          1       2    3py               2.950008       0.148824
                                                         1.563057       0.025430
                                                         0.666664      -0.123003
                                                         0.251083       0.033648
                                                         0.081714       0.059008
                          1       2    3pz               2.950008       0.148824
                                                         1.563057       0.025430
                                                         0.666664      -0.123003
                                                         0.251083       0.033648
                                                         0.081714       0.059008

                          1       3    4dx2              2.950008      -0.139595
                                                         1.563057       1.319655
                                                         0.666664       0.377081
                                                         0.251083       0.046872
                                                         0.081714       0.001393
                          1       3    4dxy              2.950008      -0.241786
                                                         1.563057       2.285709
                                                         0.666664       0.653124
                                                         0.251083       0.081185
                                                         0.081714       0.002412
                          1       3    4dxz              2.950008      -0.241786
                                                         1.563057       2.285709
                                                         0.666664       0.653124
                                                         0.251083       0.081185
                                                         0.081714       0.002412
                          1       3    4dy2              2.950008      -0.139595
                                                         1.563057       1.319655
                                                         0.666664       0.377081
                                                         0.251083       0.046872
                                                         0.081714       0.001393
                          1       3    4dyz              2.950008      -0.241786
                                                         1.563057       2.285709
                                                         0.666664       0.653124
                                                         0.251083       0.081185
                                                         0.081714       0.002412
                          1       3    4dz2              2.950008      -0.139595
                                                         1.563057       1.319655
                                                         0.666664       0.377081
                                                         0.251083       0.046872
                                                         0.081714       0.001393

       Atomic covalent radius [Angstrom]:                                  1.340

       Atomic van der Waals radius [Angstrom]:                             1.660

     GTH Potential information for                                   GTH-PBE-q11

       Description:                       Goedecker-Teter-Hutter pseudopotential
                                           Goedecker et al., PRB 54, 1703 (1996)
                                          Hartwigsen et al., PRB 58, 3641 (1998)
                                                      Krack, TCA 114, 145 (2005)

       Gaussian exponent of the core charge distribution:               1.436369
       Electronic configuration (s p d ...):                           1   0  10

       Parameters of the local part of the GTH pseudopotential:

                          rloc        C1          C2          C3          C4
                        0.590000   10.517179

       Parameters of the non-local part of the GTH pseudopotential:

                   l      r(l)      h(i,j,l)

                   0    0.543847    5.786811   -2.250680
                                   -2.250680    2.905615
                   1    0.609173    4.284049   -4.071285
                                   -4.071285    4.817210
                   2    0.437309   -7.403281    3.010193
                                    3.010193   -3.413238

  2. Atomic kind: H                                     Number of atoms:       2

     Orbital Basis Set                                        DZVP-MOLOPT-SR-GTH

       Number of orbital shell sets:                                           1
       Number of orbital shells:                                               3
       Number of primitive Cartesian functions:                                5
       Number of Cartesian basis functions:                                    5
       Number of spherical basis functions:                                    5
       Norm type:                                                              2

       Normalised Cartesian orbitals:

                        Set   Shell   Orbital            Exponent    Coefficient

                          1       1    2s               10.068468      -0.133023
                                                         2.680223      -0.177618
                                                         0.791502      -0.258419
                                                         0.239116      -0.107525
                                                         0.082193      -0.014019

                          1       2    3s               10.068468       0.344673
                                                         2.680223       1.819821
                                                         0.791502      -0.999069
                                                         0.239116       0.017430
                                                         0.082193       0.082660

                          1       3    3px              10.068468       0.155326
                                                         2.680223       0.367157
                                                         0.791502       0.311480
                                                         0.239116       0.080105
                                                         0.082193       0.033440
                          1       3    3py              10.068468       0.155326
                                                         2.680223       0.367157
                                                         0.791502       0.311480
                                                         0.239116       0.080105
                                                         0.082193       0.033440
                          1       3    3pz              10.068468       0.155326
                                                         2.680223       0.367157
                                                         0.791502       0.311480
                                                         0.239116       0.080105
                                                         0.082193       0.033440

       Atomic covalent radius [Angstrom]:                                  0.320

       Atomic van der Waals radius [Angstrom]:                             1.090

     GTH Potential information for                                    GTH-PBE-q1

       Description:                       Goedecker-Teter-Hutter pseudopotential
                                           Goedecker et al., PRB 54, 1703 (1996)
                                          Hartwigsen et al., PRB 58, 3641 (1998)
                                                      Krack, TCA 114, 145 (2005)

       Gaussian exponent of the core charge distribution:              12.500000
       Electronic configuration (s p d ...):                                   1

       Parameters of the local part of the GTH pseudopotential:

                          rloc        C1          C2          C3          C4
                        0.200000   -4.178900    0.724463


 MOLECULE KIND INFORMATION


 All atoms are their own molecule, skipping detailed information


 TOTAL NUMBERS AND MAXIMUM NUMBERS

  Total number of            - Atomic kinds:                                   2
                             - Atoms:                                        113
                             - Shell sets:                                   113
                             - Shells:                                       339
                             - Primitive Cartesian functions:                565
                             - Cartesian basis functions:                   1120
                             - Spherical basis functions:                   1009

  Maximum angular momentum of- Orbital basis functions:                        2
                             - Local part of the GTH pseudopotential:          2
                             - Non-local part of the GTH pseudopotential:      4


 MODULE QUICKSTEP: ATOMIC COORDINATES IN ANGSTROM

   Atom Kind Element         X             Y             Z       Z(eff)     Mass
      1    1 Au   79      1.787000      1.281000      0.000000  11.0000 196.9666
      2    1 Au   79      0.309000      2.759000      2.090000  11.0000 196.9666
      3    1 Au   79      1.787000      1.281000      4.180000  11.0000 196.9666
      4    1 Au   79      0.309000      2.759000      6.270000  11.0000 196.9666
      5    1 Au   79      4.743000      1.281000      0.000000  11.0000 196.9666
      6    1 Au   79      3.265000      2.759000      2.090000  11.0000 196.9666
      7    1 Au   79      4.743000      1.281000      4.180000  11.0000 196.9666
      8    1 Au   79      3.265000      2.759000      6.270000  11.0000 196.9666
      9    1 Au   79      7.699000      1.281000      0.000000  11.0000 196.9666
     10    1 Au   79      6.221000      2.759000      2.090000  11.0000 196.9666
     11    1 Au   79      7.699000      1.281000      4.180000  11.0000 196.9666
     12    1 Au   79      6.221000      2.759000      6.270000  11.0000 196.9666
     13    1 Au   79      1.787000      4.236000      0.000000  11.0000 196.9666
     14    1 Au   79      0.309000      5.714000      2.090000  11.0000 196.9666
     15    1 Au   79      1.787000      4.236000      4.180000  11.0000 196.9666
     16    1 Au   79      0.309000      5.714000      6.270000  11.0000 196.9666
     17    1 Au   79      4.743000      4.236000      0.000000  11.0000 196.9666
     18    1 Au   79      3.265000      5.714000      2.090000  11.0000 196.9666
     19    1 Au   79      4.743000      4.236000      4.180000  11.0000 196.9666
     20    1 Au   79      3.265000      5.714000      6.270000  11.0000 196.9666
     21    1 Au   79      7.699000      4.236000      0.000000  11.0000 196.9666
     22    1 Au   79      6.221000      5.714000      2.090000  11.0000 196.9666
     23    1 Au   79      7.699000      4.236000      4.180000  11.0000 196.9666
     24    1 Au   79      6.221000      5.714000      6.270000  11.0000 196.9666
     25    1 Au   79      1.787000      7.192000      0.000000  11.0000 196.9666
     26    1 Au   79      0.309000      8.670000      2.090000  11.0000 196.9666
     27    1 Au   79      1.787000      7.192000      4.180000  11.0000 196.9666
     28    1 Au   79      0.309000      8.670000      6.270000  11.0000 196.9666
     29    1 Au   79      4.743000      7.192000      0.000000  11.0000 196.9666
     30    1 Au   79      3.265000      8.670000      2.090000  11.0000 196.9666
     31    1 Au   79      4.743000      7.192000      4.180000  11.0000 196.9666
     32    1 Au   79      3.265000      8.670000      6.270000  11.0000 196.9666
     33    1 Au   79      7.699000      7.192000      0.000000  11.0000 196.9666
     34    1 Au   79      6.221000      8.670000      2.090000  11.0000 196.9666
     35    1 Au   79      7.699000      7.192000      4.180000  11.0000 196.9666
     36    1 Au   79      6.221000      8.670000      6.270000  11.0000 196.9666
     37    1 Au   79      1.787000      1.281000      8.360000  11.0000 196.9666
     38    1 Au   79      1.787000      4.236000      8.360000  11.0000 196.9666
     39    1 Au   79      1.787000      7.192000      8.360000  11.0000 196.9666
     40    1 Au   79      4.743000      1.281000      8.360000  11.0000 196.9666
     41    1 Au   79      4.743000      4.236000      8.360000  11.0000 196.9666
     42    1 Au   79      4.743000      7.192000      8.360000  11.0000 196.9666
     43    1 Au   79      7.699000      1.281000      8.360000  11.0000 196.9666
     44    1 Au   79      7.699000      4.236000      8.360000  11.0000 196.9666
     45    1 Au   79      7.699000      7.192000      8.360000  11.0000 196.9666
     46    1 Au   79      0.309000      2.759000     10.450000  11.0000 196.9666
     47    1 Au   79      0.309000      5.714000     10.450000  11.0000 196.9666
     48    1 Au   79      0.309000      8.670000     10.450000  11.0000 196.9666
     49    1 Au   79      3.265000      2.759000     10.450000  11.0000 196.9666
     50    1 Au   79      3.265000      5.714000     10.450000  11.0000 196.9666
     51    1 Au   79      3.265000      8.670000     10.450000  11.0000 196.9666
     52    1 Au   79      6.221000      2.759000     10.450000  11.0000 196.9666
     53    1 Au   79      6.221000      5.714000     10.450000  11.0000 196.9666
     54    1 Au   79      6.221000      8.670000     10.450000  11.0000 196.9666
     55    1 Au   79      1.767000      4.215000     12.446000  11.0000 196.9666
     56    1 Au   79      1.766000      7.214000     12.446000  11.0000 196.9666
     57    1 Au   79      4.765000      4.213000     12.446000  11.0000 196.9666
     58    1 Au   79      4.767000      7.214000     12.445000  11.0000 196.9666
     59    1 Au   79      3.268000      5.717000     14.396000  11.0000 196.9666
     60    1 Au   79      3.267000      5.744000     17.050000  11.0000 196.9666
     61    2 H     1      3.254000      5.720000     18.927000   1.0000   1.0079
     62    2 H     1      3.260000      5.726000     19.796000   1.0000   1.0079
     63    1 Au   79      3.233000      5.712000     21.672000  11.0000 196.9666
     64    1 Au   79      3.264000      5.714000     24.326000  11.0000 196.9666
     65    1 Au   79      1.765000      4.213000     26.275000  11.0000 196.9666
     66    1 Au   79      1.765000      7.214000     26.274000  11.0000 196.9666
     67    1 Au   79      4.765000      4.214000     26.274000  11.0000 196.9666
     68    1 Au   79      4.765000      7.214000     26.275000  11.0000 196.9666
     69    1 Au   79      0.309000      2.759000     28.270000  11.0000 196.9666
     70    1 Au   79      0.309000      5.714000     28.270000  11.0000 196.9666
     71    1 Au   79      0.309000      8.670000     28.270000  11.0000 196.9666
     72    1 Au   79      3.265000      2.759000     28.270000  11.0000 196.9666
     73    1 Au   79      3.265000      5.714000     28.270000  11.0000 196.9666
     74    1 Au   79      3.265000      8.670000     28.270000  11.0000 196.9666
     75    1 Au   79      6.221000      2.759000     28.270000  11.0000 196.9666
     76    1 Au   79      6.221000      5.714000     28.270000  11.0000 196.9666
     77    1 Au   79      6.221000      8.670000     28.270000  11.0000 196.9666
     78    1 Au   79      1.787000      1.281000     30.360000  11.0000 196.9666
     79    1 Au   79      0.309000      2.759000     32.450000  11.0000 196.9666
     80    1 Au   79      1.787000      1.281000     34.540000  11.0000 196.9666
     81    1 Au   79      0.309000      2.759000     36.630000  11.0000 196.9666
     82    1 Au   79      4.743000      1.281000     30.360000  11.0000 196.9666
     83    1 Au   79      3.265000      2.759000     32.450000  11.0000 196.9666
     84    1 Au   79      4.743000      1.281000     34.540000  11.0000 196.9666
     85    1 Au   79      3.265000      2.759000     36.630000  11.0000 196.9666
     86    1 Au   79      7.699000      1.281000     30.360000  11.0000 196.9666
     87    1 Au   79      6.221000      2.759000     32.450000  11.0000 196.9666
     88    1 Au   79      7.699000      1.281000     34.540000  11.0000 196.9666
     89    1 Au   79      6.221000      2.759000     36.630000  11.0000 196.9666
     90    1 Au   79      1.787000      4.236000     30.360000  11.0000 196.9666
     91    1 Au   79      0.309000      5.714000     32.450000  11.0000 196.9666
     92    1 Au   79      1.787000      4.236000     34.540000  11.0000 196.9666
     93    1 Au   79      0.309000      5.714000     36.630000  11.0000 196.9666
     94    1 Au   79      4.743000      4.236000     30.360000  11.0000 196.9666
     95    1 Au   79      3.265000      5.714000     32.450000  11.0000 196.9666
     96    1 Au   79      4.743000      4.236000     34.540000  11.0000 196.9666
     97    1 Au   79      3.265000      5.714000     36.630000  11.0000 196.9666
     98    1 Au   79      7.699000      4.236000     30.360000  11.0000 196.9666
     99    1 Au   79      6.221000      5.714000     32.450000  11.0000 196.9666
    100    1 Au   79      7.699000      4.236000     34.540000  11.0000 196.9666
    101    1 Au   79      6.221000      5.714000     36.630000  11.0000 196.9666
    102    1 Au   79      1.787000      7.192000     30.360000  11.0000 196.9666
    103    1 Au   79      0.309000      8.670000     32.450000  11.0000 196.9666
    104    1 Au   79      1.787000      7.192000     34.540000  11.0000 196.9666
    105    1 Au   79      0.309000      8.670000     36.630000  11.0000 196.9666
    106    1 Au   79      4.743000      7.192000     30.360000  11.0000 196.9666
    107    1 Au   79      3.265000      8.670000     32.450000  11.0000 196.9666
    108    1 Au   79      4.743000      7.192000     34.540000  11.0000 196.9666
    109    1 Au   79      3.265000      8.670000     36.630000  11.0000 196.9666
    110    1 Au   79      7.699000      7.192000     30.360000  11.0000 196.9666
    111    1 Au   79      6.221000      8.670000     32.450000  11.0000 196.9666
    112    1 Au   79      7.699000      7.192000     34.540000  11.0000 196.9666
    113    1 Au   79      6.221000      8.670000     36.630000  11.0000 196.9666



 SCF PARAMETERS         Density guess:                                   RESTART
                        --------------------------------------------------------
                        max_scf:                                             500
                        max_scf_history:                                       0
                        max_diis:                                              4
                        --------------------------------------------------------
                        eps_scf:                                        1.00E-08
                        eps_scf_history:                                0.00E+00
                        eps_diis:                                       1.00E-01
                        eps_eigval:                                     1.00E-05
                        --------------------------------------------------------
                        level_shift [a.u.]:                             0.000000
                        added MOs                                       100    0
                        --------------------------------------------------------
                        Mixing method:                            BROYDEN_MIXING
                                                charge density mixing in g-space
                        --------------------------------------------------------
                        Smear method:                                FERMI_DIRAC
                        Electronic temperature [K]:                        293.0
                        Electronic temperature [a.u.]:                  9.28E-04
                        Accuracy threshold:                             1.00E-10
                        --------------------------------------------------------
                        No outer SCF

 PW_GRID| Information for grid number                                          1
 PW_GRID| Grid distributed over                                   576 processors
 PW_GRID| Real space group dimensions                                    24   24
 PW_GRID| the grid is blocked:                                               YES
 PW_GRID| Cutoff [a.u.]                                                    300.0
 PW_GRID| spherical cutoff:                                                   NO
 PW_GRID|   Bounds   1            -66      65                Points:         132
 PW_GRID|   Bounds   2            -66      65                Points:         132
 PW_GRID|   Bounds   3           -288     287                Points:         576
 PW_GRID| Volume element (a.u.^3)  0.2047E-02     Volume (a.u.^3)     20544.5734
 PW_GRID| Grid span                                                    FULLSPACE
 PW_GRID|   Distribution                         Average         Max         Min
 PW_GRID|   G-Vectors                            17424.0       19008       15840
 PW_GRID|   G-Rays                                 132.0         144         120
 PW_GRID|   Real Space Points                    17424.0       19008       15840

 PW_GRID| Information for grid number                                          2
 PW_GRID| Number of the reference grid                                         1
 PW_GRID| Grid distributed over                                   576 processors
 PW_GRID| Real space group dimensions                                    24   24
 PW_GRID| the grid is blocked:                                                NO
 PW_GRID| Cutoff [a.u.]                                                    100.0
 PW_GRID| spherical cutoff:                                                   NO
 PW_GRID|   Bounds   1            -37      37                Points:          75
 PW_GRID|   Bounds   2            -37      37                Points:          75
 PW_GRID|   Bounds   3           -165     164                Points:         330
 PW_GRID| Volume element (a.u.^3)  0.1107E-01     Volume (a.u.^3)     20544.5734
 PW_GRID| Grid span                                                    FULLSPACE
 PW_GRID|   Distribution                         Average         Max         Min
 PW_GRID|   G-Vectors                             3222.7       10800           0
 PW_GRID|   G-Rays                                  43.0         144           0
 PW_GRID|   Real Space Points                     3222.7        5280        2970

 PW_GRID| Information for grid number                                          3
 PW_GRID| Number of the reference grid                                         1
 PW_GRID| Grid distributed over                                   576 processors
 PW_GRID| Real space group dimensions                                    24   24
 PW_GRID| the grid is blocked:                                                NO
 PW_GRID| Cutoff [a.u.]                                                     33.3
 PW_GRID| spherical cutoff:                                                   NO
 PW_GRID|   Bounds   1            -22      21                Points:          44
 PW_GRID|   Bounds   2            -22      21                Points:          44
 PW_GRID|   Bounds   3            -96      95                Points:         192
 PW_GRID| Volume element (a.u.^3)  0.5527E-01     Volume (a.u.^3)     20544.5734
 PW_GRID| Grid span                                                    FULLSPACE
 PW_GRID|   Distribution                         Average         Max         Min
 PW_GRID|   G-Vectors                              645.3        6336           0
 PW_GRID|   G-Rays                                  14.7         144           0
 PW_GRID|   Real Space Points                      645.3         768         192

 PW_GRID| Information for grid number                                          4
 PW_GRID| Number of the reference grid                                         1
 PW_GRID| Grid distributed over                                   576 processors
 PW_GRID| Real space group dimensions                                    24   24
 PW_GRID| the grid is blocked:                                                NO
 PW_GRID| Cutoff [a.u.]                                                     11.1
 PW_GRID| spherical cutoff:                                                   NO
 PW_GRID|   Bounds   1            -12      12                Points:          25
 PW_GRID|   Bounds   2            -12      12                Points:          25
 PW_GRID|   Bounds   3            -55      54                Points:         110
 PW_GRID| Volume element (a.u.^3)  0.2988         Volume (a.u.^3)     20544.5734
 PW_GRID| Grid span                                                    FULLSPACE
 PW_GRID|   Distribution                         Average         Max         Min
 PW_GRID|   G-Vectors                              119.4        3600           0
 PW_GRID|   G-Rays                                   4.8         144           0
 PW_GRID|   Real Space Points                      119.4         440         110

 POISSON| Solver                                                        PERIODIC
 POISSON| Periodicity                                                        XYZ

 RS_GRID| Information for grid number                                          1
 RS_GRID|   Bounds   1            -66      65                Points:         132
 RS_GRID|   Bounds   2            -66      65                Points:         132
 RS_GRID|   Bounds   3           -288     287                Points:         576
 RS_GRID| Real space distribution over                                 12 groups
 RS_GRID| Real space distribution along direction                              2
 RS_GRID| Border size                                                         35
 RS_GRID| Real space distribution over                                 48 groups
 RS_GRID| Real space distribution along direction                              3
 RS_GRID| Border size                                                         35
 RS_GRID|   Distribution                         Average         Max         Min
 RS_GRID|   Planes                                  81.0          81          81
 RS_GRID|   Distribution                         Average         Max         Min
 RS_GRID|   Planes                                  82.0          82          82

 RS_GRID| Information for grid number                                          2
 RS_GRID|   Bounds   1            -37      37                Points:          75
 RS_GRID|   Bounds   2            -37      37                Points:          75
 RS_GRID|   Bounds   3           -165     164                Points:         330
 RS_GRID| Real space distribution over                                 12 groups
 RS_GRID| Real space distribution along direction                              2
 RS_GRID| Border size                                                         24
 RS_GRID| Real space distribution over                                 48 groups
 RS_GRID| Real space distribution along direction                              3
 RS_GRID| Border size                                                         24
 RS_GRID|   Distribution                         Average         Max         Min
 RS_GRID|   Planes                                  54.2          55          54
 RS_GRID|   Distribution                         Average         Max         Min
 RS_GRID|   Planes                                  54.9          55          54

 RS_GRID| Information for grid number                                          3
 RS_GRID|   Bounds   1            -22      21                Points:          44
 RS_GRID|   Bounds   2            -22      21                Points:          44
 RS_GRID|   Bounds   3            -96      95                Points:         192
 RS_GRID| Real space fully replicated
 RS_GRID| Group size                                                           1

 RS_GRID| Information for grid number                                          4
 RS_GRID|   Bounds   1            -12      12                Points:          25
 RS_GRID|   Bounds   2            -12      12                Points:          25
 RS_GRID|   Bounds   3            -55      54                Points:         110
 RS_GRID| Real space fully replicated
 RS_GRID| Group size                                                           1

 KPOINTS| Number of kpoint groups                                              1
 KPOINTS| Size of each kpoint group                                          576
 KPOINTS| Number of kpoints per group                                          9

 MD_PAR| Molecular dynamics protocol (MD input parameters)
 MD_PAR| Ensemble type                                                       NVE
 MD_PAR| Number of time steps                                                  0
 MD_PAR| Time step [fs]                                                 0.500000
 MD_PAR| Temperature [K]                                              300.000000
 MD_PAR| Temperature tolerance [K]                                      0.000000
 MD_PAR| Constraints activated
 MD_PAR| Tolerance for shake                                            0.000001
 MD_PAR| Print MD information every                                    1 step(s)
 MD_PAR| File type   Print frequency [steps]                          File names
 MD_PAR| Coordinates          1                                   1.7V-pos-1.xyz
 MD_PAR| Velocities           1                                   1.7V-vel-1.xyz
 MD_PAR| Energies             1                                      1.7V-1.ener
 MD_PAR| Dump                20                                   1.7V-1.restart

 ROT| Rotational analysis information
 ROT| Principal axes and moments of inertia [a.u.]
 ROT|                           1                   2                   3
 ROT| Eigenvalues      1.67160257134E+09   2.60885103588E+10   2.62353210267E+10
 ROT|      x             -0.008051021613     -0.707622635902     -0.706544680972
 ROT|      y              0.008039094341      0.706498944920     -0.707668434925
 ROT|      z              0.999935274912     -0.011377433211      0.000000606853
 ROT| Number of rotovibrational vectors                                        6

 DOF| Calculation of degrees of freedom
 DOF| Number of atoms                                                        113
 DOF| Number of intramolecular constraints                                   297
 DOF| Number of intermolecular constraints                                     0
 DOF| Invariants (translations + rotations)                                    3
 DOF| Degrees of freedom                                                      39

 DOF| Restraints information
 DOF| Number of intramolecular restraints                                      0
 DOF| Number of intermolecular restraints                                      0

 MD_VEL| Velocities initialization
 MD_VEL| Initial temperature [K]                                      300.000000
 MD_VEL| COM velocity             0.0000000000    -0.0000000000    -0.0000000000

 Number of electrons:                                                       1223
 Number of occupied orbitals:                                                612
 Number of molecular orbitals:                                               712

 Number of orbital functions:                                               1009
 Number of independent orbital functions:                                   1009

 Extrapolation method: initial_guess


 SCF WAVEFUNCTION OPTIMIZATION

  Step     Update method      Time    Convergence         Total energy    Change
  ------------------------------------------------------------------------------
 SMEAGOL DEBUG| Number of electrons in the unit cell =      1222.9607395975
     1 NoMix/SMGL  0.30E+00   44.7     0.26661488     -3690.6432614900 -3.69E+03
 SMEAGOL DEBUG| Number of electrons in the unit cell =      1221.7570880334
     2 Broy./SMGL  0.30E+00    3.9     9.11728673     -3691.9985774801 -1.36E+00
 SMEAGOL DEBUG| Number of electrons in the unit cell =      1220.1793958720
     3 Broy./SMGL  0.30E+00    3.8     9.12620480     -3805.4846653286 -1.13E+02
 SMEAGOL DEBUG| Number of electrons in the unit cell =      1221.5670021344
     4 Broy./SMGL  0.30E+00    3.8     0.49043330     -3697.8323511581  1.08E+02
 SMEAGOL DEBUG| Number of electrons in the unit cell =      1222.7558562061
     5 Broy./SMGL  0.30E+00    3.8     0.13569785     -3681.0304592974  1.68E+01
 SMEAGOL DEBUG| Number of electrons in the unit cell =      1222.4381085567
     6 Broy./SMGL  0.30E+00    3.8     0.04178318     -3686.9043451203 -5.87E+00
 SMEAGOL DEBUG| Number of electrons in the unit cell =      1222.6075102872
     7 Broy./SMGL  0.30E+00    3.8     0.02077912     -3686.0460143608  8.58E-01
 SMEAGOL DEBUG| Number of electrons in the unit cell =      1222.8544376187
     8 Broy./SMGL  0.30E+00    3.8     0.01379718     -3687.1622893164 -1.12E+00
 SMEAGOL DEBUG| Number of electrons in the unit cell =      1222.9004370032
     9 Broy./SMGL  0.30E+00    3.8     0.00197521     -3688.4736612000 -1.31E+00
 SMEAGOL DEBUG| Number of electrons in the unit cell =      1223.0110046042
    10 Broy./SMGL  0.30E+00    3.8     0.00746185     -3688.5375686191 -6.39E-02
 SMEAGOL DEBUG| Number of electrons in the unit cell =      1223.0421260303
    11 Broy./SMGL  0.30E+00    3.8     0.00557967     -3688.8319147276 -2.94E-01
 SMEAGOL DEBUG| Number of electrons in the unit cell =      1223.2388812769
    12 Broy./SMGL  0.30E+00    3.9     0.05765982     -3688.6157288313  2.16E-01
 SMEAGOL DEBUG| Number of electrons in the unit cell =      1223.1153451412
    13 Broy./SMGL  0.30E+00    3.8     0.02473961     -3690.9380870207 -2.32E+00
 SMEAGOL DEBUG| Number of electrons in the unit cell =      1223.0896064282
    14 Broy./SMGL  0.30E+00    3.8     0.01053321     -3690.9972210434 -5.91E-02
 SMEAGOL DEBUG| Number of electrons in the unit cell =      1223.0452240054
    15 Broy./SMGL  0.30E+00    3.8     0.00278909     -3690.5828552199  4.14E-01
 SMEAGOL DEBUG| Number of electrons in the unit cell =      1222.9829220265
    16 Broy./SMGL  0.30E+00    3.8     0.00245330     -3690.6161776268 -3.33E-02
 SMEAGOL DEBUG| Number of electrons in the unit cell =      1222.9709096910
    17 Broy./SMGL  0.30E+00    3.8     0.00057235     -3690.5749577318  4.12E-02
 SMEAGOL DEBUG| Number of electrons in the unit cell =      1222.9659093362
    18 Broy./SMGL  0.30E+00    3.8     0.00182842     -3690.5641573824  1.08E-02
 SMEAGOL DEBUG| Number of electrons in the unit cell =      1222.9648352432
    19 Broy./SMGL  0.30E+00    3.8     0.00073836     -3690.5453727013  1.88E-02
 SMEAGOL DEBUG| Number of electrons in the unit cell =      1222.9654892996
    20 Broy./SMGL  0.30E+00    3.8     0.00153617     -3690.5300614152  1.53E-02
 SMEAGOL DEBUG| Number of electrons in the unit cell =      1222.9619615591
    21 Broy./SMGL  0.30E+00    3.8     0.00089733     -3690.5471111384 -1.70E-02
 SMEAGOL DEBUG| Number of electrons in the unit cell =      1222.9644089766
    22 Broy./SMGL  0.30E+00    3.8     0.00190472     -3690.5517314492 -4.62E-03
 SMEAGOL DEBUG| Number of electrons in the unit cell =      1222.9634644166
    23 Broy./SMGL  0.30E+00    3.8     0.00030848     -3690.5678792317 -1.61E-02
 SMEAGOL DEBUG| Number of electrons in the unit cell =      1222.9605485324
    24 Broy./SMGL  0.30E+00    3.8     0.00039346     -3690.5734871300 -5.61E-03
 SMEAGOL DEBUG| Number of electrons in the unit cell =      1222.9595880425
    25 Broy./SMGL  0.30E+00    3.8     0.00040674     -3690.5686564523  4.83E-03
 SMEAGOL DEBUG| Number of electrons in the unit cell =      1222.9591536613
    26 Broy./SMGL  0.30E+00    3.8     0.00052643     -3690.5650110142  3.65E-03
 SMEAGOL DEBUG| Number of electrons in the unit cell =      1222.9591586391
    27 Broy./SMGL  0.30E+00    3.8     0.00005179     -3690.5574368029  7.57E-03
 SMEAGOL DEBUG| Number of electrons in the unit cell =      1222.9590788897
    28 Broy./SMGL  0.30E+00    3.8     0.00012285     -3690.5568645351  5.72E-04
 SMEAGOL DEBUG| Number of electrons in the unit cell =      1222.9591722502
    29 Broy./SMGL  0.30E+00    3.8     0.00003930     -3690.5614773173 -4.61E-03
 SMEAGOL DEBUG| Number of electrons in the unit cell =      1222.9593576744
    30 Broy./SMGL  0.30E+00    3.8     0.00032728     -3690.5607182740  7.59E-04
 SMEAGOL DEBUG| Number of electrons in the unit cell =      1222.9598448773
    31 Broy./SMGL  0.30E+00    3.8     0.00061736     -3690.5691317525 -8.41E-03
 SMEAGOL DEBUG| Number of electrons in the unit cell =      1222.9600921563
    32 Broy./SMGL  0.30E+00    3.8     0.00062520     -3690.5705034484 -1.37E-03
 SMEAGOL DEBUG| Number of electrons in the unit cell =      1222.9600422944
    33 Broy./SMGL  0.30E+00    3.8     0.00024592     -3690.5658600532  4.64E-03
 SMEAGOL DEBUG| Number of electrons in the unit cell =      1222.9599610906
    34 Broy./SMGL  0.30E+00    3.8     0.00081077     -3690.5654831265  3.77E-04
 SMEAGOL DEBUG| Number of electrons in the unit cell =      1222.9600313223
    35 Broy./SMGL  0.30E+00    3.8     0.00028610     -3690.5670061537 -1.52E-03
 SMEAGOL DEBUG| Number of electrons in the unit cell =      1222.9600450006
    36 Broy./SMGL  0.30E+00    3.8     0.00002069     -3690.5650738615  1.93E-03
 SMEAGOL DEBUG| Number of electrons in the unit cell =      1222.9600435380
    37 Broy./SMGL  0.30E+00    3.8     0.00007521     -3690.5652104302 -1.37E-04
 SMEAGOL DEBUG| Number of electrons in the unit cell =      1222.9600954192
    38 Broy./SMGL  0.30E+00    3.8     0.00009509     -3690.5660656607 -8.55E-04
 SMEAGOL DEBUG| Number of electrons in the unit cell =      1222.9602669754
    39 Broy./SMGL  0.30E+00    3.8     0.00043092     -3690.5683985433 -2.33E-03
 SMEAGOL DEBUG| Number of electrons in the unit cell =      1222.9603531947
    40 Broy./SMGL  0.30E+00    3.8     0.00059601     -3690.5703934773 -1.99E-03
 SMEAGOL DEBUG| Number of electrons in the unit cell =      1222.9603800200
    41 Broy./SMGL  0.30E+00    3.8     0.00031520     -3690.5678565282  2.54E-03
 SMEAGOL DEBUG| Number of electrons in the unit cell =      1222.9604651057
    42 Broy./SMGL  0.30E+00    3.8     0.00045753     -3690.5662477807  1.61E-03
 SMEAGOL DEBUG| Number of electrons in the unit cell =      1222.9604674099
    43 Broy./SMGL  0.30E+00    3.8     0.00047228     -3690.5599374219  6.31E-03
 SMEAGOL DEBUG| Number of electrons in the unit cell =      1222.9605621225
    44 Broy./SMGL  0.30E+00    3.8     0.00013721     -3690.5651672300 -5.23E-03
 SMEAGOL DEBUG| Number of electrons in the unit cell =      1222.9605735645
    45 Broy./SMGL  0.30E+00    3.8     0.00047228     -3690.5648153611  3.52E-04
 SMEAGOL DEBUG| Number of electrons in the unit cell =      1222.9606415886
    46 Broy./SMGL  0.30E+00    3.8     0.00025074     -3690.5678571206 -3.04E-03
 SMEAGOL DEBUG| Number of electrons in the unit cell =      1222.9606959031
    47 Broy./SMGL  0.30E+00    3.8     0.00033847     -3690.5677502015  1.07E-04
 SMEAGOL DEBUG| Number of electrons in the unit cell =      1222.9606061660
    48 Broy./SMGL  0.30E+00    3.8     0.00015546     -3690.5672675573  4.83E-04
 SMEAGOL DEBUG| Number of electrons in the unit cell =      1222.9606961966
    49 Broy./SMGL  0.30E+00    3.8     0.00025808     -3690.5676898759 -4.22E-04
 SMEAGOL DEBUG| Number of electrons in the unit cell =      1222.9607557862
    50 Broy./SMGL  0.30E+00    3.8     0.00071333     -3690.5706855116 -3.00E-03
 SMEAGOL DEBUG| Number of electrons in the unit cell =      1222.9607888358
    51 Broy./SMGL  0.30E+00    3.8     0.00036141     -3690.5687865098  1.90E-03
 SMEAGOL DEBUG| Number of electrons in the unit cell =      1222.9608111601
    52 Broy./SMGL  0.30E+00    3.8     0.00013390     -3690.5653372292  3.45E-03
 SMEAGOL DEBUG| Number of electrons in the unit cell =      1222.9607899543
    53 Broy./SMGL  0.30E+00    3.8     0.00012696     -3690.5662838354 -9.47E-04
 SMEAGOL DEBUG| Number of electrons in the unit cell =      1222.9608237249
    54 Broy./SMGL  0.30E+00    3.8     0.00022025     -3690.5667598036 -4.76E-04
 SMEAGOL DEBUG| Number of electrons in the unit cell =      1222.9607896723
    55 Broy./SMGL  0.30E+00    3.8     0.00027765     -3690.5676293399 -8.70E-04
 SMEAGOL DEBUG| Number of electrons in the unit cell =      1222.9608283912
    56 Broy./SMGL  0.30E+00    3.8     0.00062987     -3690.5666466502  9.83E-04
 SMEAGOL DEBUG| Number of electrons in the unit cell =      1222.9608235942
    57 Broy./SMGL  0.30E+00    3.8     0.00000023     -3690.5660425257  6.04E-04
 SMEAGOL DEBUG| Number of electrons in the unit cell =      1222.9607215460
    58 Broy./SMGL  0.30E+00    3.8     0.00014567     -3690.5666031810 -5.61E-04
 SMEAGOL DEBUG| Number of electrons in the unit cell =      1222.9607122915
    59 Broy./SMGL  0.30E+00    3.8     0.00038758     -3690.5688257446 -2.22E-03
 SMEAGOL DEBUG| Number of electrons in the unit cell =      1222.9607232093
    60 Broy./SMGL  0.30E+00    3.8     0.00102205     -3690.5717294742 -2.90E-03
 SMEAGOL DEBUG| Number of electrons in the unit cell =      1222.9607224370
    61 Broy./SMGL  0.30E+00    3.8     0.00141171     -3690.5672238517  4.51E-03
 SMEAGOL DEBUG| Number of electrons in the unit cell =      1222.9607946161
    62 Broy./SMGL  0.30E+00    3.8     0.00226088     -3690.5525287832  1.47E-02
 SMEAGOL DEBUG| Number of electrons in the unit cell =      1222.9607405165
    63 Broy./SMGL  0.30E+00    3.8     0.00106598     -3690.5194997251  3.30E-02
 SMEAGOL DEBUG| Number of electrons in the unit cell =      1222.9606593754
    64 Broy./SMGL  0.30E+00    3.8     0.00071542     -3690.5100413785  9.46E-03
 SMEAGOL DEBUG| Number of electrons in the unit cell =      1222.9608649349
    65 Broy./SMGL  0.30E+00    3.8     0.00107999     -3690.5139048077 -3.86E-03
 SMEAGOL DEBUG| Number of electrons in the unit cell =      1222.9605794552
    66 Broy./SMGL  0.30E+00    3.8     0.00065494     -3690.5081255593  5.78E-03
 SMEAGOL DEBUG| Number of electrons in the unit cell =      1222.9607046173
    67 Broy./SMGL  0.30E+00    3.8     0.00041321     -3690.5171615252 -9.04E-03
 SMEAGOL DEBUG| Number of electrons in the unit cell =      1222.9604658091
    68 Broy./SMGL  0.30E+00    3.8     0.00490273     -3690.5116429587  5.52E-03
 SMEAGOL DEBUG| Number of electrons in the unit cell =      1222.9605997169
    69 Broy./SMGL  0.30E+00    3.8     0.00026890     -3690.5596904038 -4.80E-02
 SMEAGOL DEBUG| Number of electrons in the unit cell =      1222.9605844298
    70 Broy./SMGL  0.30E+00    3.8     0.00025661     -3690.5526712349  7.02E-03
 SMEAGOL DEBUG| Number of electrons in the unit cell =      1222.9605579851
    71 Broy./SMGL  0.30E+00    3.8     0.00012212     -3690.5409043216  1.18E-02
 SMEAGOL DEBUG| Number of electrons in the unit cell =      1222.9605022297
    72 Broy./SMGL  0.30E+00    3.8     0.00001554     -3690.5331308345  7.77E-03
 SMEAGOL DEBUG| Number of electrons in the unit cell =      1222.9604043862
    73 Broy./SMGL  0.30E+00    3.8     0.00007570     -3690.5348665185 -1.74E-03
 SMEAGOL DEBUG| Number of electrons in the unit cell =      1222.9603441713
    74 Broy./SMGL  0.30E+00    3.8     0.00023744     -3690.5417858188 -6.92E-03
 SMEAGOL DEBUG| Number of electrons in the unit cell =      1222.9604215629
    75 Broy./SMGL  0.30E+00    3.8     0.00026582     -3690.5551612170 -1.34E-02
 SMEAGOL DEBUG| Number of electrons in the unit cell =      1222.9605201837
    76 Broy./SMGL  0.30E+00    3.8     0.00018067     -3690.5623495472 -7.19E-03
 SMEAGOL DEBUG| Number of electrons in the unit cell =      1222.9605566037
    77 Broy./SMGL  0.30E+00    3.8     0.00042170     -3690.5669155390 -4.57E-03
 SMEAGOL DEBUG| Number of electrons in the unit cell =      1222.9606181921
    78 Broy./SMGL  0.30E+00    3.8     0.00020935     -3690.5696056684 -2.69E-03
 SMEAGOL DEBUG| Number of electrons in the unit cell =      1222.9605866228
    79 Broy./SMGL  0.30E+00    3.8     0.00034357     -3690.5701637090 -5.58E-04
 SMEAGOL DEBUG| Number of electrons in the unit cell =      1222.9605723832
    80 Broy./SMGL  0.30E+00    3.8     0.00001217     -3690.5684711575  1.69E-03
 SMEAGOL DEBUG| Number of electrons in the unit cell =      1222.9606047449
    81 Broy./SMGL  0.30E+00    3.8     0.00007195     -3690.5683512305  1.20E-04
 SMEAGOL DEBUG| Number of electrons in the unit cell =      1222.9607055862
    82 Broy./SMGL  0.30E+00    3.8     0.00053204     -3690.5671355321  1.22E-03
 SMEAGOL DEBUG| Number of electrons in the unit cell =      1222.9607390476
    83 Broy./SMGL  0.30E+00    3.8     0.00033602     -3690.5669225541  2.13E-04
 SMEAGOL DEBUG| Number of electrons in the unit cell =      1222.9607451019
    84 Broy./SMGL  0.30E+00    3.8     0.00005827     -3690.5650270399  1.90E-03
 SMEAGOL DEBUG| Number of electrons in the unit cell =      1222.9607297538
    85 Broy./SMGL  0.30E+00    3.8     0.00021140     -3690.5653319394 -3.05E-04
 SMEAGOL DEBUG| Number of electrons in the unit cell =      1222.9606912725
    86 Broy./SMGL  0.30E+00    3.8     0.00059643     -3690.5690325847 -3.70E-03
 SMEAGOL DEBUG| Number of electrons in the unit cell =      1222.9606589793
    87 Broy./SMGL  0.30E+00    3.8     0.00084552     -3690.5710800557 -2.05E-03
 SMEAGOL DEBUG| Number of electrons in the unit cell =      1222.9606407193
    88 Broy./SMGL  0.30E+00    3.8     0.00100312     -3690.5664994748  4.58E-03
 SMEAGOL DEBUG| Number of electrons in the unit cell =      1222.9605662862
    89 Broy./SMGL  0.30E+00    3.9     0.00137920     -3690.5562455840  1.03E-02
 SMEAGOL DEBUG| Number of electrons in the unit cell =      1222.9604384710
    90 Broy./SMGL  0.30E+00    3.8     0.00127742     -3690.5373839922  1.89E-02
 SMEAGOL DEBUG| Number of electrons in the unit cell =      1222.9604984902
    91 Broy./SMGL  0.30E+00    3.8     0.00005640     -3690.5173296651  2.01E-02
 SMEAGOL DEBUG| Number of electrons in the unit cell =      1222.9607995952
    92 Broy./SMGL  0.30E+00    3.8     0.00082398     -3690.5166349306  6.95E-04
 SMEAGOL DEBUG| Number of electrons in the unit cell =      1222.9610013873
    93 Broy./SMGL  0.30E+00    3.8     0.00137683     -3690.5315738772 -1.49E-02
 SMEAGOL DEBUG| Number of electrons in the unit cell =      1222.9611464069
    94 Broy./SMGL  0.30E+00    3.8     0.00050197     -3690.5086440203  2.29E-02
 SMEAGOL DEBUG| Number of electrons in the unit cell =      1222.9614726066
    95 Broy./SMGL  0.30E+00    3.8     0.00537345     -3690.5031364228  5.51E-03
 SMEAGOL DEBUG| Number of electrons in the unit cell =      1222.9610556918
    96 Broy./SMGL  0.30E+00    3.9     0.00039059     -3690.5590730763 -5.59E-02
 SMEAGOL DEBUG| Number of electrons in the unit cell =      1222.9610863784
    97 Broy./SMGL  0.30E+00    3.8     0.00016057     -3690.5494901266  9.58E-03
 SMEAGOL DEBUG| Number of electrons in the unit cell =      1222.9611520276
    98 Broy./SMGL  0.30E+00    3.8     0.00009622     -3690.5426257896  6.86E-03
 SMEAGOL DEBUG| Number of electrons in the unit cell =      1222.9611396486
    99 Broy./SMGL  0.30E+00    3.8     0.00014322     -3690.5483536171 -5.73E-03
 SMEAGOL DEBUG| Number of electrons in the unit cell =      1222.9611206710
   100 Broy./SMGL  0.30E+00    3.8     0.00013560     -3690.5547109247 -6.36E-03
 SMEAGOL DEBUG| Number of electrons in the unit cell =      1222.9610973487
   101 Broy./SMGL  0.30E+00    3.8     0.00013675     -3690.5589736284 -4.26E-03
 SMEAGOL DEBUG| Number of electrons in the unit cell =      1222.9610229798
   102 Broy./SMGL  0.30E+00    3.8     0.00011790     -3690.5621158831 -3.14E-03
 SMEAGOL DEBUG| Number of electrons in the unit cell =      1222.9609466394
   103 Broy./SMGL  0.30E+00    3.8     0.00002439     -3690.5641856403 -2.07E-03
 SMEAGOL DEBUG| Number of electrons in the unit cell =      1222.9607517182
   104 Broy./SMGL  0.30E+00    3.8     0.00047628     -3690.5665657749 -2.38E-03
 SMEAGOL DEBUG| Number of electrons in the unit cell =      1222.9607403177
   105 Broy./SMGL  0.30E+00    3.8     0.00031749     -3690.5698713307 -3.31E-03
 SMEAGOL DEBUG| Number of electrons in the unit cell =      1222.9607239974
   106 Broy./SMGL  0.30E+00    3.8     0.00025221     -3690.5698763295 -5.00E-06
 SMEAGOL DEBUG| Number of electrons in the unit cell =      1222.9607448357
   107 Broy./SMGL  0.30E+00    3.8     0.00055031     -3690.5667023404  3.17E-03
 SMEAGOL DEBUG| Number of electrons in the unit cell =      1222.9607657176
   108 Broy./SMGL  0.30E+00    3.8     0.00108981     -3690.5634149835  3.29E-03
 SMEAGOL DEBUG| Number of electrons in the unit cell =      1222.9608393266
   109 Broy./SMGL  0.30E+00    3.8     0.00334181     -3690.5323385702  3.11E-02
 SMEAGOL DEBUG| Number of electrons in the unit cell =      1222.9614329432
   110 Broy./SMGL  0.30E+00    3.8     0.01310663     -3690.3147923569  2.18E-01
 SMEAGOL DEBUG| Number of electrons in the unit cell =      1222.9656486811
   111 Broy./SMGL  0.30E+00    3.8     0.01756576     -3689.6249188773  6.90E-01
 SMEAGOL DEBUG| Number of electrons in the unit cell =      1222.9641069448
   112 Broy./SMGL  0.30E+00    3.8     0.00996803     -3689.0096341180  6.15E-01
 SMEAGOL DEBUG| Number of electrons in the unit cell =      1222.9696462487
   113 Broy./SMGL  0.30E+00    3.8     0.01926370     -3689.1477350385 -1.38E-01
 SMEAGOL DEBUG| Number of electrons in the unit cell =      1222.9619898938
   114 Broy./SMGL  0.30E+00    3.8     0.02125034     -3688.5670981169  5.81E-01
 SMEAGOL DEBUG| Number of electrons in the unit cell =      1222.9664771497
   115 Broy./SMGL  0.30E+00    3.8     0.01810428     -3689.2795792940 -7.12E-01
 SMEAGOL DEBUG| Number of electrons in the unit cell =      1222.9619727081
   116 Broy./SMGL  0.30E+00    3.8     0.04382984     -3688.8848595829  3.95E-01
 SMEAGOL DEBUG| Number of electrons in the unit cell =      1222.9606173883
   117 Broy./SMGL  0.30E+00    3.8     0.00828564     -3690.9170266400 -2.03E+00
 SMEAGOL DEBUG| Number of electrons in the unit cell =      1222.9642271174
   118 Broy./SMGL  0.30E+00    3.8     0.00056728     -3690.5024919412  4.15E-01
 SMEAGOL DEBUG| Number of electrons in the unit cell =      1222.9625850424
   119 Broy./SMGL  0.30E+00    3.8     0.00035034     -3690.4982344747  4.26E-03
 SMEAGOL DEBUG| Number of electrons in the unit cell =      1222.9623424231
   120 Broy./SMGL  0.30E+00    3.8     0.00047556     -3690.5169655846 -1.87E-02
 SMEAGOL DEBUG| Number of electrons in the unit cell =      1222.9619168580
   121 Broy./SMGL  0.30E+00    3.8     0.00023615     -3690.5363469919 -1.94E-02
 SMEAGOL DEBUG| Number of electrons in the unit cell =      1222.9618341843
   122 Broy./SMGL  0.30E+00    3.8     0.00026941     -3690.5465599689 -1.02E-02
 SMEAGOL DEBUG| Number of electrons in the unit cell =      1222.9612670487
   123 Broy./SMGL  0.30E+00    3.8     0.00026050     -3690.5617254425 -1.52E-02
 SMEAGOL DEBUG| Number of electrons in the unit cell =      1222.9609750468
   124 Broy./SMGL  0.30E+00    3.8     0.00033877     -3690.5660925515 -4.37E-03
 SMEAGOL DEBUG| Number of electrons in the unit cell =      1222.9609439701
   125 Broy./SMGL  0.30E+00    3.8     0.00026251     -3690.5687349795 -2.64E-03
 SMEAGOL DEBUG| Number of electrons in the unit cell =      1222.9607400161
   126 Broy./SMGL  0.30E+00    3.8     0.00067546     -3690.5716002038 -2.87E-03
 SMEAGOL DEBUG| Number of electrons in the unit cell =      1222.9608008215
   127 Broy./SMGL  0.30E+00    3.8     0.00040415     -3690.5666224819  4.98E-03
 SMEAGOL DEBUG| Number of electrons in the unit cell =      1222.9608029724
   128 Broy./SMGL  0.30E+00    3.8     0.00061577     -3690.5672861740 -6.64E-04
 SMEAGOL DEBUG| Number of electrons in the unit cell =      1222.9607200122
   129 Broy./SMGL  0.30E+00    4.9     0.00111361     -3690.5713171642 -4.03E-03
 SMEAGOL DEBUG| Number of electrons in the unit cell =      1222.9607582351
   130 Broy./SMGL  0.30E+00    3.8     0.00039318     -3690.5662506379  5.07E-03
 SMEAGOL DEBUG| Number of electrons in the unit cell =      1222.9607351658
   131 Broy./SMGL  0.30E+00    3.8     0.00003382     -3690.5692830397 -3.03E-03
 SMEAGOL DEBUG| Number of electrons in the unit cell =      1222.9608749127
   132 Broy./SMGL  0.30E+00    3.8     0.00127615     -3690.5636064729  5.68E-03
 SMEAGOL DEBUG| Number of electrons in the unit cell =      1222.9609252166
   133 Broy./SMGL  0.30E+00    3.8     0.00039689     -3690.5554707533  8.14E-03
 SMEAGOL DEBUG| Number of electrons in the unit cell =      1222.9609579099
   134 Broy./SMGL  0.30E+00    3.8     0.00013947     -3690.5383175971  1.72E-02
 SMEAGOL DEBUG| Number of electrons in the unit cell =      1222.9609465650
   135 Broy./SMGL  0.30E+00    3.8     0.00018378     -3690.5321287835  6.19E-03
 SMEAGOL DEBUG| Number of electrons in the unit cell =      1222.9609026569
   136 Broy./SMGL  0.30E+00    3.8     0.00030637     -3690.5451512273 -1.30E-02
 SMEAGOL DEBUG| Number of electrons in the unit cell =      1222.9608628185
   137 Broy./SMGL  0.30E+00    3.8     0.00047522     -3690.5597914143 -1.46E-02
 SMEAGOL DEBUG| Number of electrons in the unit cell =      1222.9608190083
   138 Broy./SMGL  0.30E+00    3.8     0.00046529     -3690.5684187538 -8.63E-03
 SMEAGOL DEBUG| Number of electrons in the unit cell =      1222.9607680376
   139 Broy./SMGL  0.30E+00    3.8     0.00029948     -3690.5703462180 -1.93E-03
 SMEAGOL DEBUG| Number of electrons in the unit cell =      1222.9607328908
   140 Broy./SMGL  0.30E+00    3.8     0.00058356     -3690.5703861467 -3.99E-05
 SMEAGOL DEBUG| Number of electrons in the unit cell =      1222.9607101985
   141 Broy./SMGL  0.30E+00    3.8     0.00058448     -3690.5672504833  3.14E-03
 SMEAGOL DEBUG| Number of electrons in the unit cell =      1222.9606993914
   142 Broy./SMGL  0.30E+00    3.8     0.00028478     -3690.5613473987  5.90E-03
 SMEAGOL DEBUG| Number of electrons in the unit cell =      1222.9606913719
   143 Broy./SMGL  0.30E+00    3.8     0.00017558     -3690.5581332986  3.21E-03
 SMEAGOL DEBUG| Number of electrons in the unit cell =      1222.9606774540
   144 Broy./SMGL  0.30E+00    3.8     0.00001867     -3690.5556171146  2.52E-03
 SMEAGOL DEBUG| Number of electrons in the unit cell =      1222.9606896530
   145 Broy./SMGL  0.30E+00    3.8     0.00091754     -3690.5538107426  1.81E-03
 SMEAGOL DEBUG| Number of electrons in the unit cell =      1222.9607077492
   146 Broy./SMGL  0.30E+00    3.8     0.00078428     -3690.5627998419 -8.99E-03
 SMEAGOL DEBUG| Number of electrons in the unit cell =      1222.9607534495
   147 Broy./SMGL  0.30E+00    3.8     0.00058078     -3690.5666461081 -3.85E-03
 SMEAGOL DEBUG| Number of electrons in the unit cell =      1222.9607572258
   148 Broy./SMGL  0.30E+00    3.8     0.00014254     -3690.5665612927  8.48E-05
 SMEAGOL DEBUG| Number of electrons in the unit cell =      1222.9607562017
   149 Broy./SMGL  0.30E+00    3.8     0.00000877     -3690.5657044676  8.57E-04
 SMEAGOL DEBUG| Number of electrons in the unit cell =      1222.9607569768
   150 Broy./SMGL  0.30E+00    3.8     0.00002186     -3690.5658668033 -1.62E-04
 SMEAGOL DEBUG| Number of electrons in the unit cell =      1222.9607308330
   151 Broy./SMGL  0.30E+00    3.8     0.00041799     -3690.5676520480 -1.79E-03
 SMEAGOL DEBUG| Number of electrons in the unit cell =      1222.9607130176
   152 Broy./SMGL  0.30E+00    3.8     0.00066979     -3690.5707791162 -3.13E-03
 SMEAGOL DEBUG| Number of electrons in the unit cell =      1222.9606869347
   153 Broy./SMGL  0.30E+00    3.8     0.00053642     -3690.5689175317  1.86E-03
 SMEAGOL DEBUG| Number of electrons in the unit cell =      1222.9606729719
   154 Broy./SMGL  0.30E+00    3.8     0.00072802     -3690.5652396862  3.68E-03
 SMEAGOL DEBUG| Number of electrons in the unit cell =      1222.9606581304
   155 Broy./SMGL  0.30E+00    3.8     0.00099930     -3690.5580428159  7.20E-03
 SMEAGOL DEBUG| Number of electrons in the unit cell =      1222.9606820984
   156 Broy./SMGL  0.30E+00    3.8     0.00003682     -3690.5431893136  1.49E-02
 SMEAGOL DEBUG| Number of electrons in the unit cell =      1222.9607720864
   157 Broy./SMGL  0.30E+00    3.8     0.00325084     -3690.5360791833  7.11E-03
 SMEAGOL DEBUG| Number of electrons in the unit cell =      1222.9607680250
   158 Broy./SMGL  0.30E+00    3.8     0.00044599     -3690.5650536646 -2.90E-02
 SMEAGOL DEBUG| Number of electrons in the unit cell =      1222.9607818227
   159 Broy./SMGL  0.30E+00    4.1     0.00043726     -3690.5553475350  9.71E-03
 SMEAGOL DEBUG| Number of electrons in the unit cell =      1222.9609051413
   160 Broy./SMGL  0.30E+00    3.8     0.00326587     -3690.5240217059  3.13E-02
 SMEAGOL DEBUG| Number of electrons in the unit cell =      1222.9603070233
   161 Broy./SMGL  0.30E+00    3.8     0.00417415     -3690.3765274076  1.47E-01
 SMEAGOL DEBUG| Number of electrons in the unit cell =      1222.9602050620
   162 Broy./SMGL  0.30E+00    3.8     0.00006434     -3690.2180502226  1.58E-01
 SMEAGOL DEBUG| Number of electrons in the unit cell =      1222.9602959027
   163 Broy./SMGL  0.30E+00    3.8     0.00378146     -3690.2243389777 -6.29E-03
 SMEAGOL DEBUG| Number of electrons in the unit cell =      1222.9610558107
   164 Broy./SMGL  0.30E+00    3.8     0.00193848     -3690.3722319150 -1.48E-01
 SMEAGOL DEBUG| Number of electrons in the unit cell =      1222.9608971273
   165 Broy./SMGL  0.30E+00    3.8     0.00194951     -3690.4597047094 -8.75E-02
 SMEAGOL DEBUG| Number of electrons in the unit cell =      1222.9612853512
   166 Broy./SMGL  0.30E+00    3.8     0.00036120     -3690.5551171711 -9.54E-02
 SMEAGOL DEBUG| Number of electrons in the unit cell =      1222.9610252948
   167 Broy./SMGL  0.30E+00    3.8     0.00013357     -3690.5660705943 -1.10E-02
 SMEAGOL DEBUG| Number of electrons in the unit cell =      1222.9609698814
   168 Broy./SMGL  0.30E+00    3.8     0.00023170     -3690.5673721959 -1.30E-03
 SMEAGOL DEBUG| Number of electrons in the unit cell =      1222.9608829924
   169 Broy./SMGL  0.30E+00    3.8     0.00039755     -3690.5695434517 -2.17E-03
 SMEAGOL DEBUG| Number of electrons in the unit cell =      1222.9607932219
   170 Broy./SMGL  0.30E+00    3.8     0.00039545     -3690.5705503256 -1.01E-03
 SMEAGOL DEBUG| Number of electrons in the unit cell =      1222.9607679606
   171 Broy./SMGL  0.30E+00    3.8     0.00023057     -3690.5687911707  1.76E-03
 SMEAGOL DEBUG| Number of electrons in the unit cell =      1222.9607825900
   172 Broy./SMGL  0.30E+00    3.8     0.00015568     -3690.5665604446  2.23E-03
 SMEAGOL DEBUG| Number of electrons in the unit cell =      1222.9607942107
   173 Broy./SMGL  0.30E+00    3.8     0.00024857     -3690.5671677253 -6.07E-04
 SMEAGOL DEBUG| Number of electrons in the unit cell =      1222.9608184607
   174 Broy./SMGL  0.30E+00    3.8     0.00049940     -3690.5671793053 -1.16E-05
 SMEAGOL DEBUG| Number of electrons in the unit cell =      1222.9608086581
   175 Broy./SMGL  0.30E+00    3.8     0.00026533     -3690.5694406476 -2.26E-03
 SMEAGOL DEBUG| Number of electrons in the unit cell =      1222.9607795325
   176 Broy./SMGL  0.30E+00    3.8     0.00119052     -3690.5720238966 -2.58E-03
 SMEAGOL DEBUG| Number of electrons in the unit cell =      1222.9607711643
   177 Broy./SMGL  0.30E+00    4.4     0.00168438     -3690.5653958592  6.63E-03
 SMEAGOL DEBUG| Number of electrons in the unit cell =      1222.9608518118
   178 Broy./SMGL  0.30E+00    3.8     0.00327436     -3690.5487055383  1.67E-02
 SMEAGOL DEBUG| Number of electrons in the unit cell =      1222.9607081709
   179 Broy./SMGL  0.30E+00    3.8     0.00056468     -3690.5121109997  3.66E-02
 SMEAGOL DEBUG| Number of electrons in the unit cell =      1222.9606146044
   180 Broy./SMGL  0.30E+00    3.8     0.00104415     -3690.5258736133 -1.38E-02
 SMEAGOL DEBUG| Number of electrons in the unit cell =      1222.9604693532
   181 Broy./SMGL  0.30E+00    3.8     0.00305691     -3690.5167106565  9.16E-03
 SMEAGOL DEBUG| Number of electrons in the unit cell =      1222.9602886406
   182 Broy./SMGL  0.30E+00    3.8     0.00264476     -3690.6099964524 -9.33E-02
 SMEAGOL DEBUG| Number of electrons in the unit cell =      1222.9607514943
   183 Broy./SMGL  0.30E+00    3.8     0.00394550     -3690.5159247926  9.41E-02
 SMEAGOL DEBUG| Number of electrons in the unit cell =      1222.9604575979
   184 Broy./SMGL  0.30E+00    3.8     0.00031165     -3690.5689869266 -5.31E-02
 SMEAGOL DEBUG| Number of electrons in the unit cell =      1222.9605069583
   185 Broy./SMGL  0.30E+00    3.9     0.00031902     -3690.5676164435  1.37E-03
 SMEAGOL DEBUG| Number of electrons in the unit cell =      1222.9605162240
   186 Broy./SMGL  0.30E+00    3.8     0.00019330     -3690.5672565553  3.60E-04
 SMEAGOL DEBUG| Number of electrons in the unit cell =      1222.9605355080
   187 Broy./SMGL  0.30E+00    3.8     0.00034265     -3690.5655367731  1.72E-03
 SMEAGOL DEBUG| Number of electrons in the unit cell =      1222.9605403228
[...]
     31       Au     1      11.000         10.999                         0.001
     32       Au     1      11.000         10.996                         0.004
     33       Au     1      11.000         11.000                         0.000
     34       Au     1      11.000         11.000                        -0.000
     35       Au     1      11.000         10.999                         0.001
     36       Au     1      11.000         10.993                         0.007
     37       Au     1      11.000         10.993                         0.007
     38       Au     1      11.000         10.996                         0.004
     39       Au     1      11.000         10.996                         0.004
     40       Au     1      11.000         10.993                         0.007
     41       Au     1      11.000         10.996                         0.004
     42       Au     1      11.000         10.996                         0.004
     43       Au     1      11.000         10.992                         0.008
     44       Au     1      11.000         10.993                         0.007
     45       Au     1      11.000         10.993                         0.007
     46       Au     1      11.000         11.033                        -0.033
     47       Au     1      11.000         11.011                        -0.011
     48       Au     1      11.000         11.033                        -0.033
     49       Au     1      11.000         11.011                        -0.011
     50       Au     1      11.000         10.974                         0.026
     51       Au     1      11.000         11.011                        -0.011
     52       Au     1      11.000         11.033                        -0.033
     53       Au     1      11.000         11.011                        -0.011
     54       Au     1      11.000         11.033                        -0.033
     55       Au     1      11.000         10.986                         0.014
     56       Au     1      11.000         10.986                         0.014
     57       Au     1      11.000         10.986                         0.014
     58       Au     1      11.000         10.985                         0.015
     59       Au     1      11.000         11.020                        -0.020
     60       Au     1      11.000         10.982                         0.018
     61       H      2       1.000          1.042                        -0.042
     62       H      2       1.000          1.051                        -0.051
     63       Au     1      11.000         10.988                         0.012
     64       Au     1      11.000         11.056                        -0.056
     65       Au     1      11.000         10.971                         0.029
     66       Au     1      11.000         10.971                         0.029
     67       Au     1      11.000         10.971                         0.029
     68       Au     1      11.000         10.971                         0.029
     69       Au     1      11.000         11.031                        -0.031
     70       Au     1      11.000         11.012                        -0.012
     71       Au     1      11.000         11.031                        -0.031
     72       Au     1      11.000         11.012                        -0.012
     73       Au     1      11.000         10.975                         0.025
     74       Au     1      11.000         11.012                        -0.012
     75       Au     1      11.000         11.031                        -0.031
     76       Au     1      11.000         11.012                        -0.012
     77       Au     1      11.000         11.031                        -0.031
     78       Au     1      11.000         10.979                         0.021
     79       Au     1      11.000         10.998                         0.002
     80       Au     1      11.000         11.000                        -0.000
     81       Au     1      11.000         11.000                         0.000
     82       Au     1      11.000         10.979                         0.021
     83       Au     1      11.000         10.998                         0.002
     84       Au     1      11.000         11.000                        -0.000
     85       Au     1      11.000         11.000                         0.000
     86       Au     1      11.000         10.982                         0.018
     87       Au     1      11.000         10.998                         0.002
     88       Au     1      11.000         11.000                         0.000
     89       Au     1      11.000         11.000                         0.000
     90       Au     1      11.000         10.982                         0.018
     91       Au     1      11.000         10.998                         0.002
     92       Au     1      11.000         11.000                         0.000
     93       Au     1      11.000         11.000                         0.000
     94       Au     1      11.000         10.982                         0.018
     95       Au     1      11.000         10.999                         0.001
     96       Au     1      11.000         11.000                         0.000
     97       Au     1      11.000         11.000                        -0.000
     98       Au     1      11.000         10.979                         0.021
     99       Au     1      11.000         10.998                         0.002
    100       Au     1      11.000         11.000                         0.000
    101       Au     1      11.000         11.000                        -0.000
    102       Au     1      11.000         10.982                         0.018
    103       Au     1      11.000         10.998                         0.002
    104       Au     1      11.000         11.000                        -0.000
    105       Au     1      11.000         11.000                         0.000
    106       Au     1      11.000         10.982                         0.018
    107       Au     1      11.000         10.998                         0.002
    108       Au     1      11.000         11.000                        -0.000
    109       Au     1      11.000         11.000                        -0.000
    110       Au     1      11.000         10.979                         0.021
    111       Au     1      11.000         10.998                         0.002
    112       Au     1      11.000         11.000                         0.000
    113       Au     1      11.000         11.000                        -0.000

  Total Charge                                                            0.040
 !-----------------------------------------------------------------------------!
 Calculating transmission coefficient
 SMEAGOL DEBUG| Number of electrons in the unit cell =      1222.9604588335

 ENERGY| Total FORCE_EVAL ( QS ) energy [a.u.]:            -3690.575180798243764

 MD_INI| MD initialization
 MD_INI| Potential energy [hartree]                          -0.369057518080E+04
 MD_INI| Kinetic energy [hartree]                             0.185258697582E-01
 MD_INI| Temperature [K]                                              300.000000
 MD_INI| Cell volume [bohr^3]                                 2.054457337448E+04
 MD_INI| Cell volume [ang^3]                                  3.044391637895E+03
 MD_INI| Cell lengths [bohr]      1.67564284E+01  1.67564284E+01  7.31701959E+01
 MD_INI| Cell lengths [ang]       8.86712000E+00  8.86712000E+00  3.87200000E+01
 MD_INI| Cell angles [deg]        9.00000000E+01  9.00000000E+01  9.00000000E+01

 -------------------------------------------------------------------------------
 -                                                                             -
 -                                DBCSR STATISTICS                             -
 -                                                                             -
 -------------------------------------------------------------------------------
 COUNTER                                    TOTAL       BLAS       SMM       ACC
 flops inhomo. stacks                           0       0.0%      0.0%      0.0%
 flops total                         0.000000E+00       0.0%      0.0%      0.0%
 flops max/rank                      0.000000E+00       0.0%      0.0%      0.0%
 matmuls inhomo. stacks                         0       0.0%      0.0%      0.0%
 matmuls total                                  0       0.0%      0.0%      0.0%
 number of processed stacks                     0       0.0%      0.0%      0.0%
 average stack size                                     0.0       0.0       0.0
 marketing flops                     0.000000E+00
 -------------------------------------------------------------------------------
 -                                                                             -
 -                      DBCSR MESSAGE PASSING PERFORMANCE                      -
 -                                                                             -
 -------------------------------------------------------------------------------
 ROUTINE             CALLS      AVE VOLUME [Bytes]
 MP_Bcast                1                     12.
 MP_Allreduce        17449                      8.
 MP_Alltoall          5705                 887693.
 -------------------------------------------------------------------------------

 -------------------------------------------------------------------------------
 -                                                                             -
 -                                DBM STATISTICS                               -
 -                                                                             -
 -------------------------------------------------------------------------------
    M  x    N  x    K                                          COUNT     PERCENT
 -------------------------------------------------------------------------------

 -------------------------------------------------------------------------------
 -                                                                             -
 -                                GRID STATISTICS                              -
 -                                                                             -
 -------------------------------------------------------------------------------
 LP    KERNEL             BACKEND                              COUNT     PERCENT
 4     collocate ortho    REF                               22931157      48.39%
 4     integrate ortho    REF                               22839656      48.20%
 0     collocate general  REF                                 585792       1.24%
 0     integrate general  REF                                 520704       1.10%
 3     collocate ortho    REF                                 147408       0.31%
 3     integrate ortho    REF                                 146927       0.31%
 5     integrate ortho    REF                                  92093       0.19%
 1     integrate general  REF                                  65088       0.14%
 2     collocate ortho    REF                                  27639       0.06%
 2     integrate ortho    REF                                  27528       0.06%
 -------------------------------------------------------------------------------

 MEMORY| Estimated peak process memory [MiB]                                 554

 -------------------------------------------------------------------------------
 ----                             MULTIGRID INFO                            ----
 -------------------------------------------------------------------------------
 count for grid        1:         734513          cutoff [a.u.]          300.00
 count for grid        2:         731373          cutoff [a.u.]          100.00
 count for grid        3:         451770          cutoff [a.u.]           33.33
 count for grid        4:         317860          cutoff [a.u.]           11.11
 total gridlevel count  :        2235516

 -------------------------------------------------------------------------------
 -                                                                             -
 -                         MESSAGE PASSING PERFORMANCE                         -
 -                                                                             -
 -------------------------------------------------------------------------------

 ROUTINE             CALLS      AVE VOLUME [Bytes]
 MP_Group                5
 MP_Bcast           144951                   5637.
 MP_Allreduce        12617                    501.
 MP_Sync              2992
 MP_Alltoall          7984
 MP_ISendRecv       572700                   4832.
 MP_Wait            648176
 MP_ISend           160518                  29230.
 MP_IRecv           160584                  29221.
 MP_Recv             14105                 258304.
 MP_Write_All            2                  34128.
 -------------------------------------------------------------------------------


 -------------------------------------------------------------------------------
 -                                                                             -
 -                           R E F E R E N C E S                               -
 -                                                                             -
 -------------------------------------------------------------------------------
 
 CP2K version 2022.1 (Development Version), the CP2K developers group (2022).
 CP2K is freely available from https://www.cp2k.org/ .

 Kuehne,Thomas D.; Iannuzzi,Marcella; Del Ben,Mauro;
 Rybkin,Vladimir V.; Seewald,Patrick; Stein,Frederick; Laino,Teodoro;
 Khaliullin,Rustam Z.; Schuett,Ole; Schiffmann,Florian; Golze,Dorothea;
 Wilhelm,Jan; Chulkov,Sergey; Bani-Hashemian,Mohammad Hossein;
 Weber,Valery; Borstnik,Urban; Taillefumier,Mathieu;
 Jakobovits,Alice Shoshana; Lazzaro,Alfio; Pabst,Hans; Mueller,Tiziano;
 Schade,Robert; Guidon,Manuel; Andermatt,Samuel; Holmberg,Nico;
 Schenter,Gregory K.; Hehn,Anna; Bussy,Augustin; Belleflamme,Fabian;
 Tabacchi,Gloria; Gloess,Andreas; Lass,Michael; Bethune,Iain;
 Mundy,Christopher J.; Plessl,Christian; Watkins,Matt;
 VandeVondele,Joost; Krack,Matthias; Hutter,Juerg. 
 The Journal of Chemical Physics, 152 (19), (2020). 
 CP2K: An electronic structure and molecular dynamics software package -
 Quickstep: Efficient and accurate electronic structure calculations.
 https://doi.org/10.1063/5.0007045

 Schuett, Ole; Messmer, Peter; Hutter, Juerg; VandeVondele, Joost. 
 Electronic Structure Calculations on Graphics Processing Units, John
 Wiley & Sons, Ltd, 173-190 (2016). 
 GPU-Accelerated Sparse Matrix-Matrix Multiplication for
 Linear Scaling Density Functional Theory.
 https://doi.org/10.1002/9781118670712.ch8

 Borstnik, U; VandeVondele, J; Weber, V; Hutter, J. 
 PARALLEL COMPUTING, 40 (5-6), 47-58 (2014). 
 Sparse matrix multiplication: The distributed block-compressed sparse
 row library.
 https://doi.org/10.1016/j.parco.2014.03.012

 Hutter, J; Iannuzzi, M; Schiffmann, F; VandeVondele, J. 
 WIREs Comput Mol Sci., 4 (1), 15-25 (2014). 
 CP2K: atomistic simulations of condensed matter systems.
 https://doi.org/10.1002/wcms.1159

 Marek, A; Blum, V; Johanni, R; Havu, V; Lang, B; Auckenthaler, T;
 Heinecke, A; Bungartz, H; Lederer, H. 
 Journal of Physics: Condensed Matter, 26 (21), (2014). 
 The ELPA library: scalable parallel eigenvalue solutions for
 electronic structure
 theory and computational science.
 https://doi.org/10.1088/0953-8984/26/21/213201

 VandeVondele, J; Hutter, J. 
 JOURNAL OF CHEMICAL PHYSICS, 127 (11), 114105 (2007). 
 Gaussian basis sets for accurate calculations on molecular systems in
 gas and condensed phases.
 https://doi.org/10.1063/1.2770708

 Krack, M. 
 THEORETICAL CHEMISTRY ACCOUNTS, 114 (1-3), 145-152 (2005). 
 Pseudopotentials for H to Kr optimized for gradient-corrected
 exchange-correlation functionals.
 https://doi.org/10.1007/s00214-005-0655-y

 VandeVondele, J; Krack, M; Mohamed, F; Parrinello, M; Chassaing, T;
 Hutter, J. COMPUTER PHYSICS COMMUNICATIONS, 167 (2), 103-128 (2005). 
 QUICKSTEP: Fast and accurate density functional calculations using a
 mixed Gaussian and plane waves approach.
 https://doi.org/10.1016/j.cpc.2004.12.014

 Frigo, M; Johnson, SG. 
 PROCEEDINGS OF THE IEEE, 93 (2), 216-231 (2005). 
 The design and implementation of FFTW3.
 https://doi.org/10.1109/JPROC.2004.840301

 Hartwigsen, C; Goedecker, S; Hutter, J. 
 PHYSICAL REVIEW B, 58 (7), 3641-3662 (1998). 
 Relativistic separable dual-space Gaussian pseudopotentials from H to Rn.
 https://doi.org/10.1103/PhysRevB.58.3641

 Lippert, G; Hutter, J; Parrinello, M. 
 MOLECULAR PHYSICS, 92 (3), 477-487 (1997). 
 A hybrid Gaussian and plane wave density functional scheme.
 https://doi.org/10.1080/002689797170220

 Perdew, JP; Burke, K; Ernzerhof, M. 
 PHYSICAL REVIEW LETTERS, 77 (18), 3865-3868 (1996). 
 Generalized gradient approximation made simple.
 https://doi.org/10.1103/PhysRevLett.77.3865

 Goedecker, S; Teter, M; Hutter, J. 
 PHYSICAL REVIEW B, 54 (3), 1703-1710 (1996). 
 Separable dual-space Gaussian pseudopotentials.
 https://doi.org/10.1103/PhysRevB.54.1703


 -------------------------------------------------------------------------------
 -                                                                             -
 -                                T I M I N G                                  -
 -                                                                             -
 -------------------------------------------------------------------------------
 SUBROUTINE                       CALLS  ASD         SELF TIME        TOTAL TIME
                                MAXIMUM       AVERAGE  MAXIMUM  AVERAGE  MAXIMUM
 CP2K                                 1  1.0    0.091    0.117 1052.202 1052.205
 qs_mol_dyn_low                       1  2.0    0.009    0.012 1051.695 1051.704
 qs_forces                            1  3.0    0.003    0.004 1051.673 1051.685
 qs_energies                          1  4.0    0.003    0.004 1051.446 1051.478
 scf_env_do_scf                       1  5.0    0.001    0.001  999.651  999.664
 scf_env_do_scf_inner_loop          248  6.0    0.025    3.730  999.650  999.663
 run_smeagol_emtrans                249  8.0  958.119  967.946  982.921  985.412
 qs_scf_new_mos_kp                  248  7.0    0.003    0.004  950.328  952.821
 rs_pw_transfer                    1996 11.5    0.028    0.036   26.227   28.056
 mp_waitall_1                    585180 13.5   19.476   24.055   19.476   24.055
 qs_rho_update_rho_low              249  7.0    0.002    0.002   23.389   23.398
 calculate_rho_elec                 249  8.0    0.031    0.037   23.388   23.397
 qs_ks_update_qs_env                248  7.0    0.003    0.005   22.001   22.035
 -------------------------------------------------------------------------------

 The number of warnings for this run is : 1
 
 -------------------------------------------------------------------------------
  **** **** ******  **  PROGRAM ENDED AT                 2023-11-16 13:53:39.308
 ***** ** ***  *** **   PROGRAM RAN ON                                 nid004465
 **    ****   ******    PROGRAM RAN BY                                    cahart
 ***** **    ** ** **   PROGRAM PROCESS ID                                248080
  **** **  *******  **  PROGRAM STOPPED IN /mnt/lustre/a2fs-work2/work/e05/e05/c
                                           ahart/postdoc/transport/cp2k-smeagol-
                                           examples/au-h2/cp2k-smeagol/transmiss
                                           ion_all/kpoints-3-3-20_omp-2_Parallel
                                           OverKNum-9_contour-single/kpoints-3-3
                                           -20_omp-2_ParallelOverKNum-9_contour-
                                           single_dynamic-14/1.7
