ATOMS
H             3.25353201      5.72009504     18.92650888            -0.00526256     -0.00490658     -0.70707017
H             3.25943360      5.72541268     19.67644731             0.00526256      0.00490658      0.70707017
