ATOMS
H             0.00000000      0.00000000     -0.00998254             0.00000099      0.33357965      0.62347784
H             0.00000000      0.00000000      0.73998166             0.00000099      0.33357965      0.62347784
