ATOMS
H             0.00000000      0.00000000     -0.00998254             0.00010944     -0.00001536     -0.70710677
H             0.00000000      0.00000000      0.73998166            -0.00010944      0.00001536      0.70710677
