ATOMS
H             0.00000000      0.00000000     -0.00998254            -0.00000070      0.62347784     -0.33357965
H             0.00000000      0.00000000      0.73998166            -0.00000070      0.62347784     -0.33357965
