ATOMS
H             0.00000000      0.00000000     -0.01093506            -0.00000763      0.11492201     -0.69770548
H             0.00000000      0.00000000      0.74094157            -0.00000763      0.11492201     -0.69770548
