ATOMS
H             0.00000000      0.00000000     -0.00998254            -0.00079180      0.70710634     -0.00002037
H             0.00000000      0.00000000      0.73998166             0.00079180     -0.70710634      0.00002037
