ATOMS
H             0.00000000      0.00000000     -0.00998254             0.00013397     -0.00002022     -0.70710677
H             0.00000000      0.00000000      0.73998166            -0.00013397      0.00002022      0.70710677
