 # Version information for this restart file 
 # current date 2024-02-29 19:14:26.349
 # current working dir /mnt/lustre/a2fs-work2/work/e05/e05/cahart/postdoc/transport/au-wire-ismael/jad/calculations/md/restart-auto-long_au-frozen/md_dft_long_LINEAR_P
 # Program compiled at                              Mon 30 Oct 16:32:24 GMT 2023
 # Program compiled on                                                      ln03
 # Program compiled for                                                    local
 # Source code revision number                                       git:215a478
 &GLOBAL
   PREFERRED_DIAG_LIBRARY  SCALAPACK
   EXTENDED_FFT_LENGTHS  T
   PRINT_LEVEL  MEDIUM
   PROJECT_NAME 2_dft_wfn
   RUN_TYPE  MD
   WALLTIME 47:50:00
 &END GLOBAL
 &MOTION
   &MD
     ENSEMBLE  NVT
     STEPS  100000
     TIMESTEP     4.9999999999999989E-01
     STEP_START_VAL  2500
     TIME_START_VAL     1.2499999999999488E+03
     ECONS_START_VAL    -9.5968579473403915E+03
     TEMPERATURE     3.0000000000000000E+02
     &THERMOSTAT
       TYPE  CSVR
       &CSVR
         TIMECON     9.9999999999999955E+02
         &THERMOSTAT_ENERGY
               7.7085908724847219E-02
         &END THERMOSTAT_ENERGY
         &RNG_INIT
Wiener process for Thermostat # 1        1 F T F  -3.7623406391295583E-01         220738464.0        1424008428.0        1399869185.0        1917770520.0         406843828.0        1477085453.0             12345.0             12345.0             12345.0             12345.0             12345.0             12345.0             12345.0             12345.0             12345.0             12345.0             12345.0             12345.0
         &END RNG_INIT
       &END CSVR
     &END THERMOSTAT
     &AVERAGES  T
       &RESTART_AVERAGES
         ITIMES_START  1
         AVECPU     2.9658822904997731E+02
         AVEHUGONIOT     0.0000000000000000E+00
         AVETEMP_BARO     0.0000000000000000E+00
         AVEPOT    -9.5976409967384807E+03
         AVEKIN     7.2727952805310603E-01
         AVETEMP     3.0079428539356968E+02
         AVEKIN_QM     0.0000000000000000E+00
         AVETEMP_QM     0.0000000000000000E+00
         AVEVOL     1.3694120778871360E+05
         AVECELL_A     3.3659423933732498E+01
         AVECELL_B     2.9149970462827817E+01
         AVECELL_C     1.3956912505130853E+02
         AVEALPHA     9.0000000000000000E+01
         AVEBETA     9.0000000000000000E+01
         AVEGAMMA     9.0000000000000000E+01
         AVE_ECONS    -3.8464853806465787E-01
         AVE_PRESS     0.0000000000000000E+00
         AVE_PXX     0.0000000000000000E+00
       &END RESTART_AVERAGES
     &END AVERAGES
   &END MD
   &CONSTRAINT
     &FIXED_ATOMS
       LIST  1..432 943..1338
     &END FIXED_ATOMS
   &END CONSTRAINT
   &PRINT
     &TRAJECTORY  ON
       UNIT angstrom
       FORMAT  XMOL
       PRINT_ATOM_KIND  T
       &EACH
         MD  1
       &END EACH
     &END TRAJECTORY
     &VELOCITIES  ON
       FORMAT  XMOL
       PRINT_ATOM_KIND  T
       &EACH
         MD  1
       &END EACH
     &END VELOCITIES
     &FORCES  SILENT
       FORMAT  XMOL
       PRINT_ATOM_KIND  T
       &EACH
         MD  1
       &END EACH
     &END FORCES
     &RESTART  ON
       &EACH
         MD  1
       &END EACH
     &END RESTART
   &END PRINT
 &END MOTION
 &FORCE_EVAL
   METHOD  QS
   &DFT
     BASIS_SET_FILE_NAME BASIS_MOLOPT
     BASIS_SET_FILE_NAME BASIS_MOLOPT_UCL
     BASIS_SET_FILE_NAME GTH_BASIS_SETS
     BASIS_SET_FILE_NAME BASIS_CUSTOM
     POTENTIAL_FILE_NAME GTH_POTENTIALS
     &SCF
       MAX_SCF  200
       EPS_SCF     9.9999999999999995E-08
       SCF_GUESS  RESTART
       ADDED_MOS  1000
       &SMEAR  T
         METHOD  FERMI_DIRAC
         ELECTRONIC_TEMPERATURE     3.0000000000000000E+02
       &END SMEAR
       &MIXING  T
         METHOD  BROYDEN_MIXING
         ALPHA     2.9999999999999999E-01
         NBUFFER  8
       &END MIXING
       &PRINT
         &RESTART  SILENT
           FILENAME 
         &END RESTART
       &END PRINT
     &END SCF
     &QS
       EXTRAPOLATION  LINEAR_P
     &END QS
     &MGRID
       NGRIDS  5
       CUTOFF     5.0000000000000000E+02
     &END MGRID
     &XC
       DENSITY_CUTOFF     1.0000000000000000E-10
       GRADIENT_CUTOFF     1.0000000000000000E-10
       TAU_CUTOFF     1.0000000000000000E-10
       &XC_FUNCTIONAL  NO_SHORTCUT
         &PBE  T
         &END PBE
       &END XC_FUNCTIONAL
       &VDW_POTENTIAL
         POTENTIAL_TYPE  PAIR_POTENTIAL
         &PAIR_POTENTIAL
           R_CUTOFF     8.0000000000000000E+00
           TYPE  DFTD3
           PARAMETER_FILE_NAME dftd3.dat
           REFERENCE_FUNCTIONAL PBE
           EPS_CN     1.0000000000000000E-02
           CALCULATE_C9_TERM  T
           REFERENCE_C9_TERM  T
           LONG_RANGE_CORRECTION  T
         &END PAIR_POTENTIAL
       &END VDW_POTENTIAL
     &END XC
     &POISSON
       POISSON_SOLVER  PERIODIC
       PERIODIC  XYZ
     &END POISSON
     &KPOINTS
       SCHEME MONKHORST-PACK 1 1 1
       SYMMETRY  F
       FULL_GRID  T
       VERBOSE  T
       EPS_GEO     1.0000000000000000E-08
       PARALLEL_GROUP_SIZE  0
     &END KPOINTS
     &PRINT
       &E_DENSITY_CUBE  ON
         STRIDE  1 1 1
         &EACH
           MD  20
         &END EACH
       &END E_DENSITY_CUBE
       &V_HARTREE_CUBE  SILENT
         STRIDE  1 1 1
         &EACH
           MD  20
         &END EACH
       &END V_HARTREE_CUBE
       &HIRSHFELD  SILENT
         FILENAME charges
         SHAPE_FUNCTION  DENSITY
       &END HIRSHFELD
     &END PRINT
   &END DFT
   &SUBSYS
     &CELL
       A     1.7811800000000002E+01    0.0000000000000000E+00    0.0000000000000000E+00
       B     0.0000000000000000E+00    1.5425500000000000E+01    0.0000000000000000E+00
       C     0.0000000000000000E+00    0.0000000000000000E+00    7.3856800000000007E+01
       PERIODIC  XYZ
       MULTIPLE_UNIT_CELL  1 1 1
     &END CELL
     &COORD
Au_lead    0.0000000000000000E+00    3.4279000000000002E+00    0.0000000000000000E+00
Au_lead    0.0000000000000000E+00    8.5696999999999992E+00    0.0000000000000000E+00
Au_lead    0.0000000000000000E+00    1.3711600000000001E+01    0.0000000000000000E+00
Au_lead    1.4843000000000000E+00    8.5700000000000076E-01    0.0000000000000000E+00
Au_lead    1.4843000000000000E+00    5.9988000000000001E+00    0.0000000000000000E+00
Au_lead    1.4843000000000000E+00    1.1140700000000004E+01    0.0000000000000000E+00
Au_lead    2.9685999999999999E+00    3.4279000000000002E+00    0.0000000000000000E+00
Au_lead    2.9685999999999999E+00    8.5696999999999992E+00    0.0000000000000000E+00
Au_lead    2.9685999999999999E+00    1.3711600000000001E+01    0.0000000000000000E+00
Au_lead    4.4530000000000003E+00    8.5700000000000076E-01    0.0000000000000000E+00
Au_lead    4.4530000000000003E+00    5.9988000000000001E+00    0.0000000000000000E+00
Au_lead    4.4530000000000003E+00    1.1140700000000004E+01    0.0000000000000000E+00
Au_lead    5.9373000000000014E+00    3.4279000000000002E+00    0.0000000000000000E+00
Au_lead    5.9373000000000014E+00    8.5696999999999992E+00    0.0000000000000000E+00
Au_lead    5.9373000000000014E+00    1.3711600000000001E+01    0.0000000000000000E+00
Au_lead    7.4216000000000060E+00    8.5700000000000076E-01    0.0000000000000000E+00
Au_lead    7.4216000000000060E+00    5.9988000000000001E+00    0.0000000000000000E+00
Au_lead    7.4216000000000060E+00    1.1140700000000004E+01    0.0000000000000000E+00
Au_lead    8.9059000000000008E+00    3.4279000000000002E+00    0.0000000000000000E+00
Au_lead    8.9059000000000008E+00    8.5696999999999992E+00    0.0000000000000000E+00
Au_lead    8.9059000000000008E+00    1.3711600000000001E+01    0.0000000000000000E+00
Au_lead    1.0390300000000000E+01    8.5700000000000076E-01    0.0000000000000000E+00
Au_lead    1.0390300000000000E+01    5.9988000000000001E+00    0.0000000000000000E+00
Au_lead    1.0390300000000000E+01    1.1140700000000004E+01    0.0000000000000000E+00
Au_lead    1.1874600000000003E+01    3.4279000000000002E+00    0.0000000000000000E+00
Au_lead    1.1874600000000003E+01    8.5696999999999992E+00    0.0000000000000000E+00
Au_lead    1.1874600000000003E+01    1.3711600000000001E+01    0.0000000000000000E+00
Au_lead    1.3358900000000007E+01    8.5700000000000076E-01    0.0000000000000000E+00
Au_lead    1.3358900000000007E+01    5.9988000000000001E+00    0.0000000000000000E+00
Au_lead    1.3358900000000007E+01    1.1140700000000004E+01    0.0000000000000000E+00
Au_lead    1.4843200000000012E+01    3.4279000000000002E+00    0.0000000000000000E+00
Au_lead    1.4843200000000012E+01    8.5696999999999992E+00    0.0000000000000000E+00
Au_lead    1.4843200000000012E+01    1.3711600000000001E+01    0.0000000000000000E+00
Au_lead    1.6327600000000000E+01    8.5700000000000076E-01    0.0000000000000000E+00
Au_lead    1.6327600000000000E+01    5.9988000000000001E+00    0.0000000000000000E+00
Au_lead    1.6327600000000000E+01    1.1140700000000004E+01    0.0000000000000000E+00
Au_lead    0.0000000000000000E+00    1.7140000000000015E+00    2.4239000000000002E+00
Au_lead    0.0000000000000000E+00    6.8558000000000003E+00    2.4239000000000002E+00
Au_lead    0.0000000000000000E+00    1.1997600000000000E+01    2.4239000000000002E+00
Au_lead    1.4843000000000000E+00    4.2849000000000004E+00    2.4239000000000002E+00
Au_lead    1.4843000000000000E+00    9.4267000000000003E+00    2.4239000000000002E+00
Au_lead    1.4843000000000000E+00    1.4568600000000012E+01    2.4239000000000002E+00
Au_lead    2.9685999999999999E+00    1.7140000000000015E+00    2.4239000000000002E+00
Au_lead    2.9685999999999999E+00    6.8558000000000003E+00    2.4239000000000002E+00
Au_lead    2.9685999999999999E+00    1.1997600000000000E+01    2.4239000000000002E+00
Au_lead    4.4530000000000003E+00    4.2849000000000004E+00    2.4239000000000002E+00
Au_lead    4.4530000000000003E+00    9.4267000000000003E+00    2.4239000000000002E+00
Au_lead    4.4530000000000003E+00    1.4568600000000012E+01    2.4239000000000002E+00
Au_lead    5.9373000000000014E+00    1.7140000000000015E+00    2.4239000000000002E+00
Au_lead    5.9373000000000014E+00    6.8558000000000003E+00    2.4239000000000002E+00
Au_lead    5.9373000000000014E+00    1.1997600000000000E+01    2.4239000000000002E+00
Au_lead    7.4216000000000060E+00    4.2849000000000004E+00    2.4239000000000002E+00
Au_lead    7.4216000000000060E+00    9.4267000000000003E+00    2.4239000000000002E+00
Au_lead    7.4216000000000060E+00    1.4568600000000012E+01    2.4239000000000002E+00
Au_lead    8.9059000000000008E+00    1.7140000000000015E+00    2.4239000000000002E+00
Au_lead    8.9059000000000008E+00    6.8558000000000003E+00    2.4239000000000002E+00
Au_lead    8.9059000000000008E+00    1.1997600000000000E+01    2.4239000000000002E+00
Au_lead    1.0390300000000000E+01    4.2849000000000004E+00    2.4239000000000002E+00
Au_lead    1.0390300000000000E+01    9.4267000000000003E+00    2.4239000000000002E+00
Au_lead    1.0390300000000000E+01    1.4568600000000012E+01    2.4239000000000002E+00
Au_lead    1.1874600000000003E+01    1.7140000000000015E+00    2.4239000000000002E+00
Au_lead    1.1874600000000003E+01    6.8558000000000003E+00    2.4239000000000002E+00
Au_lead    1.1874600000000003E+01    1.1997600000000000E+01    2.4239000000000002E+00
Au_lead    1.3358900000000007E+01    4.2849000000000004E+00    2.4239000000000002E+00
Au_lead    1.3358900000000007E+01    9.4267000000000003E+00    2.4239000000000002E+00
Au_lead    1.3358900000000007E+01    1.4568600000000012E+01    2.4239000000000002E+00
Au_lead    1.4843200000000012E+01    1.7140000000000015E+00    2.4239000000000002E+00
Au_lead    1.4843200000000012E+01    6.8558000000000003E+00    2.4239000000000002E+00
Au_lead    1.4843200000000012E+01    1.1997600000000000E+01    2.4239000000000002E+00
Au_lead    1.6327600000000000E+01    4.2849000000000004E+00    2.4239000000000002E+00
Au_lead    1.6327600000000000E+01    9.4267000000000003E+00    2.4239000000000002E+00
Au_lead    1.6327600000000000E+01    1.4568600000000012E+01    2.4239000000000002E+00
Au_lead    0.0000000000000000E+00    0.0000000000000000E+00    4.8478000000000003E+00
Au_lead    0.0000000000000000E+00    5.1418000000000008E+00    4.8478000000000003E+00
Au_lead    0.0000000000000000E+00    1.0283700000000009E+01    4.8478000000000003E+00
Au_lead    1.4843000000000000E+00    2.5709000000000004E+00    4.8478000000000003E+00
Au_lead    1.4843000000000000E+00    7.7128000000000041E+00    4.8478000000000003E+00
Au_lead    1.4843000000000000E+00    1.2854600000000000E+01    4.8478000000000003E+00
Au_lead    2.9685999999999999E+00    0.0000000000000000E+00    4.8478000000000003E+00
Au_lead    2.9685999999999999E+00    5.1418000000000008E+00    4.8478000000000003E+00
Au_lead    2.9685999999999999E+00    1.0283700000000009E+01    4.8478000000000003E+00
Au_lead    4.4530000000000003E+00    2.5709000000000004E+00    4.8478000000000003E+00
Au_lead    4.4530000000000003E+00    7.7128000000000041E+00    4.8478000000000003E+00
Au_lead    4.4530000000000003E+00    1.2854600000000000E+01    4.8478000000000003E+00
Au_lead    5.9373000000000014E+00    0.0000000000000000E+00    4.8478000000000003E+00
Au_lead    5.9373000000000014E+00    5.1418000000000008E+00    4.8478000000000003E+00
Au_lead    5.9373000000000014E+00    1.0283700000000009E+01    4.8478000000000003E+00
Au_lead    7.4216000000000060E+00    2.5709000000000004E+00    4.8478000000000003E+00
Au_lead    7.4216000000000060E+00    7.7128000000000041E+00    4.8478000000000003E+00
Au_lead    7.4216000000000060E+00    1.2854600000000000E+01    4.8478000000000003E+00
Au_lead    8.9059000000000008E+00    0.0000000000000000E+00    4.8478000000000003E+00
Au_lead    8.9059000000000008E+00    5.1418000000000008E+00    4.8478000000000003E+00
Au_lead    8.9059000000000008E+00    1.0283700000000009E+01    4.8478000000000003E+00
Au_lead    1.0390300000000000E+01    2.5709000000000004E+00    4.8478000000000003E+00
Au_lead    1.0390300000000000E+01    7.7128000000000041E+00    4.8478000000000003E+00
Au_lead    1.0390300000000000E+01    1.2854600000000000E+01    4.8478000000000003E+00
Au_lead    1.1874600000000003E+01    0.0000000000000000E+00    4.8478000000000003E+00
Au_lead    1.1874600000000003E+01    5.1418000000000008E+00    4.8478000000000003E+00
Au_lead    1.1874600000000003E+01    1.0283700000000009E+01    4.8478000000000003E+00
Au_lead    1.3358900000000007E+01    2.5709000000000004E+00    4.8478000000000003E+00
Au_lead    1.3358900000000007E+01    7.7128000000000041E+00    4.8478000000000003E+00
Au_lead    1.3358900000000007E+01    1.2854600000000000E+01    4.8478000000000003E+00
Au_lead    1.4843200000000012E+01    0.0000000000000000E+00    4.8478000000000003E+00
Au_lead    1.4843200000000012E+01    5.1418000000000008E+00    4.8478000000000003E+00
Au_lead    1.4843200000000012E+01    1.0283700000000009E+01    4.8478000000000003E+00
Au_lead    1.6327600000000000E+01    2.5709000000000004E+00    4.8478000000000003E+00
Au_lead    1.6327600000000000E+01    7.7128000000000041E+00    4.8478000000000003E+00
Au_lead    1.6327600000000000E+01    1.2854600000000000E+01    4.8478000000000003E+00
Au_lead    0.0000000000000000E+00    3.4279000000000002E+00    7.2717000000000018E+00
Au_lead    0.0000000000000000E+00    8.5696999999999992E+00    7.2717000000000018E+00
Au_lead    0.0000000000000000E+00    1.3711600000000001E+01    7.2717000000000018E+00
Au_lead    1.4843000000000000E+00    8.5700000000000076E-01    7.2717000000000018E+00
Au_lead    1.4843000000000000E+00    5.9988000000000001E+00    7.2717000000000018E+00
Au_lead    1.4843000000000000E+00    1.1140700000000004E+01    7.2717000000000018E+00
Au_lead    2.9685999999999999E+00    3.4279000000000002E+00    7.2717000000000018E+00
Au_lead    2.9685999999999999E+00    8.5696999999999992E+00    7.2717000000000018E+00
Au_lead    2.9685999999999999E+00    1.3711600000000001E+01    7.2717000000000018E+00
Au_lead    4.4530000000000003E+00    8.5700000000000076E-01    7.2717000000000018E+00
Au_lead    4.4530000000000003E+00    5.9988000000000001E+00    7.2717000000000018E+00
Au_lead    4.4530000000000003E+00    1.1140700000000004E+01    7.2717000000000018E+00
Au_lead    5.9373000000000014E+00    3.4279000000000002E+00    7.2717000000000018E+00
Au_lead    5.9373000000000014E+00    8.5696999999999992E+00    7.2717000000000018E+00
Au_lead    5.9373000000000014E+00    1.3711600000000001E+01    7.2717000000000018E+00
Au_lead    7.4216000000000060E+00    8.5700000000000076E-01    7.2717000000000018E+00
Au_lead    7.4216000000000060E+00    5.9988000000000001E+00    7.2717000000000018E+00
Au_lead    7.4216000000000060E+00    1.1140700000000004E+01    7.2717000000000018E+00
Au_lead    8.9059000000000008E+00    3.4279000000000002E+00    7.2717000000000018E+00
Au_lead    8.9059000000000008E+00    8.5696999999999992E+00    7.2717000000000018E+00
Au_lead    8.9059000000000008E+00    1.3711600000000001E+01    7.2717000000000018E+00
Au_lead    1.0390300000000000E+01    8.5700000000000076E-01    7.2717000000000018E+00
Au_lead    1.0390300000000000E+01    5.9988000000000001E+00    7.2717000000000018E+00
Au_lead    1.0390300000000000E+01    1.1140700000000004E+01    7.2717000000000018E+00
Au_lead    1.1874600000000003E+01    3.4279000000000002E+00    7.2717000000000018E+00
Au_lead    1.1874600000000003E+01    8.5696999999999992E+00    7.2717000000000018E+00
Au_lead    1.1874600000000003E+01    1.3711600000000001E+01    7.2717000000000018E+00
Au_lead    1.3358900000000007E+01    8.5700000000000076E-01    7.2717000000000018E+00
Au_lead    1.3358900000000007E+01    5.9988000000000001E+00    7.2717000000000018E+00
Au_lead    1.3358900000000007E+01    1.1140700000000004E+01    7.2717000000000018E+00
Au_lead    1.4843200000000012E+01    3.4279000000000002E+00    7.2717000000000018E+00
Au_lead    1.4843200000000012E+01    8.5696999999999992E+00    7.2717000000000018E+00
Au_lead    1.4843200000000012E+01    1.3711600000000001E+01    7.2717000000000018E+00
Au_lead    1.6327600000000000E+01    8.5700000000000076E-01    7.2717000000000018E+00
Au_lead    1.6327600000000000E+01    5.9988000000000001E+00    7.2717000000000018E+00
Au_lead    1.6327600000000000E+01    1.1140700000000004E+01    7.2717000000000018E+00
Au_lead    0.0000000000000000E+00    1.7140000000000015E+00    9.6956000000000007E+00
Au_lead    0.0000000000000000E+00    6.8558000000000003E+00    9.6956000000000007E+00
Au_lead    0.0000000000000000E+00    1.1997600000000000E+01    9.6956000000000007E+00
Au_lead    1.4843000000000000E+00    4.2849000000000004E+00    9.6956000000000007E+00
Au_lead    1.4843000000000000E+00    9.4267000000000003E+00    9.6956000000000007E+00
Au_lead    1.4843000000000000E+00    1.4568600000000012E+01    9.6956000000000007E+00
Au_lead    2.9685999999999999E+00    1.7140000000000015E+00    9.6956000000000007E+00
Au_lead    2.9685999999999999E+00    6.8558000000000003E+00    9.6956000000000007E+00
Au_lead    2.9685999999999999E+00    1.1997600000000000E+01    9.6956000000000007E+00
Au_lead    4.4530000000000003E+00    4.2849000000000004E+00    9.6956000000000007E+00
Au_lead    4.4530000000000003E+00    9.4267000000000003E+00    9.6956000000000007E+00
Au_lead    4.4530000000000003E+00    1.4568600000000012E+01    9.6956000000000007E+00
Au_lead    5.9373000000000014E+00    1.7140000000000015E+00    9.6956000000000007E+00
Au_lead    5.9373000000000014E+00    6.8558000000000003E+00    9.6956000000000007E+00
Au_lead    5.9373000000000014E+00    1.1997600000000000E+01    9.6956000000000007E+00
Au_lead    7.4216000000000060E+00    4.2849000000000004E+00    9.6956000000000007E+00
Au_lead    7.4216000000000060E+00    9.4267000000000003E+00    9.6956000000000007E+00
Au_lead    7.4216000000000060E+00    1.4568600000000012E+01    9.6956000000000007E+00
Au_lead    8.9059000000000008E+00    1.7140000000000015E+00    9.6956000000000007E+00
Au_lead    8.9059000000000008E+00    6.8558000000000003E+00    9.6956000000000007E+00
Au_lead    8.9059000000000008E+00    1.1997600000000000E+01    9.6956000000000007E+00
Au_lead    1.0390300000000000E+01    4.2849000000000004E+00    9.6956000000000007E+00
Au_lead    1.0390300000000000E+01    9.4267000000000003E+00    9.6956000000000007E+00
Au_lead    1.0390300000000000E+01    1.4568600000000012E+01    9.6956000000000007E+00
Au_lead    1.1874600000000003E+01    1.7140000000000015E+00    9.6956000000000007E+00
Au_lead    1.1874600000000003E+01    6.8558000000000003E+00    9.6956000000000007E+00
Au_lead    1.1874600000000003E+01    1.1997600000000000E+01    9.6956000000000007E+00
Au_lead    1.3358900000000007E+01    4.2849000000000004E+00    9.6956000000000007E+00
Au_lead    1.3358900000000007E+01    9.4267000000000003E+00    9.6956000000000007E+00
Au_lead    1.3358900000000007E+01    1.4568600000000012E+01    9.6956000000000007E+00
Au_lead    1.4843200000000012E+01    1.7140000000000015E+00    9.6956000000000007E+00
Au_lead    1.4843200000000012E+01    6.8558000000000003E+00    9.6956000000000007E+00
Au_lead    1.4843200000000012E+01    1.1997600000000000E+01    9.6956000000000007E+00
Au_lead    1.6327600000000000E+01    4.2849000000000004E+00    9.6956000000000007E+00
Au_lead    1.6327600000000000E+01    9.4267000000000003E+00    9.6956000000000007E+00
Au_lead    1.6327600000000000E+01    1.4568600000000012E+01    9.6956000000000007E+00
Au_lead    0.0000000000000000E+00    0.0000000000000000E+00    1.2119400000000001E+01
Au_lead    0.0000000000000000E+00    5.1418000000000008E+00    1.2119400000000001E+01
Au_lead    0.0000000000000000E+00    1.0283700000000009E+01    1.2119400000000001E+01
Au_lead    1.4843000000000000E+00    2.5709000000000004E+00    1.2119400000000001E+01
Au_lead    1.4843000000000000E+00    7.7128000000000041E+00    1.2119400000000001E+01
Au_lead    1.4843000000000000E+00    1.2854600000000000E+01    1.2119400000000001E+01
Au_lead    2.9685999999999999E+00    0.0000000000000000E+00    1.2119400000000001E+01
Au_lead    2.9685999999999999E+00    5.1418000000000008E+00    1.2119400000000001E+01
Au_lead    2.9685999999999999E+00    1.0283700000000009E+01    1.2119400000000001E+01
Au_lead    4.4530000000000003E+00    2.5709000000000004E+00    1.2119400000000001E+01
Au_lead    4.4530000000000003E+00    7.7128000000000041E+00    1.2119400000000001E+01
Au_lead    4.4530000000000003E+00    1.2854600000000000E+01    1.2119400000000001E+01
Au_lead    5.9373000000000014E+00    0.0000000000000000E+00    1.2119400000000001E+01
Au_lead    5.9373000000000014E+00    5.1418000000000008E+00    1.2119400000000001E+01
Au_lead    5.9373000000000014E+00    1.0283700000000009E+01    1.2119400000000001E+01
Au_lead    7.4216000000000060E+00    2.5709000000000004E+00    1.2119400000000001E+01
Au_lead    7.4216000000000060E+00    7.7128000000000041E+00    1.2119400000000001E+01
Au_lead    7.4216000000000060E+00    1.2854600000000000E+01    1.2119400000000001E+01
Au_lead    8.9059000000000008E+00    0.0000000000000000E+00    1.2119400000000001E+01
Au_lead    8.9059000000000008E+00    5.1418000000000008E+00    1.2119400000000001E+01
Au_lead    8.9059000000000008E+00    1.0283700000000009E+01    1.2119400000000001E+01
Au_lead    1.0390300000000000E+01    2.5709000000000004E+00    1.2119400000000001E+01
Au_lead    1.0390300000000000E+01    7.7128000000000041E+00    1.2119400000000001E+01
Au_lead    1.0390300000000000E+01    1.2854600000000000E+01    1.2119400000000001E+01
Au_lead    1.1874600000000003E+01    0.0000000000000000E+00    1.2119400000000001E+01
Au_lead    1.1874600000000003E+01    5.1418000000000008E+00    1.2119400000000001E+01
Au_lead    1.1874600000000003E+01    1.0283700000000009E+01    1.2119400000000001E+01
Au_lead    1.3358900000000007E+01    2.5709000000000004E+00    1.2119400000000001E+01
Au_lead    1.3358900000000007E+01    7.7128000000000041E+00    1.2119400000000001E+01
Au_lead    1.3358900000000007E+01    1.2854600000000000E+01    1.2119400000000001E+01
Au_lead    1.4843200000000012E+01    0.0000000000000000E+00    1.2119400000000001E+01
Au_lead    1.4843200000000012E+01    5.1418000000000008E+00    1.2119400000000001E+01
Au_lead    1.4843200000000012E+01    1.0283700000000009E+01    1.2119400000000001E+01
Au_lead    1.6327600000000000E+01    2.5709000000000004E+00    1.2119400000000001E+01
Au_lead    1.6327600000000000E+01    7.7128000000000041E+00    1.2119400000000001E+01
Au_lead    1.6327600000000000E+01    1.2854600000000000E+01    1.2119400000000001E+01
Au_screen    0.0000000000000000E+00    3.4279000000000002E+00    1.4543300000000000E+01
Au_screen    0.0000000000000000E+00    8.5696999999999992E+00    1.4543300000000000E+01
Au_screen    0.0000000000000000E+00    1.3711600000000001E+01    1.4543300000000000E+01
Au_screen    1.4843000000000000E+00    8.5700000000000076E-01    1.4543300000000000E+01
Au_screen    1.4843000000000000E+00    5.9988000000000001E+00    1.4543300000000000E+01
Au_screen    1.4843000000000000E+00    1.1140700000000004E+01    1.4543300000000000E+01
Au_screen    2.9685999999999999E+00    3.4279000000000002E+00    1.4543300000000000E+01
Au_screen    2.9685999999999999E+00    8.5696999999999992E+00    1.4543300000000000E+01
Au_screen    2.9685999999999999E+00    1.3711600000000001E+01    1.4543300000000000E+01
Au_screen    4.4530000000000003E+00    8.5700000000000076E-01    1.4543300000000000E+01
Au_screen    4.4530000000000003E+00    5.9988000000000001E+00    1.4543300000000000E+01
Au_screen    4.4530000000000003E+00    1.1140700000000004E+01    1.4543300000000000E+01
Au_screen    5.9373000000000014E+00    3.4279000000000002E+00    1.4543300000000000E+01
Au_screen    5.9373000000000014E+00    8.5696999999999992E+00    1.4543300000000000E+01
Au_screen    5.9373000000000014E+00    1.3711600000000001E+01    1.4543300000000000E+01
Au_screen    7.4216000000000060E+00    8.5700000000000076E-01    1.4543300000000000E+01
Au_screen    7.4216000000000060E+00    5.9988000000000001E+00    1.4543300000000000E+01
Au_screen    7.4216000000000060E+00    1.1140700000000004E+01    1.4543300000000000E+01
Au_screen    8.9059000000000008E+00    3.4279000000000002E+00    1.4543300000000000E+01
Au_screen    8.9059000000000008E+00    8.5696999999999992E+00    1.4543300000000000E+01
Au_screen    8.9059000000000008E+00    1.3711600000000001E+01    1.4543300000000000E+01
Au_screen    1.0390300000000000E+01    8.5700000000000076E-01    1.4543300000000000E+01
Au_screen    1.0390300000000000E+01    5.9988000000000001E+00    1.4543300000000000E+01
Au_screen    1.0390300000000000E+01    1.1140700000000004E+01    1.4543300000000000E+01
Au_screen    1.1874600000000003E+01    3.4279000000000002E+00    1.4543300000000000E+01
Au_screen    1.1874600000000003E+01    8.5696999999999992E+00    1.4543300000000000E+01
Au_screen    1.1874600000000003E+01    1.3711600000000001E+01    1.4543300000000000E+01
Au_screen    1.3358900000000007E+01    8.5700000000000076E-01    1.4543300000000000E+01
Au_screen    1.3358900000000007E+01    5.9988000000000001E+00    1.4543300000000000E+01
Au_screen    1.3358900000000007E+01    1.1140700000000004E+01    1.4543300000000000E+01
Au_screen    1.4843200000000012E+01    3.4279000000000002E+00    1.4543300000000000E+01
Au_screen    1.4843200000000012E+01    8.5696999999999992E+00    1.4543300000000000E+01
Au_screen    1.4843200000000012E+01    1.3711600000000001E+01    1.4543300000000000E+01
Au_screen    1.6327600000000000E+01    8.5700000000000076E-01    1.4543300000000000E+01
Au_screen    1.6327600000000000E+01    5.9988000000000001E+00    1.4543300000000000E+01
Au_screen    1.6327600000000000E+01    1.1140700000000004E+01    1.4543300000000000E+01
Au_screen    0.0000000000000000E+00    1.7140000000000015E+00    1.6967199999999998E+01
Au_screen    0.0000000000000000E+00    6.8558000000000003E+00    1.6967199999999998E+01
Au_screen    0.0000000000000000E+00    1.1997600000000000E+01    1.6967199999999998E+01
Au_screen    1.4843000000000000E+00    4.2849000000000004E+00    1.6967199999999998E+01
Au_screen    1.4843000000000000E+00    9.4267000000000003E+00    1.6967199999999998E+01
Au_screen    1.4843000000000000E+00    1.4568600000000012E+01    1.6967199999999998E+01
Au_screen    2.9685999999999999E+00    1.7140000000000015E+00    1.6967199999999998E+01
Au_screen    2.9685999999999999E+00    6.8558000000000003E+00    1.6967199999999998E+01
Au_screen    2.9685999999999999E+00    1.1997600000000000E+01    1.6967199999999998E+01
Au_screen    4.4530000000000003E+00    4.2849000000000004E+00    1.6967199999999998E+01
Au_screen    4.4530000000000003E+00    9.4267000000000003E+00    1.6967199999999998E+01
Au_screen    4.4530000000000003E+00    1.4568600000000012E+01    1.6967199999999998E+01
Au_screen    5.9373000000000014E+00    1.7140000000000015E+00    1.6967199999999998E+01
Au_screen    5.9373000000000014E+00    6.8558000000000003E+00    1.6967199999999998E+01
Au_screen    5.9373000000000014E+00    1.1997600000000000E+01    1.6967199999999998E+01
Au_screen    7.4216000000000060E+00    4.2849000000000004E+00    1.6967199999999998E+01
Au_screen    7.4216000000000060E+00    9.4267000000000003E+00    1.6967199999999998E+01
Au_screen    7.4216000000000060E+00    1.4568600000000012E+01    1.6967199999999998E+01
Au_screen    8.9059000000000008E+00    1.7140000000000015E+00    1.6967199999999998E+01
Au_screen    8.9059000000000008E+00    6.8558000000000003E+00    1.6967199999999998E+01
Au_screen    8.9059000000000008E+00    1.1997600000000000E+01    1.6967199999999998E+01
Au_screen    1.0390300000000000E+01    4.2849000000000004E+00    1.6967199999999998E+01
Au_screen    1.0390300000000000E+01    9.4267000000000003E+00    1.6967199999999998E+01
Au_screen    1.0390300000000000E+01    1.4568600000000012E+01    1.6967199999999998E+01
Au_screen    1.1874600000000003E+01    1.7140000000000015E+00    1.6967199999999998E+01
Au_screen    1.1874600000000003E+01    6.8558000000000003E+00    1.6967199999999998E+01