#     Step Nr.          Time[fs]        Kin.[a.u.]          Temp[K]            Pot.[a.u.]        Cons Qty[a.u.]        UsedTime[s]
      2001         1000.500000         0.718671971       297.234300532     -9597.621313345     -9596.860958852      1741.230559727
      2002         1001.000000         0.718435770       297.136610687     -9597.622486781     -9596.861072552       855.803041248
      2003         1001.500000         0.721512633       298.409165285     -9597.625261420     -9596.861241378       623.620894970
      2004         1002.000000         0.723546137       299.250198734     -9597.627225817     -9596.861322711       620.459166382
      2005         1002.500000         0.723855599       299.378188298     -9597.627112876     -9596.861259282       615.343120688
      2006         1003.000000         0.721661918       298.470907887     -9597.625672508     -9596.861125380       597.243152421
      2007         1003.500000         0.718948078       297.348495471     -9597.624710127     -9596.861066534       622.968167181
      2008         1004.000000         0.718718737       297.253642641     -9597.625115375     -9596.861136275       882.625753463
      2009         1004.500000         0.719101995       297.412153760     -9597.625779062     -9596.861305580       905.641478723
      2010         1005.000000         0.717212299       296.630597574     -9597.624232822     -9596.861429096       642.414464248
      2011         1005.500000         0.711054059       294.083621728     -9597.618780764     -9596.861421191       747.864517731
      2012         1006.000000         0.704056612       291.189559597     -9597.609959776     -9596.861247408       801.022736304
      2013         1006.500000         0.695560234       287.675557471     -9597.600560151     -9596.861021460       817.587127606
      2014         1007.000000         0.688944347       284.939304171     -9597.594047921     -9596.860882641       611.817710539
      2015         1007.500000         0.687592386       284.380148959     -9597.592696810     -9596.860867708       605.851617788
      2016         1008.000000         0.691845009       286.138983969     -9597.596787376     -9596.860959146       587.594709802
      2017         1008.500000         0.699452649       289.285414478     -9597.604947474     -9596.861083620       856.186932712
      2018         1009.000000         0.707741822       292.713719229     -9597.615054081     -9596.861238996       835.625611556
      2019         1009.500000         0.717593821       296.788390508     -9597.624561006     -9596.861408261       572.994922628
      2020         1010.000000         0.722301433       298.735403510     -9597.630832917     -9596.861528450       557.657329367
      2021         1010.500000         0.721292445       298.318098200     -9597.632156301     -9596.861512756       587.450973522
      2022         1011.000000         0.716680006       296.410447479     -9597.628939779     -9596.861339657       605.560943260
      2023         1011.500000         0.712778641       294.796888623     -9597.623918517     -9596.861090336       606.905124712
      2024         1012.000000         0.709555132       293.463682935     -9597.620961146     -9596.860882137       607.342713746
      2025         1012.500000         0.711610583       294.313793503     -9597.623238829     -9596.860832736       642.399704397
      2026         1013.000000         0.718029405       296.968543117     -9597.631619643     -9596.860941316       888.864778814
      2027         1013.500000         0.730280254       302.035350593     -9597.644399105     -9596.861160317       921.696821758
      2028         1014.000000         0.743945207       307.687014797     -9597.658039424     -9596.861417948       636.854313491
      2029         1014.500000         0.756087459       312.708907678     -9597.668380439     -9596.861632745       788.365556331
      2030         1015.000000         0.758642883       313.765801288     -9597.672012005     -9596.861746652       924.140486022
      2031         1015.500000         0.753025684       311.442593544     -9597.667304324     -9596.861722925       821.333445221
      2032         1016.000000         0.741917694       306.848459295     -9597.654892832     -9596.861554068       831.430713143
      2033         1016.500000         0.725596492       300.098201340     -9597.637615079     -9596.861253206       678.085223355
      2034         1017.000000         0.707714379       292.702369297     -9597.620269213     -9596.860910373       800.068481835
      2035         1017.500000         0.697485010       288.471622211     -9597.608290212     -9596.860647878       793.450427249
      2036         1018.000000         0.695616144       287.698680932     -9597.605738416     -9596.860596154       831.815275464
      2037         1018.500000         0.703067077       290.780299507     -9597.613173221     -9596.860830173       828.520793083
      2038         1019.000000         0.717868984       296.902194839     -9597.626784465     -9596.861259820       797.427667654
      2039         1019.500000         0.730686025       302.203172405     -9597.640016831     -9596.861634518       588.489772706
      2040         1020.000000         0.738490767       305.431122363     -9597.647073727     -9596.861768470       608.022241818
      2041         1020.500000         0.736773514       304.720886607     -9597.645755937     -9596.861626078       695.857085429
      2042         1021.000000         0.728730488       301.394385404     -9597.638072214     -9596.861341591       840.198349057
      2043         1021.500000         0.718769577       297.274669594     -9597.628490728     -9596.861034389       801.366060194
      2044         1022.000000         0.712987333       294.883201182     -9597.621678130     -9596.860845309       610.048268720
      2045         1022.500000         0.711518456       294.275690598     -9597.620728385     -9596.860795499       642.628106569
      2046         1023.000000         0.716625292       296.387818458     -9597.626639519     -9596.860845106       821.214597618
      2047         1023.500000         0.728496739       301.297709395     -9597.638541733     -9596.861014029       802.453168725
      2048         1024.000000         0.743082626       307.330261279     -9597.653755378     -9596.861276704       625.886731339
      2049         1024.500000         0.756401440       312.838766775     -9597.668120660     -9596.861571371       620.440598268
      2050         1025.000000         0.766615624       317.063233432     -9597.677026140     -9596.861791467       637.491851429
      2051         1025.500000         0.766007040       316.811530239     -9597.677105730     -9596.861841517       656.209868074
      2052         1026.000000         0.757468274       313.279996725     -9597.667835339     -9596.861671041       842.550385649
      2053         1026.500000         0.742034622       306.896819192     -9597.652095018     -9596.861315676       830.673911265
      2054         1027.000000         0.727024163       300.688669455     -9597.635490734     -9596.860922399       818.837543876
      2055         1027.500000         0.716234880       296.226348644     -9597.624395814     -9596.860646589       672.307795310
      2056         1028.000000         0.713514633       295.101286052     -9597.623069891     -9596.860646817       622.777123484
      2057         1028.500000         0.722640969       298.875831831     -9597.631274488     -9596.860958574       612.238629378
      2058         1029.000000         0.735791212       304.314618204     -9597.644236155     -9596.861384789       743.273894061
      2059         1029.500000         0.746601084       308.785454586     -9597.655340016     -9596.861734892       871.562005943
      2060         1030.000000         0.751327338       310.740177486     -9597.659333584     -9596.861818134       597.299666470
      2061         1030.500000         0.747079061       308.983139881     -9597.654727493     -9596.861636622       873.055665249
      2062         1031.000000         0.737891721       305.183363854     -9597.644188741     -9596.861289419       921.118763393
      2063         1031.500000         0.726529998       300.484288642     -9597.632957182     -9596.860949408       626.686183784
      2064         1032.000000         0.721427570       298.373984153     -9597.626206648     -9596.860764848       847.495625696
      2065         1032.500000         0.724095972       299.477604033     -9597.626851012     -9596.860768492       845.264218684
      2066         1033.000000         0.730363833       302.069917874     -9597.634899492     -9596.860932893       616.125851374
      2067         1033.500000         0.743101863       307.338217623     -9597.647785547     -9596.861213375       616.732740400
      2068         1034.000000         0.757128405       313.139430937     -9597.661048688     -9596.861539924       639.736501007
      2069         1034.500000         0.764920688       316.362227897     -9597.669674605     -9596.861745150       635.175489532
      2070         1035.000000         0.765299072       316.518723176     -9597.670382967     -9596.861750219       624.873008354
      2071         1035.500000         0.757045109       313.104980641     -9597.663004988     -9596.861566094       791.521723619
      2072         1036.000000         0.744660212       307.982732358     -9597.650438552     -9596.861283797       872.537316073
      2073         1036.500000         0.732553212       302.975419323     -9597.637226266     -9596.860995861       691.559234450
      2074         1037.000000         0.723060317       299.049268987     -9597.628049895     -9596.860756139       709.010621465
      2075         1037.500000         0.721744961       298.505253211     -9597.626622254     -9596.860656590       797.629279406
      2076         1038.000000         0.728221968       301.184067478     -9597.634319808     -9596.860807932       886.889924274
      2077         1038.500000         0.741244661       306.570100577     -9597.648851738     -9596.861172039       629.079184158
      2078         1039.000000         0.756592956       312.917975411     -9597.664666176     -9596.861599075       601.063376457
      2079         1039.500000         0.767569109       317.457583696     -9597.675328300     -9596.861878275       633.282629010
      2080         1040.000000         0.767626139       317.481170713     -9597.676725707     -9596.861850733       840.665135250
      2081         1040.500000         0.760249617       314.430327529     -9597.669419536     -9596.861529100       898.199171167
      2082         1041.000000         0.750496716       310.396642243     -9597.658444015     -9596.861071404       828.243962404
      2083         1041.500000         0.742525415       307.099805542     -9597.650632493     -9596.860758318       605.216785452
      2084         1042.000000         0.742405035       307.050017631     -9597.650804470     -9596.860715887       653.958348605
      2085         1042.500000         0.750133478       310.246411123     -9597.659714947     -9596.860923934       604.950200333
      2086         1043.000000         0.764592523       316.226502712     -9597.674283107     -9596.861251565       807.734544818
      2087         1043.500000         0.780283513       322.716111961     -9597.689355371     -9596.861562161       838.639409205
      2088         1044.000000         0.791521736       327.364109525     -9597.699871008     -9596.861755841       836.134952024
      2089         1044.500000         0.793486921       328.176886981     -9597.702517865     -9596.861785676       811.330912578
      2090         1045.000000         0.787994403       325.905245981     -9597.696629522     -9596.861655811       822.254296960
      2091         1045.500000         0.775868925       320.890290147     -9597.684069252     -9596.861430222       995.010727675
      2092         1046.000000         0.759277175       314.028137150     -9597.668455567     -9596.861160027       859.394791248
      2093         1046.500000         0.746722188       308.835541595     -9597.654029176     -9596.860944496       856.135650049
      2094         1047.000000         0.737144262       304.874223894     -9597.644228673     -9596.860830642      1042.381283800
      2095         1047.500000         0.735557656       304.218022161     -9597.640885414     -9596.860836976       827.628702108
      2096         1048.000000         0.737851324       305.166656159     -9597.643962918     -9596.860962794       654.366022793
      2097         1048.500000         0.745606026       308.373909924     -9597.651522158     -9596.861228689       641.610066428
      2098         1049.000000         0.752912369       311.395727697     -9597.659686535     -9596.861548795       624.045096292
      2099         1049.500000         0.756399982       312.838163686     -9597.663662003     -9596.861785431       877.991616892
      2100         1050.000000         0.754597006       312.092474117     -9597.659958155     -9596.861790210       859.121939469
      2101         1050.500000         0.744374755       307.864670681     -9597.648768634     -9596.861520707       873.724428798
      2102         1051.000000         0.730318837       302.051307949     -9597.634581883     -9596.861114020       712.753288488
      2103         1051.500000         0.719495051       297.574716779     -9597.623709969     -9596.860842884       622.249350656
      2104         1052.000000         0.717230386       296.638078246     -9597.620510192     -9596.860830064       815.140241365
      2105         1052.500000         0.720222212       297.875462042     -9597.625210968     -9596.861052178       804.729296595
      2106         1053.000000         0.728095628       301.131814755     -9597.634399690     -9596.861341053       878.824077509
      2107         1053.500000         0.737042266       304.832039445     -9597.643593189     -9596.861535854       993.298459877
      2108         1054.000000         0.743459824       307.486266264     -9597.649476560     -9596.861612703       613.824084743
      2109         1054.500000         0.744539465       307.932792757     -9597.650500110     -9596.861604669       620.549393240
      2110         1055.000000         0.739848896       305.992828486     -9597.646794841     -9596.861504199       883.972572733
      2111         1055.500000         0.733176249       303.233099872     -9597.639940040     -9596.861326639       885.651019055
      2112         1056.000000         0.725524144       300.068279270     -9597.632498812     -9596.861152355       852.575508393
      2113         1056.500000         0.720138424       297.840808569     -9597.626859391     -9596.861081150       835.485647507
      2114         1057.000000         0.717847331       296.893239155     -9597.624077346     -9596.861091510       622.586576902
      2115         1057.500000         0.716953748       296.523663732     -9597.624061629     -9596.861127312       626.249111063
      2116         1058.000000         0.718966204       297.355992059     -9597.626332597     -9596.861165658       638.538797214
      2117         1058.500000         0.722140284       298.668754290     -9597.630129365     -9596.861288845       885.793996063
      2118         1059.000000         0.726183622       300.341031403     -9597.633723152     -9596.861449629       891.537384259
      2119         1059.500000         0.727253131       300.783367970     -9597.635005903     -9596.861501899       628.300238744
      2120         1060.000000         0.725842686       300.200024306     -9597.633350363     -9596.861381990       631.268394570
      2121         1060.500000         0.725265197       299.961181533     -9597.630463993     -9596.861215912       622.289013740
      2122         1061.000000         0.723316501       299.155223938     -9597.628818722     -9596.861147402       626.192285883
      2123         1061.500000         0.723345752       299.167321663     -9597.629660801     -9596.861193951       739.259644554
      2124         1062.000000         0.725743281       300.158911608     -9597.632605698     -9596.861259552       863.009446005
      2125         1062.500000         0.730766046       302.236268252     -9597.636668905     -9596.861297464       604.587487950
      2126         1063.000000         0.734219944       303.664759973     -9597.641158794     -9596.861319300       855.786233142
      2127         1063.500000         0.738717527       305.524907548     -9597.645596885     -9596.861372070       607.967706763
      2128         1064.000000         0.742812037       307.218349079     -9597.649091876     -9596.861457627       622.309184640
      2129         1064.500000         0.743400689       307.461808712     -9597.650421469     -9596.861484147       635.040356286
      2130         1065.000000         0.740588560       306.298745113     -9597.649249502     -9596.861402448       863.895070870
      2131         1065.500000         0.738632891       305.489903305     -9597.646921290     -9596.861248284       835.528912930
      2132         1066.000000         0.738019096       305.236044969     -9597.645571671     -9596.861187869       839.045462521
      2133         1066.500000         0.739042822       305.659445856     -9597.646107088     -9596.861266115       832.364152822
      2134         1067.000000         0.739340687       305.782639505     -9597.647494845     -9596.861392977       896.060330175
      2135         1067.500000         0.740388335       306.215934081     -9597.647874259     -9596.861468456       871.793058971
      2136         1068.000000         0.739398100       305.806384813     -9597.646114620     -9596.861437458       904.265308362
      2137         1068.500000         0.736510827       304.612242388     -9597.642659469     -9596.861337609       639.125924871
      2138         1069.000000         0.734457718       303.763100540     -9597.639101556     -9596.861216831       827.546998848
      2139         1069.500000         0.732696238       303.034573128     -9597.637330399     -9596.861126818       777.427535245
      2140         1070.000000         0.734152549       303.636886219     -9597.638729690     -9596.861126048       825.881830176
      2141         1070.500000         0.739086261       305.677411613     -9597.643177477     -9596.861255738       835.615794559
      2142         1071.000000         0.744605694       307.960184401     -9597.648535497     -9596.861467872       621.787891768
      2143         1071.500000         0.747438605       309.131843204     -9597.651748185     -9596.861569393       644.056177048
      2144         1072.000000         0.745850548       308.475041678     -9597.651124315     -9596.861509024       609.606693542
      2145         1072.500000         0.741712401       306.763552296     -9597.647364922     -9596.861352131       605.653158439
      2146         1073.000000         0.736619048       304.657001508     -9597.642714104     -9596.861229181       627.417614309
      2147         1073.500000         0.733260503       303.267946432     -9597.639102483     -9596.861182038       599.869573975
      2148         1074.000000         0.732805672       303.079833608     -9597.637402141     -9596.861166790       588.670233392
      2149         1074.500000         0.733534694       303.381348699     -9597.637880479     -9596.861165530       597.554888826
      2150         1075.000000         0.735698547       304.276292923     -9597.640570554     -9596.861199011       796.735611980
      2151         1075.500000         0.740526179       306.272944943     -9597.644973878     -9596.861294562       938.127001319
      2152         1076.000000         0.745069666       308.152077691     -9597.649727579     -9596.861412492       609.433844439
      2153         1076.500000         0.748895084       309.734225850     -9597.653165560     -9596.861504480       739.330059721
      2154         1077.000000         0.749726818       310.078221216     -9597.654135864     -9596.861513487       831.911895631
      2155         1077.500000         0.748183067       309.439743932     -9597.652594279     -9596.861471751       856.734716198
      2156         1078.000000         0.744234222       307.806547841     -9597.649440522     -9596.861415208       814.593147305
      2157         1078.500000         0.739287456       305.760623596     -9597.645967233     -9596.861352945       637.828051741
      2158         1079.000000         0.736491119       304.604091233     -9597.643337436     -9596.861328777       885.348562691
      2159         1079.500000         0.735487912       304.189176665     -9597.642070313     -9596.861352465       903.919481236
      2160         1080.000000         0.736052985       304.422884316     -9597.641779054     -9596.861429472       613.419768141
      2161         1080.500000         0.735716730       304.283813080     -9597.641245410     -9596.861488389       610.064626840
      2162         1081.000000         0.733382361       303.318345467     -9597.639384373     -9596.861474153       845.930769390
      2163         1081.500000         0.730743916       302.227115479     -9597.636257789     -9596.861372053       843.121756679
      2164         1082.000000         0.728896421       301.463013166     -9597.633161958     -9596.861261199       609.545188000
      2165         1082.500000         0.727815466       301.015943218     -9597.631487811     -9596.861225092       611.204664011
      2166         1083.000000         0.727673431       300.957199183     -9597.631586611     -9596.861255414       607.298276566
      2167         1083.500000         0.727458887       300.868466273     -9597.632870675     -9596.861283175       852.959191142
      2168         1084.000000         0.730186024       301.996378243     -9597.634851808     -9596.861247922       857.655430298
      2169         1084.500000         0.732354609       302.893279304     -9597.637779589     -9596.861213564       650.201190291
      2170         1085.000000         0.736356530       304.548427108     -9597.642042340     -9596.861234806       620.139131749
      2171         1085.500000         0.742078712       306.915054247     -9597.647337061     -9596.861320503       617.817515523
      2172         1086.000000         0.745961207       308.520808610     -9597.652488224     -9596.861405977       607.850873434
      2173         1086.500000         0.750752680       310.502505876     -9597.656310044     -9596.861443811       608.634246204
      2174         1087.000000         0.752096375       311.058242165     -9597.658442385     -9596.861394246       820.933544434
      2175         1087.500000         0.754190352       311.924286442     -9597.659714164     -9596.861337915       816.699816370
      2176         1088.000000         0.755406059       312.427088921     -9597.661407039     -9596.861313269       823.213846193
      2177         1088.500000         0.756985302       313.080245191     -9597.664337752     -9596.861334058       846.056490703
      2178         1089.000000         0.761804687       315.073486461     -9597.668461873     -9596.861385969       871.399384037
      2179         1089.500000         0.765132501       316.449831046     -9597.673277343     -9596.861435770       972.784967567
      2180         1090.000000         0.768780494       317.958598477     -9597.678090050     -9596.861521328       608.058549123
      2181         1090.500000         0.773078917       319.736375707     -9597.681616811     -9596.861611149       591.107576182
      2182         1091.000000         0.772512884       319.502271016     -9597.682293905     -9596.861668338       607.960703646
      2183         1091.500000         0.771219825       318.967476863     -9597.678993830     -9596.861659320       617.800905007
      2184         1092.000000         0.764684218       316.264426380     -9597.671662339     -9596.861581892       630.557092882
      2185         1092.500000         0.755228399       312.353610867     -9597.661612726     -9596.861398776       605.864633042
      2186         1093.000000         0.745507082       308.332988135     -9597.651692236     -9596.861146422       618.854522145
      2187         1093.500000         0.739090724       305.679257687     -9597.645539564     -9596.860968809       624.154520254
      2188         1094.000000         0.737474855       305.010952904     -9597.645498479     -9596.861036644       624.449234133
      2189         1094.500000         0.742334147       307.020699377     -9597.650642409     -9596.861293607       619.185747121
      2190         1095.000000         0.748522200       309.580005580     -9597.657250013     -9596.861571747       625.486615802
      2191         1095.500000         0.752610075       311.270702612     -9597.661361578     -9596.861693781       622.716125683
      2192         1096.000000         0.752656396       311.289860632     -9597.661364034     -9596.861626065       606.056758960
      2193         1096.500000         0.749628466       310.037544186     -9597.658363046     -9596.861475991       610.142549649
      2194         1097.000000         0.747624786       309.208845341     -9597.654745430     -9596.861359271       609.759184690
      2195         1097.500000         0.745374458       308.278136257     -9597.652400261     -9596.861346020       782.986305001
      2196         1098.000000         0.745887720       308.490415292     -9597.651740646     -9596.861416124       882.085536563
      2197         1098.500000         0.746588461       308.780233548     -9597.651880648     -9596.861500911       993.901236829
      2198         1099.000000         0.746510735       308.748087013     -9597.651731673     -9596.861503424       996.559764367
      2199         1099.500000         0.745791080       308.450446345     -9597.651371952     -9596.861413482       901.673767908
      2200         1100.000000         0.747096131       308.990200206     -9597.652065883     -9596.861372269       656.801781214
      2201         1100.500000         0.746546816       308.763009715     -9597.654458855     -9596.861432067       865.258145863
      2202         1101.000000         0.750092487       310.229457739     -9597.657444537     -9596.861559166       820.346490399
      2203         1101.500000         0.752059860       311.043140256     -9597.658929781     -9596.861631716       620.663844669
      2204         1102.000000         0.750586132       310.433623648     -9597.657528196     -9596.861602064       607.077583061
      2205         1102.500000         0.746890797       308.905276278     -9597.653489125     -9596.861486691       621.572791872
      2206         1103.000000         0.741713834       306.764144933     -9597.648507241     -9596.861352393       625.477923882
      2207         1103.500000         0.737985539       305.222166105     -9597.644416738     -9596.861318611       874.839078853
      2208         1104.000000         0.734277301       303.688482182     -9597.641785171     -9596.861380506      1111.071799170
      2209         1104.500000         0.733510590       303.371379377     -9597.639999723     -9596.861421342       694.008211670
      2210         1105.000000         0.731089175       302.369910623     -9597.638727303     -9596.861363336       843.413211219
      2211         1105.500000         0.730068376       301.947720005     -9597.638912129     -9596.861281540       852.863488766
      2212         1106.000000         0.734267890       303.684590055     -9597.641898916     -9596.861265812       836.291050780
      2213         1106.500000         0.740286787       306.173935244     -9597.647902502     -9596.861366773       948.442399052
      2214         1107.000000         0.747651633       309.219949017     -9597.655342796     -9596.861542033       623.540610525
      2215         1107.500000         0.753144109       311.491572686     -9597.661530324     -9596.861712951       775.517093867
      2216         1108.000000         0.754703078       312.136344040     -9597.663935796     -9596.861783746       702.919009699
      2217         1108.500000         0.752012492       311.023549395     -9597.661679208     -9596.861670620       796.320667917
      2218         1109.000000         0.747919750       309.330839226     -9597.656611531     -9596.861381658       837.524065790
      2219         1109.500000         0.745359168       308.271812565     -9597.652935034     -9596.861144537       677.179486734
      2220         1110.000000         0.747025388       308.960941662     -9597.654118294     -9596.861175968       609.568147928
      2221         1110.500000         0.752440469       311.200555732     -9597.659662640     -9596.861469911       606.867516355
      2222         1111.000000         0.757751931       313.397314115     -9597.665317340     -9596.861744127       880.276935913
      2223         1111.500000         0.758616432       313.754861546     -9597.666903415     -9596.861794014       991.565315999
      2224         1112.000000         0.754858529       312.200637003     -9597.663534919     -9596.861612439       739.030912394
      2225         1112.500000         0.747826765       309.292381784     -9597.657759295     -9596.861397962       627.315828918
      2226         1113.000000         0.742112293       306.928943142     -9597.652848921     -9596.861336755       644.793189178
      2227         1113.500000         0.739259349       305.748998809     -9597.650060282     -9596.861409882       814.257186958
      2228         1114.000000         0.737989247       305.223699737     -9597.648695726     -9596.861462540       910.534275056