SIESTA 1.3.7  -- [1.3f1 release] (04 Feb 2004)
Architecture  : 
Compiler flags:  -O3
PARALLEL version

* Running on    4 nodes in parallel
>> Start of run:   7-NOV-2013  16:03:22

                           ***********************       
                           *  WELCOME TO SIESTA  *       
                           ***********************       

reinit: Reading from standard input
************************** Dump of input data file ****************************
#
SystemName                   mol            # Descriptive name of the system
SystemLabel                  mol            # Short name for naming files
NumberOfSpecies              1             # Number of species
NumberOfAtoms                2           # Number of atoms
%block ChemicalSpeciesLabel
 1    1   H
%endblock ChemicalSpeciesLabel
# ps
%block Ps.lmax
  H     3
%endblock Ps.lmax
# Basis
PAO.BasisType                split         # Type of basis ('nones', 'nonodes', 'split')
PAO.SplitNorm  0.15
%block PAO.Basis                           # basis
H     2      0.00
 n=1    0    2   E      2.07      0.50
   5.75  1.5
   1.000   1.000
 n=2    1    1   E      0.89      0.01
   5.500
   1.000
%endblock PAO.Basis
# lattice vectors
LatticeConstant              1.0 Ang
%block LatticeVectors
         8.86712000        0.00000000        0.00000000
         0.00000        8.86712000        0.00000000
         0.00000000        0.00000000       38.72
%endblock LatticeVectors
# coordinates
AtomicCoordinatesFormat      Ang
%block AtomicCoordinatesAndAtomicSpecies
    3.25353201    5.72009504   18.92650888   1  H         61
    3.26037283    5.72625871   19.79615533   1  H         62
%endblock AtomicCoordinatesAndAtomicSpecies
# constrains in relaxation
%block GeometryConstraints
   position 1
%endblock GeometryConstraints
# real space mesh grid
MeshCutoff                   800.0 Ry
%block GridCellSampling
  0.5  0.5   0.0
  0.5  0.0   0.5
  0.0  0.5   0.5
%endblock GridCellSampling
# reciprocal space
%block kgrid_Monkhorst_Pack
  1   0   0    0.0
  0   1   0    0.0
  0   0   1    0.0
%endblock kgrid_Monkhorst_Pack
#ProcessorY                   4
#BlockSize                    100
%block ExternalElectricField
   0.000 0.000 2.0 V/Ang
%endblock ExternalElectricField
# functional
xc.functional                GGA           # 'LDA', 'GGA'
xc.authors                   PBE           # 'CA'='PZ', 'PW92', 'PBE'
# scf
MaxSCFIterations             300
DM.MixingWeight              0.02
DM.Tolerance                 1.0E-4
DM.UseSaveDM                 T
DM.NumberPulay               6             # Pulay convergency accelerator
SolutionMethod               diagon
ElectronicTemperature        300 K         # Default value
# MD options
MD.TypeOfRun                 cg            # Type of dynamics:
MD.VariableCell              false         # if vary cell
MD.NumCGsteps                300             # Number of CG steps for relaxation
MD.MaxCGDispl                0.08 Ang     # Maximum atomic displacement at one step
MD.MaxForceTol               0.01 eV/Ang   # Tolerance in the maximum force min(fx, fy, fz)
MD.MaxStressTol              0.1 Gpa
MD.FCDispl                 0.02 ang
MD.FCIR                    T
MD.FCEigenVectors          T
MD.FCRead                  F
MD.FCAtomRestart           46
MD.FCAxisRestart           1
#Siesta Output Flags
SaveHS                       F           # Hamiltonian and overlap in sparse
SaveRHO                      T
WriteMullikenPop             1
WriteForces                  T
WriteCoorStep                T
SaveElectrostaticPotential   T             # Hartree Potential file
************************** End of input data file *****************************

reinit: -----------------------------------------------------------------------
reinit: System Name: mol                                                        
reinit: -----------------------------------------------------------------------
reinit: System Label: mol                 
reinit: -----------------------------------------------------------------------

initatom: Reading input for the pseudopotentials and atomic orbitals ----------
 Species number:            1  Label: H Atomic number:           1
Ground state valence configuration:   1s01
Reading pseudopotential information in formatted form from H.psf
relmxkb: Read Max KB Ang. Momentum=    3 for species H

<basis_specs>
===============================================================================
H                    Z=   1    Mass=  1.0100        Charge=  0.0000    
Lmxo=1 Lmxkb=3     BasisType=split      Semic=F
L=0  Nsemic=0  Cnfigmx=1
          n=1  nzeta=2  polorb=0
               vcte:    2.0700    
               rinn:   0.50000    
                rcs:    5.7500      1.5000    
            lambdas:    1.0000      1.0000    
L=1  Nsemic=0  Cnfigmx=2
          n=1  nzeta=1  polorb=0
               vcte:   0.89000    
               rinn:   0.10000E-01
                rcs:    5.5000    
            lambdas:    1.0000    
-------------------------------------------------------------------------------
L=0  Nkbl=1  erefs: 0.17977+309
L=1  Nkbl=1  erefs: 0.17977+309
L=2  Nkbl=1  erefs: 0.17977+309
L=3  Nkbl=1  erefs: 0.17977+309
===============================================================================
</basis_specs>

atom: Called for H   (Z =   1)

read_vps: Pseudopotential generation method:
read_vps: ATM3      Troullier-Martins                       

read_vps: Valence configuration (pseudopotential and basis set generation):
1s( 1.00) rc: 1.89
2p( 0.00) rc: 1.80
3d( 0.00) rc: 1.49
4f( 0.00) rc: 1.49
read_vps: Spin-orbit interaction is not included in this calculation
Total valence charge:    1.00000

xc_check: Exchange-correlation functional:
xc_check: GGA Perdew, Burke & Ernzerhof 1996
V l=0 = -2*Zval/r beyond r=  1.8658
V l=1 = -2*Zval/r beyond r=  1.7970
V l=2 = -2*Zval/r beyond r=  1.8196
V l=3 = -2*Zval/r beyond r=  1.8196
All V_l potentials equal beyond r=  1.8658
This should be close to max(r_c) in ps generation
All pots = -2*Zval/r beyond r=  1.8658

VLOCAL1: 99.0% of the norm of Vloc inside     12.470 Ry
VLOCAL1: 99.9% of the norm of Vloc inside     28.418 Ry
atom: Maximum radius for 4*pi*r*r*local-pseudopot. charge    2.16811
atom: Maximum radius for r*vlocal+2*Zval:    1.84256
GHOST: No ghost state for L =  0
GHOST: No ghost state for L =  1
GHOST: No ghost state for L =  2
GHOST: No ghost state for L =  3

KBgen: Kleinman-Bylander projectors: 
   l= 0   rc=  2.011274   el= -0.477200   Ekb= -1.572097   kbcos= -0.493163
   l= 1   rc=  2.141150   el=  0.001076   Ekb= -0.356432   kbcos= -0.050277
   l= 2   rc=  2.195416   el=  0.002010   Ekb= -0.177656   kbcos= -0.007774
   l= 3   rc=  2.251056   el=  0.003122   Ekb= -0.068270   kbcos= -0.002268

KBgen: Total number of  Kleinman-Bylander projectors:   16
atom: -------------------------------------------------------------------------

atom: SANKEY-TYPE ORBITALS:
atom: Selected multiple-zeta basis: split     

SPLIT: Orbitals with angular momentum L= 0

SPLIT: Basis orbitals for state 1s

   izeta = 1
                 lambda =    1.000000
                     rc =    5.752124
                 energy =   -0.469599
                kinetic =    0.919264
    potential(screened) =   -1.388863
       potential(ionic) =   -1.911599

   izeta = 2
                 rmatch =    1.527112
              splitnorm =    0.807394
                 energy =    2.126033
                kinetic =    5.261681
    potential(screened) =   -3.135649
       potential(ionic) =   -3.696632

SPLIT: Orbitals with angular momentum L= 1

SPLIT: Basis orbitals for state 2p

   izeta = 1
                 lambda =    1.000000
                     rc =    5.471469
                 energy =    0.371359
                kinetic =    0.737398
    potential(screened) =   -0.366040
       potential(ionic) =   -0.791603
atom: Total number of Sankey-type orbitals:  5

atm_pop: Valence configuration(local Pseudopot. screening):
 1s( 1.00)                                                            
 2p( 0.00)                                                            
Vna: chval, zval:    1.00000   1.00000

Vna:  Cut-off radius for the neutral-atom potential:   5.752124

atom: _________________________________________________________________________

prinput: Basis input ----------------------------------------------------------

PAO.BasisType split     

%block ChemicalSpeciesLabel
    1    1 H                       # Species index, atomic number, species label
%endblock ChemicalSpeciesLabel

%block PAO.Basis                 # Define Basis set
H           2                    # Species label, number of l-shells
 n=1   0   2                         # n, l, Nzeta 
   5.752      1.527   
   1.000      1.000   
 n=2   1   1                         # n, l, Nzeta 
   5.471   
   1.000   
%endblock PAO.Basis

prinput: ----------------------------------------------------------------------


siesta: ******************** Simulation parameters ****************************
siesta:
siesta: The following are some of the parameters of the simulation.
siesta: A complete list of the parameters used, including defect values,
siesta: can be found in file out.fdf
siesta:
coor:   Atomic-coordinates input format  =     Cartesian coordinates
coor:                                          (in Angstroms)
redata: Number of spin components        =     1
redata: SpinOrbit                        =     0
redata: Long output                      =     F
redata: Number of Atomic Species         =     1
redata: Charge density info will appear in .RHO file
redata: Write Mulliken Pop.              =     Atomic and Orbital charges
redata: Mesh Cutoff                      =   800.0000  Ry
redata: Net charge of the system         =     0.0000 |e|
redata: Max. number of SCF Iter          =   300
redata: One Pulay mixing every           =     6 iterations
redata: Mix DM in first SCF step ?       =     F
redata: Write Pulay info on disk?        =     F
redata: New DM Mixing Weight             =     0.0200
redata: No kicks to SCF
redata: DM Mixing Weight for Kicks       =     0.5000
redata: DM Tolerance for SCF             =     0.000100
redata: Use continuation files for DM    =     T
redata: Neglect nonoverlap interactions  =     F
redata: Method of Calculation            =     Diagonalization
redata: Divide and Conquer               =     F
redata: Electronic Temperature           =     0.0019  Ry
redata: Fix the spin of the system       =     F
redata: Dynamics option                  =     CG coord. optimization
redata: Variable cell                    =     F
redata: Use continuation files for CG    =     F
redata: Maximum number of CG moves       =   300
redata: Max atomic displ per move        =     0.1512  Bohr
redata: Force tolerance                  =     0.0004  Ry/Bohr
redata: ***********************************************************************

siesta: Atomic coordinates (Bohr) and species
siesta:      6.14829  10.80942  35.76593  1        1
siesta:      6.16121  10.82106  37.40933  1        2

initatomlists: Number of atoms, orbitals, and projectors:      2    10    32

siesta: System type = molecule  
 Nodes, Orbitals           4          10
 blocksizedefault           2

* ProcessorY, Blocksize:    2   2

 Using EM.ParallelOverKNum =           1
 label:           1 H                              1 s      
 label:           2 H                              1 s      
 label:           3 H                              1 py     
 label:           4 H                              1 pz     
 label:           5 H                              1 px     
 label:           6 H                              2 s      
 label:           7 H                              2 s      
 label:           8 H                              2 py     
 label:           9 H                              2 pz     
 label:          10 H                              2 px     
 
* Maximum dynamic memory allocated =     1 MB

siesta:                 ==============================
                            Begin CG move =      0
                        ==============================

outcoor: Atomic coordinates (Ang):                          
    3.25353201    5.72009504   18.92650888   1  H          1
    3.26037283    5.72625871   19.79615533   1  H          2

read_ldau The LDA+U method used is from Czyzky PRB 49 14211

iodm: Reading Density Matrix from files

mol.DM                           

InitMesh: MESH =   160 x   160 x   720 =    18432000
InitMesh: Mesh cutoff (required, used) =   800.000   899.863 Ry

efield: External electric field =    0.000000    0.000000    0.077787 Ry/Bohr/e
 
* Maximum dynamic memory allocated =   250 MB

stepf: Fermi-Dirac step function

siesta: Program's energy decomposition (eV):
siesta: Eions   =        26.074526
siesta: Ena     =         3.171840
siesta: Ekin    =        25.720229
siesta: Enl     =       -15.696974
siesta: DEna    =        -1.256626
siesta: DUscf   =         0.228313
siesta: DUext   =        -0.000001
siesta: Exc     =       -17.178282
siesta: eta*DQ  =         0.000000
siesta: Emadel  =         0.000000
siesta: Eharris =       -31.418697
siesta: Eso     =         0.000000
siesta: Etot    =       -31.086028
siesta: FreeEng =       -31.086028

siesta: iscf   Eharris(eV)      E_KS(eV)   FreeEng(eV)     dDmax   Ef(eV)
siesta:    1      -31.4187      -31.0860      -31.0860   0.20899  -4.3364
timer: Routine,Calls,Time,% = IterSCF        1      39.232  87.67
siesta:    2      -31.3712      -31.2457      -31.2457   0.20109  -4.6295
siesta:    3      -31.3198      -31.2120      -31.2120   0.02304  -4.4845
siesta:    4      -31.3198      -31.2127      -31.2127   0.02284  -4.4852
siesta:    5      -31.3188      -31.2467      -31.2467   0.01570  -4.5243
siesta:    6      -31.3188      -31.2481      -31.2481   0.01562  -4.5260
siesta:    7      -31.3187      -31.2495      -31.2495   0.01554  -4.5277
siesta:    8      -31.3187      -31.2509      -31.2509   0.01545  -4.5294
siesta:    9      -31.3186      -31.2523      -31.2523   0.01535  -4.5310
siesta:   10      -31.3186      -31.2536      -31.2536   0.01525  -4.5326
siesta:   11      -31.3186      -31.2549      -31.2549   0.01514  -4.5341
siesta:   12      -31.3185      -31.2562      -31.2562   0.01503  -4.5357
siesta:   13      -31.3185      -31.2574      -31.2574   0.01491  -4.5371
siesta:   14      -31.3185      -31.2586      -31.2586   0.01479  -4.5386
siesta:   15      -31.3184      -31.2598      -31.2598   0.01467  -4.5400
siesta:   16      -31.3184      -31.2610      -31.2610   0.01454  -4.5414
siesta:   17      -31.3184      -31.2622      -31.2622   0.01441  -4.5428
siesta:   18      -31.3184      -31.2633      -31.2633   0.01427  -4.5441
siesta:   19      -31.3183      -31.2644      -31.2644   0.01413  -4.5454
siesta:   20      -31.3183      -31.2655      -31.2655   0.01399  -4.5467
siesta:   21      -31.3183      -31.2665      -31.2665   0.01385  -4.5479
siesta:   22      -31.3183      -31.2676      -31.2676   0.01370  -4.5491
siesta:   23      -31.3183      -31.2686      -31.2686   0.01355  -4.5503
siesta:   24      -31.3182      -31.2696      -31.2696   0.01340  -4.5515
siesta:   25      -31.3182      -31.2705      -31.2705   0.01325  -4.5526
siesta:   26      -31.3182      -31.2715      -31.2715   0.01310  -4.5538
siesta:   27      -31.3182      -31.2724      -31.2724   0.01295  -4.5549
siesta:   28      -31.3182      -31.2733      -31.2733   0.01279  -4.5559
siesta:   29      -31.3182      -31.2742      -31.2742   0.01264  -4.5570
siesta:   30      -31.3182      -31.2751      -31.2751   0.01248  -4.5580
siesta:   31      -31.3182      -31.2760      -31.2760   0.01233  -4.5590
siesta:   32      -31.3181      -31.2768      -31.2768   0.01217  -4.5600
siesta:   33      -31.3181      -31.2776      -31.2776   0.01201  -4.5609
siesta:   34      -31.3181      -31.2785      -31.2785   0.01186  -4.5619
siesta:   35      -31.3181      -31.2793      -31.2793   0.01170  -4.5628
siesta:   36      -31.3181      -31.2800      -31.2800   0.01154  -4.5637
siesta:   37      -31.3181      -31.2808      -31.2808   0.01139  -4.5646
siesta:   38      -31.3181      -31.2815      -31.2815   0.01123  -4.5654
siesta:   39      -31.3181      -31.2823      -31.2823   0.01107  -4.5663
siesta:   40      -31.3181      -31.2830      -31.2830   0.01092  -4.5671
siesta:   41      -31.3181      -31.2837      -31.2837   0.01077  -4.5679
siesta:   42      -31.3181      -31.2844      -31.2844   0.01061  -4.5687
siesta:   43      -31.3181      -31.2850      -31.2850   0.01046  -4.5694
siesta:   44      -31.3181      -31.2857      -31.2857   0.01031  -4.5702
siesta:   45      -31.3181      -31.2864      -31.2864   0.01016  -4.5709
siesta:   46      -31.3181      -31.2870      -31.2870   0.01000  -4.5716
siesta:   47      -31.3181      -31.2876      -31.2876   0.00986  -4.5724
siesta:   48      -31.3180      -31.2882      -31.2882   0.00971  -4.5730
siesta:   49      -31.3180      -31.2888      -31.2888   0.00956  -4.5737
siesta:   50      -31.3180      -31.2894      -31.2894   0.00941  -4.5744
siesta:   51      -31.3180      -31.2900      -31.2900   0.00927  -4.5750
siesta:   52      -31.3180      -31.2905      -31.2905   0.00913  -4.5757
siesta:   53      -31.3180      -31.2911      -31.2911   0.00898  -4.5763
siesta:   54      -31.3180      -31.2916      -31.2916   0.00884  -4.5769
siesta:   55      -31.3180      -31.2922      -31.2922   0.00870  -4.5775
siesta:   56      -31.3180      -31.2927      -31.2927   0.00857  -4.5780
siesta:   57      -31.3180      -31.2932      -31.2932   0.00843  -4.5786
siesta:   58      -31.3180      -31.2937      -31.2937   0.00829  -4.5792
siesta:   59      -31.3180      -31.2942      -31.2942   0.00816  -4.5797
siesta:   60      -31.3180      -31.2946      -31.2946   0.00803  -4.5802
siesta:   61      -31.3180      -31.2951      -31.2951   0.00790  -4.5808
siesta:   62      -31.3180      -31.2956      -31.2956   0.00777  -4.5813
siesta:   63      -31.3180      -31.2960      -31.2960   0.00764  -4.5818
siesta:   64      -31.3180      -31.2965      -31.2965   0.00751  -4.5823
siesta:   65      -31.3180      -31.2969      -31.2969   0.00739  -4.5827
siesta:   66      -31.3180      -31.2973      -31.2973   0.00726  -4.5832
siesta:   67      -31.3180      -31.2977      -31.2977   0.00714  -4.5836
siesta:   68      -31.3180      -31.2981      -31.2981   0.00702  -4.5841
siesta:   69      -31.3180      -31.2985      -31.2985   0.00690  -4.5845
siesta:   70      -31.3180      -31.2989      -31.2989   0.00678  -4.5850
siesta:   71      -31.3180      -31.2993      -31.2993   0.00667  -4.5854
siesta:   72      -31.3180      -31.2997      -31.2997   0.00655  -4.5858
siesta:   73      -31.3180      -31.3000      -31.3000   0.00644  -4.5862
siesta:   74      -31.3180      -31.3004      -31.3004   0.00633  -4.5866
siesta:   75      -31.3180      -31.3007      -31.3007   0.00622  -4.5870
siesta:   76      -31.3180      -31.3011      -31.3011   0.00611  -4.5873
siesta:   77      -31.3180      -31.3014      -31.3014   0.00601  -4.5877
siesta:   78      -31.3180      -31.3018      -31.3018   0.00590  -4.5881
siesta:   79      -31.3180      -31.3021      -31.3021   0.00580  -4.5884
siesta:   80      -31.3180      -31.3024      -31.3024   0.00569  -4.5887
siesta:   81      -31.3180      -31.3027      -31.3027   0.00559  -4.5891
siesta:   82      -31.3180      -31.3030      -31.3030   0.00549  -4.5894
siesta:   83      -31.3180      -31.3033      -31.3033   0.00540  -4.5897
siesta:   84      -31.3180      -31.3036      -31.3036   0.00530  -4.5900
siesta:   85      -31.3180      -31.3039      -31.3039   0.00521  -4.5903
siesta:   86      -31.3180      -31.3042      -31.3042   0.00511  -4.5906
siesta:   87      -31.3180      -31.3045      -31.3045   0.00502  -4.5909
siesta:   88      -31.3180      -31.3047      -31.3047   0.00493  -4.5912
siesta:   89      -31.3180      -31.3050      -31.3050   0.00484  -4.5915
siesta:   90      -31.3180      -31.3053      -31.3053   0.00475  -4.5918
siesta:   91      -31.3180      -31.3055      -31.3055   0.00467  -4.5921
siesta:   92      -31.3180      -31.3058      -31.3058   0.00458  -4.5923
siesta:   93      -31.3180      -31.3060      -31.3060   0.00450  -4.5926
siesta:   94      -31.3180      -31.3062      -31.3062   0.00442  -4.5928
siesta:   95      -31.3180      -31.3065      -31.3065   0.00433  -4.5931
siesta:   96      -31.3180      -31.3067      -31.3067   0.00425  -4.5933
siesta:   97      -31.3180      -31.3069      -31.3069   0.00418  -4.5936
siesta:   98      -31.3180      -31.3072      -31.3072   0.00410  -4.5938
siesta:   99      -31.3180      -31.3074      -31.3074   0.00402  -4.5940
siesta:  100      -31.3180      -31.3076      -31.3076   0.00395  -4.5942
siesta:  101      -31.3180      -31.3078      -31.3078   0.00388  -4.5944
siesta:  102      -31.3180      -31.3080      -31.3080   0.00380  -4.5947
siesta:  103      -31.3180      -31.3082      -31.3082   0.00373  -4.5949
siesta:  104      -31.3180      -31.3084      -31.3084   0.00366  -4.5951
siesta:  105      -31.3180      -31.3086      -31.3086   0.00359  -4.5953
siesta:  106      -31.3180      -31.3088      -31.3088   0.00353  -4.5955
siesta:  107      -31.3180      -31.3090      -31.3090   0.00346  -4.5957
siesta:  108      -31.3180      -31.3091      -31.3091   0.00340  -4.5958
siesta:  109      -31.3180      -31.3093      -31.3093   0.00333  -4.5960
siesta:  110      -31.3180      -31.3095      -31.3095   0.00327  -4.5962
siesta:  111      -31.3180      -31.3097      -31.3097   0.00321  -4.5964
siesta:  112      -31.3180      -31.3098      -31.3098   0.00315  -4.5965
siesta:  113      -31.3180      -31.3100      -31.3100   0.00309  -4.5967
siesta:  114      -31.3180      -31.3101      -31.3101   0.00303  -4.5969
siesta:  115      -31.3180      -31.3103      -31.3103   0.00297  -4.5970
siesta:  116      -31.3180      -31.3105      -31.3105   0.00291  -4.5972
siesta:  117      -31.3180      -31.3106      -31.3106   0.00286  -4.5973
siesta:  118      -31.3180      -31.3108      -31.3108   0.00280  -4.5975
siesta:  119      -31.3180      -31.3109      -31.3109   0.00275  -4.5976
siesta:  120      -31.3180      -31.3110      -31.3110   0.00270  -4.5978
siesta:  121      -31.3180      -31.3112      -31.3112   0.00265  -4.5979
siesta:  122      -31.3180      -31.3113      -31.3113   0.00259  -4.5981
siesta:  123      -31.3180      -31.3115      -31.3115   0.00254  -4.5982
siesta:  124      -31.3180      -31.3116      -31.3116   0.00250  -4.5983
siesta:  125      -31.3180      -31.3117      -31.3117   0.00245  -4.5984
siesta:  126      -31.3180      -31.3118      -31.3118   0.00240  -4.5986
siesta:  127      -31.3180      -31.3120      -31.3120   0.00235  -4.5987
siesta:  128      -31.3180      -31.3121      -31.3121   0.00231  -4.5988
siesta:  129      -31.3180      -31.3122      -31.3122   0.00226  -4.5989
siesta:  130      -31.3180      -31.3123      -31.3123   0.00222  -4.5990
siesta:  131      -31.3180      -31.3124      -31.3124   0.00218  -4.5992
siesta:  132      -31.3180      -31.3125      -31.3125   0.00213  -4.5993
siesta:  133      -31.3180      -31.3126      -31.3126   0.00209  -4.5994
siesta:  134      -31.3180      -31.3128      -31.3128   0.00205  -4.5995
siesta:  135      -31.3180      -31.3129      -31.3129   0.00201  -4.5996
siesta:  136      -31.3180      -31.3130      -31.3130   0.00197  -4.5997
siesta:  137      -31.3180      -31.3131      -31.3131   0.00193  -4.5998
siesta:  138      -31.3180      -31.3132      -31.3132   0.00190  -4.5999
siesta:  139      -31.3180      -31.3133      -31.3133   0.00186  -4.6000
siesta:  140      -31.3180      -31.3134      -31.3134   0.00182  -4.6001
siesta:  141      -31.3180      -31.3134      -31.3134   0.00179  -4.6002
siesta:  142      -31.3180      -31.3135      -31.3135   0.00175  -4.6002
siesta:  143      -31.3180      -31.3136      -31.3136   0.00172  -4.6003
siesta:  144      -31.3180      -31.3137      -31.3137   0.00168  -4.6004
siesta:  145      -31.3180      -31.3138      -31.3138   0.00165  -4.6005
siesta:  146      -31.3180      -31.3139      -31.3139   0.00162  -4.6006
siesta:  147      -31.3180      -31.3140      -31.3140   0.00159  -4.6007
siesta:  148      -31.3180      -31.3140      -31.3140   0.00156  -4.6007
siesta:  149      -31.3180      -31.3141      -31.3141   0.00152  -4.6008
siesta:  150      -31.3180      -31.3142      -31.3142   0.00149  -4.6009
siesta:  151      -31.3180      -31.3143      -31.3143   0.00147  -4.6010
siesta:  152      -31.3180      -31.3143      -31.3143   0.00144  -4.6010
siesta:  153      -31.3180      -31.3144      -31.3144   0.00141  -4.6011
siesta:  154      -31.3180      -31.3145      -31.3145   0.00138  -4.6012
siesta:  155      -31.3180      -31.3146      -31.3146   0.00135  -4.6012
siesta:  156      -31.3180      -31.3146      -31.3146   0.00133  -4.6013
siesta:  157      -31.3180      -31.3147      -31.3147   0.00130  -4.6014
siesta:  158      -31.3180      -31.3148      -31.3148   0.00127  -4.6014
siesta:  159      -31.3180      -31.3148      -31.3148   0.00125  -4.6015
siesta:  160      -31.3180      -31.3149      -31.3149   0.00122  -4.6015
siesta:  161      -31.3180      -31.3150      -31.3150   0.00120  -4.6016
siesta:  162      -31.3180      -31.3150      -31.3150   0.00118  -4.6017
siesta:  163      -31.3180      -31.3151      -31.3151   0.00115  -4.6017
siesta:  164      -31.3180      -31.3151      -31.3151   0.00113  -4.6018
siesta:  165      -31.3180      -31.3152      -31.3152   0.00111  -4.6018
siesta:  166      -31.3180      -31.3152      -31.3152   0.00108  -4.6019
siesta:  167      -31.3180      -31.3153      -31.3153   0.00106  -4.6019
siesta:  168      -31.3180      -31.3154      -31.3154   0.00104  -4.6020
siesta:  169      -31.3180      -31.3154      -31.3154   0.00102  -4.6020
siesta:  170      -31.3180      -31.3155      -31.3155   0.00100  -4.6021
siesta:  171      -31.3180      -31.3155      -31.3155   0.00098  -4.6021
siesta:  172      -31.3180      -31.3156      -31.3156   0.00096  -4.6022
siesta:  173      -31.3180      -31.3156      -31.3156   0.00094  -4.6022
siesta:  174      -31.3180      -31.3157      -31.3157   0.00092  -4.6023
siesta:  175      -31.3180      -31.3157      -31.3157   0.00090  -4.6023
siesta:  176      -31.3180      -31.3157      -31.3157   0.00089  -4.6023
siesta:  177      -31.3180      -31.3158      -31.3158   0.00087  -4.6024
siesta:  178      -31.3180      -31.3158      -31.3158   0.00085  -4.6024
siesta:  179      -31.3180      -31.3159      -31.3159   0.00083  -4.6025
siesta:  180      -31.3180      -31.3159      -31.3159   0.00082  -4.6025
siesta:  181      -31.3180      -31.3160      -31.3160   0.00080  -4.6025
siesta:  182      -31.3180      -31.3160      -31.3160   0.00078  -4.6026
siesta:  183      -31.3180      -31.3160      -31.3160   0.00077  -4.6026
siesta:  184      -31.3180      -31.3161      -31.3161   0.00075  -4.6026
siesta:  185      -31.3180      -31.3161      -31.3161   0.00074  -4.6027
siesta:  186      -31.3180      -31.3162      -31.3162   0.00072  -4.6027
siesta:  187      -31.3180      -31.3162      -31.3162   0.00071  -4.6027
siesta:  188      -31.3180      -31.3162      -31.3162   0.00069  -4.6028
siesta:  189      -31.3180      -31.3163      -31.3163   0.00068  -4.6028
siesta:  190      -31.3180      -31.3163      -31.3163   0.00067  -4.6028
siesta:  191      -31.3180      -31.3163      -31.3163   0.00065  -4.6029
siesta:  192      -31.3180      -31.3164      -31.3164   0.00064  -4.6029
siesta:  193      -31.3180      -31.3164      -31.3164   0.00063  -4.6029
siesta:  194      -31.3180      -31.3164      -31.3164   0.00061  -4.6030
siesta:  195      -31.3180      -31.3165      -31.3165   0.00060  -4.6030
siesta:  196      -31.3180      -31.3165      -31.3165   0.00059  -4.6030
siesta:  197      -31.3180      -31.3165      -31.3165   0.00058  -4.6030
siesta:  198      -31.3180      -31.3165      -31.3165   0.00057  -4.6031
siesta:  199      -31.3180      -31.3166      -31.3166   0.00055  -4.6031
siesta:  200      -31.3180      -31.3166      -31.3166   0.00054  -4.6031
siesta:  201      -31.3180      -31.3166      -31.3166   0.00053  -4.6031
siesta:  202      -31.3180      -31.3167      -31.3167   0.00052  -4.6032
siesta:  203      -31.3180      -31.3167      -31.3167   0.00051  -4.6032
siesta:  204      -31.3180      -31.3167      -31.3167   0.00050  -4.6032
siesta:  205      -31.3180      -31.3167      -31.3167   0.00049  -4.6032
siesta:  206      -31.3180      -31.3168      -31.3168   0.00048  -4.6033
siesta:  207      -31.3180      -31.3168      -31.3168   0.00047  -4.6033
siesta:  208      -31.3180      -31.3168      -31.3168   0.00046  -4.6033
siesta:  209      -31.3180      -31.3168      -31.3168   0.00045  -4.6033
siesta:  210      -31.3180      -31.3169      -31.3169   0.00044  -4.6033
siesta:  211      -31.3180      -31.3169      -31.3169   0.00043  -4.6034
siesta:  212      -31.3180      -31.3169      -31.3169   0.00042  -4.6034
siesta:  213      -31.3180      -31.3169      -31.3169   0.00042  -4.6034
siesta:  214      -31.3180      -31.3169      -31.3169   0.00041  -4.6034
siesta:  215      -31.3180      -31.3170      -31.3170   0.00040  -4.6034
siesta:  216      -31.3180      -31.3170      -31.3170   0.00039  -4.6035
siesta:  217      -31.3180      -31.3170      -31.3170   0.00038  -4.6035
siesta:  218      -31.3180      -31.3170      -31.3170   0.00038  -4.6035
siesta:  219      -31.3180      -31.3170      -31.3170   0.00037  -4.6035
siesta:  220      -31.3180      -31.3171      -31.3171   0.00036  -4.6035
siesta:  221      -31.3180      -31.3171      -31.3171   0.00035  -4.6035
siesta:  222      -31.3180      -31.3171      -31.3171   0.00035  -4.6035
siesta:  223      -31.3180      -31.3171      -31.3171   0.00034  -4.6036
siesta:  224      -31.3180      -31.3171      -31.3171   0.00033  -4.6036
siesta:  225      -31.3180      -31.3172      -31.3172   0.00033  -4.6036
siesta:  226      -31.3180      -31.3172      -31.3172   0.00032  -4.6036
siesta:  227      -31.3180      -31.3172      -31.3172   0.00031  -4.6036
siesta:  228      -31.3180      -31.3172      -31.3172   0.00031  -4.6036
siesta:  229      -31.3180      -31.3172      -31.3172   0.00030  -4.6036
siesta:  230      -31.3180      -31.3172      -31.3172   0.00029  -4.6037
siesta:  231      -31.3180      -31.3172      -31.3172   0.00029  -4.6037
siesta:  232      -31.3180      -31.3173      -31.3173   0.00028  -4.6037
siesta:  233      -31.3180      -31.3173      -31.3173   0.00028  -4.6037
siesta:  234      -31.3180      -31.3173      -31.3173   0.00027  -4.6037
siesta:  235      -31.3180      -31.3173      -31.3173   0.00026  -4.6037
siesta:  236      -31.3180      -31.3173      -31.3173   0.00026  -4.6037
siesta:  237      -31.3180      -31.3173      -31.3173   0.00025  -4.6037
siesta:  238      -31.3180      -31.3173      -31.3173   0.00025  -4.6038
siesta:  239      -31.3180      -31.3174      -31.3174   0.00024  -4.6038
siesta:  240      -31.3180      -31.3174      -31.3174   0.00024  -4.6038
siesta:  241      -31.3180      -31.3174      -31.3174   0.00023  -4.6038
siesta:  242      -31.3180      -31.3174      -31.3174   0.00023  -4.6038
siesta:  243      -31.3180      -31.3174      -31.3174   0.00022  -4.6038
siesta:  244      -31.3180      -31.3174      -31.3174   0.00022  -4.6038
siesta:  245      -31.3180      -31.3174      -31.3174   0.00022  -4.6038
siesta:  246      -31.3180      -31.3174      -31.3174   0.00021  -4.6038
siesta:  247      -31.3180      -31.3175      -31.3175   0.00021  -4.6038
siesta:  248      -31.3180      -31.3175      -31.3175   0.00020  -4.6038
siesta:  249      -31.3180      -31.3175      -31.3175   0.00020  -4.6039
siesta:  250      -31.3180      -31.3175      -31.3175   0.00019  -4.6039
siesta:  251      -31.3180      -31.3175      -31.3175   0.00019  -4.6039
siesta:  252      -31.3180      -31.3175      -31.3175   0.00019  -4.6039
siesta:  253      -31.3180      -31.3175      -31.3175   0.00018  -4.6039
siesta:  254      -31.3180      -31.3175      -31.3175   0.00018  -4.6039
siesta:  255      -31.3180      -31.3175      -31.3175   0.00017  -4.6039
siesta:  256      -31.3180      -31.3175      -31.3175   0.00017  -4.6039
siesta:  257      -31.3180      -31.3175      -31.3175   0.00017  -4.6039
siesta:  258      -31.3180      -31.3176      -31.3176   0.00016  -4.6039
siesta:  259      -31.3180      -31.3176      -31.3176   0.00016  -4.6039
siesta:  260      -31.3180      -31.3176      -31.3176   0.00016  -4.6039
siesta:  261      -31.3180      -31.3176      -31.3176   0.00015  -4.6039
siesta:  262      -31.3180      -31.3176      -31.3176   0.00015  -4.6040
siesta:  263      -31.3180      -31.3176      -31.3176   0.00015  -4.6040
siesta:  264      -31.3180      -31.3176      -31.3176   0.00015  -4.6040
siesta:  265      -31.3180      -31.3176      -31.3176   0.00014  -4.6040
siesta:  266      -31.3180      -31.3176      -31.3176   0.00014  -4.6040
siesta:  267      -31.3180      -31.3176      -31.3176   0.00014  -4.6040
siesta:  268      -31.3180      -31.3176      -31.3176   0.00013  -4.6040
siesta:  269      -31.3180      -31.3176      -31.3176   0.00013  -4.6040
siesta:  270      -31.3180      -31.3176      -31.3176   0.00013  -4.6040
siesta:  271      -31.3180      -31.3177      -31.3177   0.00013  -4.6040
siesta:  272      -31.3180      -31.3177      -31.3177   0.00012  -4.6040
siesta:  273      -31.3180      -31.3177      -31.3177   0.00012  -4.6040
siesta:  274      -31.3180      -31.3177      -31.3177   0.00012  -4.6040
siesta:  275      -31.3180      -31.3177      -31.3177   0.00012  -4.6040
siesta:  276      -31.3180      -31.3177      -31.3177   0.00011  -4.6040
siesta:  277      -31.3180      -31.3177      -31.3177   0.00011  -4.6040
siesta:  278      -31.3180      -31.3177      -31.3177   0.00011  -4.6040
siesta:  279      -31.3180      -31.3177      -31.3177   0.00011  -4.6040
siesta:  280      -31.3180      -31.3177      -31.3177   0.00010  -4.6040
siesta:  281      -31.3180      -31.3177      -31.3177   0.00010  -4.6041
siesta:  282      -31.3180      -31.3177      -31.3177   0.00010  -4.6041
grdsam: Reading %block GridCellSampling
grdsam: Grid-cell sampling, point   0
grdsam: Generating displacements for grid-cell sampling
grdsam: Grid-cell sampling, point   1
grdsam: Grid-cell sampling, point   2
grdsam: Grid-cell sampling, point   3

siesta: E_KS(eV) =              -31.3177

siesta: E_KS - E_eggbox =       -31.3177

siesta: Atomic forces (eV/Ang):
     1    0.020821    0.018758    2.523129
     2   -0.020815   -0.018753   -2.523157
----------------------------------------
 Tot    0.000006    0.000004   -0.000028
----------------------------------------
 Max    2.523157
 Res    1.456827    sqrt( Sum f_i^2 / 3N )
----------------------------------------
 Max    2.523157    constrained
 
mulliken: Atomic and Orbital Populations:

Species: H                   
Atom  Qatom  Qorb
               1s      1s      2py     2pz     2px     
   1  1.059   1.009   0.058   0.000  -0.009   0.000
   2  0.941   0.852   0.057   0.000   0.033   0.000

mulliken: Qtot =    2.000
 
* Maximum dynamic memory allocated =   251 MB

siesta:                 ==============================
                            Begin CG move =      1
                        ==============================

outcoor: Atomic coordinates (Ang):                          
    3.25353201    5.72009504   18.92650888   1  H          1
    3.25971289    5.72566415   19.71616026   1  H          2

siesta: iscf   Eharris(eV)      E_KS(eV)   FreeEng(eV)     dDmax   Ef(eV)
siesta:    1      -31.4663      -31.4388      -31.4388   0.02327  -5.0351
siesta:    2      -31.4641      -31.4634      -31.4634   0.01196  -4.8197
siesta:    3      -31.4640      -31.4599      -31.4599   0.00732  -4.8549
siesta:    4      -31.4639      -31.4632      -31.4632   0.00058  -4.8374
siesta:    5      -31.4639      -31.4631      -31.4631   0.00054  -4.8384
siesta:    6      -31.4639      -31.4634      -31.4634   0.00038  -4.8384
siesta:    7      -31.4639      -31.4634      -31.4634   0.00037  -4.8384
siesta:    8      -31.4639      -31.4634      -31.4634   0.00036  -4.8384
siesta:    9      -31.4639      -31.4634      -31.4634   0.00036  -4.8384
siesta:   10      -31.4639      -31.4634      -31.4634   0.00035  -4.8384
siesta:   11      -31.4639      -31.4634      -31.4634   0.00034  -4.8384
siesta:   12      -31.4639      -31.4634      -31.4634   0.00034  -4.8384
siesta:   13      -31.4639      -31.4634      -31.4634   0.00033  -4.8384
siesta:   14      -31.4639      -31.4634      -31.4634   0.00032  -4.8384
siesta:   15      -31.4639      -31.4634      -31.4634   0.00032  -4.8384
siesta:   16      -31.4639      -31.4635      -31.4635   0.00031  -4.8384
siesta:   17      -31.4639      -31.4635      -31.4635   0.00030  -4.8384
siesta:   18      -31.4639      -31.4635      -31.4635   0.00030  -4.8385
siesta:   19      -31.4639      -31.4635      -31.4635   0.00029  -4.8385
siesta:   20      -31.4639      -31.4635      -31.4635   0.00029  -4.8385
siesta:   21      -31.4639      -31.4635      -31.4635   0.00028  -4.8385
siesta:   22      -31.4639      -31.4635      -31.4635   0.00028  -4.8385
siesta:   23      -31.4639      -31.4635      -31.4635   0.00027  -4.8385
siesta:   24      -31.4639      -31.4635      -31.4635   0.00026  -4.8385
siesta:   25      -31.4639      -31.4635      -31.4635   0.00026  -4.8385
siesta:   26      -31.4639      -31.4635      -31.4635   0.00025  -4.8385
siesta:   27      -31.4639      -31.4635      -31.4635   0.00025  -4.8385
siesta:   28      -31.4639      -31.4635      -31.4635   0.00024  -4.8385
siesta:   29      -31.4639      -31.4636      -31.4636   0.00024  -4.8385
siesta:   30      -31.4639      -31.4636      -31.4636   0.00023  -4.8385
siesta:   31      -31.4639      -31.4636      -31.4636   0.00023  -4.8385
siesta:   32      -31.4639      -31.4636      -31.4636   0.00023  -4.8385
siesta:   33      -31.4639      -31.4636      -31.4636   0.00022  -4.8386
siesta:   34      -31.4639      -31.4636      -31.4636   0.00022  -4.8386
siesta:   35      -31.4639      -31.4636      -31.4636   0.00021  -4.8386
siesta:   36      -31.4639      -31.4636      -31.4636   0.00021  -4.8386
siesta:   37      -31.4639      -31.4636      -31.4636   0.00020  -4.8386
siesta:   38      -31.4639      -31.4636      -31.4636   0.00020  -4.8386
siesta:   39      -31.4639      -31.4636      -31.4636   0.00020  -4.8386
siesta:   40      -31.4639      -31.4636      -31.4636   0.00019  -4.8386
siesta:   41      -31.4639      -31.4636      -31.4636   0.00019  -4.8386
siesta:   42      -31.4639      -31.4636      -31.4636   0.00018  -4.8386
siesta:   43      -31.4639      -31.4636      -31.4636   0.00018  -4.8386
siesta:   44      -31.4639      -31.4636      -31.4636   0.00018  -4.8386
siesta:   45      -31.4639      -31.4636      -31.4636   0.00017  -4.8386
siesta:   46      -31.4639      -31.4637      -31.4637   0.00017  -4.8386
siesta:   47      -31.4639      -31.4637      -31.4637   0.00017  -4.8386
siesta:   48      -31.4639      -31.4637      -31.4637   0.00016  -4.8386
siesta:   49      -31.4639      -31.4637      -31.4637   0.00016  -4.8386
siesta:   50      -31.4639      -31.4637      -31.4637   0.00016  -4.8386
siesta:   51      -31.4639      -31.4637      -31.4637   0.00015  -4.8386
siesta:   52      -31.4639      -31.4637      -31.4637   0.00015  -4.8386
siesta:   53      -31.4639      -31.4637      -31.4637   0.00015  -4.8386
siesta:   54      -31.4639      -31.4637      -31.4637   0.00015  -4.8386
siesta:   55      -31.4639      -31.4637      -31.4637   0.00014  -4.8387
siesta:   56      -31.4639      -31.4637      -31.4637   0.00014  -4.8387
siesta:   57      -31.4639      -31.4637      -31.4637   0.00014  -4.8387
siesta:   58      -31.4639      -31.4637      -31.4637   0.00013  -4.8387
siesta:   59      -31.4639      -31.4637      -31.4637   0.00013  -4.8387
siesta:   60      -31.4639      -31.4637      -31.4637   0.00013  -4.8387
siesta:   61      -31.4639      -31.4637      -31.4637   0.00013  -4.8387
siesta:   62      -31.4639      -31.4637      -31.4637   0.00012  -4.8387
siesta:   63      -31.4639      -31.4637      -31.4637   0.00012  -4.8387
siesta:   64      -31.4639      -31.4637      -31.4637   0.00012  -4.8387
siesta:   65      -31.4639      -31.4637      -31.4637   0.00012  -4.8387
siesta:   66      -31.4639      -31.4637      -31.4637   0.00011  -4.8387
siesta:   67      -31.4639      -31.4637      -31.4637   0.00011  -4.8387
siesta:   68      -31.4639      -31.4637      -31.4637   0.00011  -4.8387
siesta:   69      -31.4639      -31.4637      -31.4637   0.00011  -4.8387
siesta:   70      -31.4639      -31.4637      -31.4637   0.00011  -4.8387
siesta:   71      -31.4639      -31.4637      -31.4637   0.00010  -4.8387
siesta:   72      -31.4639      -31.4638      -31.4638   0.00010  -4.8387
siesta:   73      -31.4639      -31.4638      -31.4638   0.00010  -4.8387
grdsam: Grid-cell sampling, point   0
grdsam: Grid-cell sampling, point   1
grdsam: Grid-cell sampling, point   2
grdsam: Grid-cell sampling, point   3

siesta: E_KS(eV) =              -31.4638

siesta: Atomic forces (eV/Ang):
     1    0.008601    0.007747    0.995081
     2   -0.008630   -0.007777   -0.995092
----------------------------------------
 Tot   -0.000028   -0.000030   -0.000011
----------------------------------------
 Max    0.995092
 Res    0.574552    sqrt( Sum f_i^2 / 3N )
----------------------------------------
 Max    0.995092    constrained
 
mulliken: Atomic and Orbital Populations:

Species: H                   
Atom  Qatom  Qorb
               1s      1s      2py     2pz     2px     
   1  1.058   0.990   0.073   0.000  -0.005   0.000
   2  0.942   0.839   0.073   0.000   0.031   0.000

mulliken: Qtot =    2.000
 
* Maximum dynamic memory allocated =   251 MB

siesta:                 ==============================
                            Begin CG move =      2
                        ==============================

outcoor: Atomic coordinates (Ang):                          
    3.25353201    5.72009504   18.92650888   1  H          1
    3.25905291    5.72506955   19.63616026   1  H          2

siesta: iscf   Eharris(eV)      E_KS(eV)   FreeEng(eV)     dDmax   Ef(eV)
siesta:    1      -31.4421      -31.4080      -31.4080   0.02381  -5.4225
siesta:    2      -31.4387      -31.4379      -31.4379   0.01052  -5.1525
siesta:    3      -31.4386      -31.4338      -31.4338   0.00545  -5.1955
siesta:    4      -31.4385      -31.4377      -31.4377   0.00074  -5.1798
siesta:    5      -31.4385      -31.4379      -31.4379   0.00088  -5.1783
siesta:    6      -31.4385      -31.4380      -31.4380   0.00046  -5.1803
siesta:    7      -31.4385      -31.4380      -31.4380   0.00046  -5.1803
siesta:    8      -31.4385      -31.4380      -31.4380   0.00045  -5.1804
siesta:    9      -31.4385      -31.4380      -31.4380   0.00044  -5.1804
siesta:   10      -31.4385      -31.4380      -31.4380   0.00043  -5.1805
siesta:   11      -31.4385      -31.4380      -31.4380   0.00042  -5.1805
siesta:   12      -31.4385      -31.4381      -31.4381   0.00042  -5.1806
siesta:   13      -31.4385      -31.4381      -31.4381   0.00041  -5.1806
siesta:   14      -31.4385      -31.4381      -31.4381   0.00040  -5.1807
siesta:   15      -31.4385      -31.4381      -31.4381   0.00039  -5.1807
siesta:   16      -31.4385      -31.4381      -31.4381   0.00039  -5.1807
siesta:   17      -31.4385      -31.4381      -31.4381   0.00038  -5.1808
siesta:   18      -31.4385      -31.4381      -31.4381   0.00037  -5.1808
siesta:   19      -31.4385      -31.4381      -31.4381   0.00037  -5.1809
siesta:   20      -31.4385      -31.4381      -31.4381   0.00036  -5.1809
siesta:   21      -31.4385      -31.4381      -31.4381   0.00035  -5.1809
siesta:   22      -31.4385      -31.4381      -31.4381   0.00035  -5.1810
siesta:   23      -31.4385      -31.4381      -31.4381   0.00034  -5.1810
siesta:   24      -31.4385      -31.4382      -31.4382   0.00033  -5.1810
siesta:   25      -31.4385      -31.4382      -31.4382   0.00033  -5.1811
siesta:   26      -31.4385      -31.4382      -31.4382   0.00032  -5.1811
siesta:   27      -31.4385      -31.4382      -31.4382   0.00031  -5.1811
siesta:   28      -31.4385      -31.4382      -31.4382   0.00031  -5.1812
siesta:   29      -31.4385      -31.4382      -31.4382   0.00030  -5.1812
siesta:   30      -31.4385      -31.4382      -31.4382   0.00030  -5.1812
siesta:   31      -31.4385      -31.4382      -31.4382   0.00029  -5.1813
siesta:   32      -31.4385      -31.4382      -31.4382   0.00029  -5.1813
siesta:   33      -31.4385      -31.4382      -31.4382   0.00028  -5.1813
siesta:   34      -31.4385      -31.4382      -31.4382   0.00028  -5.1813
siesta:   35      -31.4385      -31.4382      -31.4382   0.00027  -5.1814
siesta:   36      -31.4385      -31.4382      -31.4382   0.00027  -5.1814
siesta:   37      -31.4385      -31.4382      -31.4382   0.00026  -5.1814
siesta:   38      -31.4385      -31.4382      -31.4382   0.00026  -5.1814
siesta:   39      -31.4385      -31.4383      -31.4383   0.00025  -5.1815
siesta:   40      -31.4385      -31.4383      -31.4383   0.00025  -5.1815
siesta:   41      -31.4385      -31.4383      -31.4383   0.00024  -5.1815
siesta:   42      -31.4385      -31.4383      -31.4383   0.00024  -5.1815
siesta:   43      -31.4385      -31.4383      -31.4383   0.00023  -5.1816
siesta:   44      -31.4385      -31.4383      -31.4383   0.00023  -5.1816
siesta:   45      -31.4385      -31.4383      -31.4383   0.00022  -5.1816
siesta:   46      -31.4385      -31.4383      -31.4383   0.00022  -5.1816
siesta:   47      -31.4385      -31.4383      -31.4383   0.00021  -5.1817
siesta:   48      -31.4385      -31.4383      -31.4383   0.00021  -5.1817
siesta:   49      -31.4385      -31.4383      -31.4383   0.00021  -5.1817
siesta:   50      -31.4385      -31.4383      -31.4383   0.00020  -5.1817
siesta:   51      -31.4385      -31.4383      -31.4383   0.00020  -5.1817
siesta:   52      -31.4385      -31.4383      -31.4383   0.00019  -5.1817
siesta:   53      -31.4385      -31.4383      -31.4383   0.00019  -5.1818
siesta:   54      -31.4385      -31.4383      -31.4383   0.00019  -5.1818
siesta:   55      -31.4385      -31.4383      -31.4383   0.00018  -5.1818
siesta:   56      -31.4385      -31.4383      -31.4383   0.00018  -5.1818
siesta:   57      -31.4385      -31.4383      -31.4383   0.00018  -5.1818
siesta:   58      -31.4385      -31.4383      -31.4383   0.00017  -5.1818
siesta:   59      -31.4385      -31.4383      -31.4383   0.00017  -5.1819
siesta:   60      -31.4385      -31.4383      -31.4383   0.00017  -5.1819
siesta:   61      -31.4385      -31.4383      -31.4383   0.00016  -5.1819
siesta:   62      -31.4385      -31.4384      -31.4384   0.00016  -5.1819
siesta:   63      -31.4385      -31.4384      -31.4384   0.00016  -5.1819
siesta:   64      -31.4385      -31.4384      -31.4384   0.00015  -5.1819
siesta:   65      -31.4385      -31.4384      -31.4384   0.00015  -5.1819
siesta:   66      -31.4385      -31.4384      -31.4384   0.00015  -5.1820
siesta:   67      -31.4385      -31.4384      -31.4384   0.00015  -5.1820
siesta:   68      -31.4385      -31.4384      -31.4384   0.00014  -5.1820
siesta:   69      -31.4385      -31.4384      -31.4384   0.00014  -5.1820
siesta:   70      -31.4385      -31.4384      -31.4384   0.00014  -5.1820
siesta:   71      -31.4385      -31.4384      -31.4384   0.00013  -5.1820
siesta:   72      -31.4385      -31.4384      -31.4384   0.00013  -5.1820
siesta:   73      -31.4385      -31.4384      -31.4384   0.00013  -5.1820
siesta:   74      -31.4385      -31.4384      -31.4384   0.00013  -5.1821
siesta:   75      -31.4385      -31.4384      -31.4384   0.00012  -5.1821
siesta:   76      -31.4385      -31.4384      -31.4384   0.00012  -5.1821
siesta:   77      -31.4385      -31.4384      -31.4384   0.00012  -5.1821
siesta:   78      -31.4385      -31.4384      -31.4384   0.00012  -5.1821
siesta:   79      -31.4385      -31.4384      -31.4384   0.00011  -5.1821
siesta:   80      -31.4385      -31.4384      -31.4384   0.00011  -5.1821
siesta:   81      -31.4385      -31.4384      -31.4384   0.00011  -5.1821
siesta:   82      -31.4385      -31.4384      -31.4384   0.00011  -5.1821
siesta:   83      -31.4385      -31.4384      -31.4384   0.00011  -5.1821
siesta:   84      -31.4385      -31.4384      -31.4384   0.00010  -5.1822
siesta:   85      -31.4385      -31.4384      -31.4384   0.00010  -5.1822
siesta:   86      -31.4385      -31.4384      -31.4384   0.00010  -5.1822
grdsam: Grid-cell sampling, point   0
grdsam: Grid-cell sampling, point   1
grdsam: Grid-cell sampling, point   2
grdsam: Grid-cell sampling, point   3

siesta: E_KS(eV) =              -31.4384

siesta: Atomic forces (eV/Ang):
     1   -0.014406   -0.012984   -1.938175
     2    0.014404    0.012981    1.938154
----------------------------------------
 Tot   -0.000002   -0.000002   -0.000021
----------------------------------------
 Max    1.938175
 Res    1.119056    sqrt( Sum f_i^2 / 3N )
----------------------------------------
 Max    1.938154    constrained
 
mulliken: Atomic and Orbital Populations:

Species: H                   
Atom  Qatom  Qorb
               1s      1s      2py     2pz     2px     
   1  1.058   0.969   0.091   0.000  -0.002   0.000
   2  0.942   0.822   0.092   0.000   0.029   0.000

mulliken: Qtot =    2.000
 
* Maximum dynamic memory allocated =   251 MB

siesta:                 ==============================
                            Begin CG move =      3
                        ==============================

outcoor: Atomic coordinates (Ang):                          
    3.25353201    5.72009504   18.92650888   1  H          1
    3.25948899    5.72546243   19.68902026   1  H          2

siesta: iscf   Eharris(eV)      E_KS(eV)   FreeEng(eV)     dDmax   Ef(eV)
siesta:    1      -31.4816      -31.4667      -31.4667   0.01577  -4.8041
siesta:    2      -31.4803      -31.4800      -31.4800   0.00699  -4.9716
siesta:    3      -31.4803      -31.4782      -31.4782   0.00386  -4.9465
siesta:    4      -31.4802      -31.4795      -31.4795   0.00032  -4.9522
siesta:    5      -31.4803      -31.4793      -31.4793   0.00154  -4.9530
siesta:    6      -31.4802      -31.4803      -31.4803   0.00002  -4.9550
grdsam: Grid-cell sampling, point   0
grdsam: Grid-cell sampling, point   1
grdsam: Grid-cell sampling, point   2
grdsam: Grid-cell sampling, point   3

siesta: E_KS(eV) =              -31.4803

siesta: Atomic forces (eV/Ang):
     1    0.002410    0.002169    0.212094
     2   -0.002407   -0.002166   -0.212124
----------------------------------------
 Tot    0.000004    0.000003   -0.000030
----------------------------------------
 Max    0.212124
 Res    0.122476    sqrt( Sum f_i^2 / 3N )
----------------------------------------
 Max    0.212124    constrained
 
mulliken: Atomic and Orbital Populations:

Species: H                   
Atom  Qatom  Qorb
               1s      1s      2py     2pz     2px     
   1  1.058   0.983   0.079   0.000  -0.004   0.000
   2  0.942   0.833   0.079   0.000   0.030   0.000

mulliken: Qtot =    2.000

cgvc: Finished line minimization    1.  Mean atomic displacement =    0.1069
 
* Maximum dynamic memory allocated =   251 MB

siesta:                 ==============================
                            Begin CG move =      4
                        ==============================

outcoor: Atomic coordinates (Ang):                          
    3.25353201    5.72009504   18.92650888   1  H          1
    3.25860053    5.72466289   19.60902026   1  H          2

siesta: iscf   Eharris(eV)      E_KS(eV)   FreeEng(eV)     dDmax   Ef(eV)
siesta:    1      -31.3711      -31.3356      -31.3356   0.02373  -5.4459
siesta:    2      -31.3672      -31.3664      -31.3664   0.01011  -5.1591
siesta:    3      -31.3671      -31.3621      -31.3621   0.00490  -5.2055
siesta:    4      -31.3671      -31.3663      -31.3663   0.00080  -5.1898
siesta:    5      -31.3671      -31.3665      -31.3665   0.00097  -5.1880
siesta:    6      -31.3671      -31.3666      -31.3666   0.00049  -5.1905
siesta:    7      -31.3671      -31.3666      -31.3666   0.00048  -5.1906
siesta:    8      -31.3671      -31.3666      -31.3666   0.00047  -5.1906
siesta:    9      -31.3671      -31.3666      -31.3666   0.00047  -5.1907
siesta:   10      -31.3671      -31.3666      -31.3666   0.00046  -5.1908
siesta:   11      -31.3671      -31.3666      -31.3666   0.00045  -5.1908
siesta:   12      -31.3671      -31.3666      -31.3666   0.00044  -5.1909
siesta:   13      -31.3671      -31.3666      -31.3666   0.00043  -5.1909
siesta:   14      -31.3671      -31.3666      -31.3666   0.00042  -5.1910
siesta:   15      -31.3671      -31.3666      -31.3666   0.00041  -5.1910
siesta:   16      -31.3671      -31.3666      -31.3666   0.00041  -5.1911
siesta:   17      -31.3671      -31.3667      -31.3667   0.00040  -5.1911
siesta:   18      -31.3671      -31.3667      -31.3667   0.00039  -5.1912
siesta:   19      -31.3671      -31.3667      -31.3667   0.00038  -5.1912
siesta:   20      -31.3671      -31.3667      -31.3667   0.00038  -5.1913
siesta:   21      -31.3671      -31.3667      -31.3667   0.00037  -5.1913
siesta:   22      -31.3671      -31.3667      -31.3667   0.00036  -5.1914
siesta:   23      -31.3671      -31.3667      -31.3667   0.00036  -5.1914
siesta:   24      -31.3671      -31.3667      -31.3667   0.00035  -5.1914
siesta:   25      -31.3671      -31.3667      -31.3667   0.00034  -5.1915
siesta:   26      -31.3671      -31.3667      -31.3667   0.00034  -5.1915
siesta:   27      -31.3671      -31.3667      -31.3667   0.00033  -5.1916
siesta:   28      -31.3671      -31.3667      -31.3667   0.00032  -5.1916
siesta:   29      -31.3671      -31.3667      -31.3667   0.00032  -5.1916
siesta:   30      -31.3671      -31.3668      -31.3668   0.00031  -5.1917
siesta:   31      -31.3671      -31.3668      -31.3668   0.00030  -5.1917
siesta:   32      -31.3671      -31.3668      -31.3668   0.00030  -5.1917
siesta:   33      -31.3671      -31.3668      -31.3668   0.00029  -5.1918
siesta:   34      -31.3671      -31.3668      -31.3668   0.00029  -5.1918
siesta:   35      -31.3671      -31.3668      -31.3668   0.00028  -5.1918
siesta:   36      -31.3671      -31.3668      -31.3668   0.00028  -5.1919
siesta:   37      -31.3671      -31.3668      -31.3668   0.00027  -5.1919
siesta:   38      -31.3671      -31.3668      -31.3668   0.00027  -5.1919
siesta:   39      -31.3671      -31.3668      -31.3668   0.00026  -5.1920
siesta:   40      -31.3671      -31.3668      -31.3668   0.00026  -5.1920
siesta:   41      -31.3671      -31.3668      -31.3668   0.00025  -5.1920
siesta:   42      -31.3671      -31.3668      -31.3668   0.00025  -5.1921
siesta:   43      -31.3671      -31.3668      -31.3668   0.00024  -5.1921
siesta:   44      -31.3671      -31.3668      -31.3668   0.00024  -5.1921
siesta:   45      -31.3671      -31.3668      -31.3668   0.00023  -5.1921
siesta:   46      -31.3671      -31.3668      -31.3668   0.00023  -5.1922
siesta:   47      -31.3671      -31.3668      -31.3668   0.00022  -5.1922
siesta:   48      -31.3671      -31.3668      -31.3668   0.00022  -5.1922
siesta:   49      -31.3671      -31.3669      -31.3669   0.00021  -5.1922
siesta:   50      -31.3671      -31.3669      -31.3669   0.00021  -5.1923
siesta:   51      -31.3671      -31.3669      -31.3669   0.00021  -5.1923
siesta:   52      -31.3671      -31.3669      -31.3669   0.00020  -5.1923
siesta:   53      -31.3671      -31.3669      -31.3669   0.00020  -5.1923
siesta:   54      -31.3671      -31.3669      -31.3669   0.00019  -5.1923
siesta:   55      -31.3671      -31.3669      -31.3669   0.00019  -5.1924
siesta:   56      -31.3671      -31.3669      -31.3669   0.00019  -5.1924
siesta:   57      -31.3671      -31.3669      -31.3669   0.00018  -5.1924
siesta:   58      -31.3671      -31.3669      -31.3669   0.00018  -5.1924
siesta:   59      -31.3671      -31.3669      -31.3669   0.00018  -5.1924
siesta:   60      -31.3671      -31.3669      -31.3669   0.00017  -5.1925
siesta:   61      -31.3671      -31.3669      -31.3669   0.00017  -5.1925
siesta:   62      -31.3671      -31.3669      -31.3669   0.00017  -5.1925
siesta:   63      -31.3671      -31.3669      -31.3669   0.00016  -5.1925
siesta:   64      -31.3671      -31.3669      -31.3669   0.00016  -5.1925
siesta:   65      -31.3671      -31.3669      -31.3669   0.00016  -5.1925
siesta:   66      -31.3671      -31.3669      -31.3669   0.00015  -5.1926
siesta:   67      -31.3671      -31.3669      -31.3669   0.00015  -5.1926
siesta:   68      -31.3671      -31.3669      -31.3669   0.00015  -5.1926
siesta:   69      -31.3671      -31.3669      -31.3669   0.00014  -5.1926
siesta:   70      -31.3671      -31.3669      -31.3669   0.00014  -5.1926
siesta:   71      -31.3671      -31.3669      -31.3669   0.00014  -5.1926
siesta:   72      -31.3671      -31.3669      -31.3669   0.00014  -5.1926
siesta:   73      -31.3671      -31.3669      -31.3669   0.00013  -5.1927
siesta:   74      -31.3671      -31.3669      -31.3669   0.00013  -5.1927
siesta:   75      -31.3671      -31.3669      -31.3669   0.00013  -5.1927
siesta:   76      -31.3671      -31.3669      -31.3669   0.00012  -5.1927
siesta:   77      -31.3671      -31.3669      -31.3669   0.00012  -5.1927
siesta:   78      -31.3671      -31.3669      -31.3669   0.00012  -5.1927
siesta:   79      -31.3671      -31.3669      -31.3669   0.00012  -5.1927
siesta:   80      -31.3671      -31.3669      -31.3669   0.00011  -5.1927
siesta:   81      -31.3671      -31.3670      -31.3670   0.00011  -5.1928
siesta:   82      -31.3671      -31.3670      -31.3670   0.00011  -5.1928
siesta:   83      -31.3671      -31.3670      -31.3670   0.00011  -5.1928
siesta:   84      -31.3671      -31.3670      -31.3670   0.00011  -5.1928
siesta:   85      -31.3671      -31.3670      -31.3670   0.00010  -5.1928
siesta:   86      -31.3671      -31.3670      -31.3670   0.00010  -5.1928
siesta:   87      -31.3671      -31.3670      -31.3670   0.00010  -5.1928
grdsam: Grid-cell sampling, point   0
grdsam: Grid-cell sampling, point   1
grdsam: Grid-cell sampling, point   2
grdsam: Grid-cell sampling, point   3

siesta: E_KS(eV) =              -31.3670

siesta: Atomic forces (eV/Ang):
     1   -0.024514   -0.022096   -3.379210
     2    0.024485    0.022065    3.379193
----------------------------------------
 Tot   -0.000029   -0.000031   -0.000017
----------------------------------------
 Max    3.379210
 Res    1.951076    sqrt( Sum f_i^2 / 3N )
----------------------------------------
 Max    3.379193    constrained
 
mulliken: Atomic and Orbital Populations:

Species: H                   
Atom  Qatom  Qorb
               1s      1s      2py     2pz     2px     
   1  1.057   0.961   0.098   0.000  -0.001   0.000
   2  0.943   0.816   0.098   0.000   0.028   0.000

mulliken: Qtot =    2.000
 
* Maximum dynamic memory allocated =   251 MB

siesta:                 ==============================
                            Begin CG move =      5
                        ==============================

outcoor: Atomic coordinates (Ang):                          
    3.25353201    5.72009504   18.92650888   1  H          1
    3.25943651    5.72541520   19.68429462   1  H          2

siesta: iscf   Eharris(eV)      E_KS(eV)   FreeEng(eV)     dDmax   Ef(eV)
siesta:    1      -31.4837      -31.4532      -31.4532   0.02232  -4.7580
siesta:    2      -31.4809      -31.4803      -31.4803   0.00969  -4.9997
siesta:    3      -31.4809      -31.4767      -31.4767   0.00523  -4.9635
siesta:    4      -31.4808      -31.4791      -31.4791   0.00046  -4.9702
siesta:    5      -31.4808      -31.4795      -31.4795   0.00135  -4.9758
siesta:    6      -31.4808      -31.4809      -31.4809   0.00003  -4.9754
grdsam: Grid-cell sampling, point   0
grdsam: Grid-cell sampling, point   1
grdsam: Grid-cell sampling, point   2
grdsam: Grid-cell sampling, point   3

siesta: E_KS(eV) =              -31.4808

siesta: Atomic forces (eV/Ang):
     1    0.000935    0.000839    0.022761
     2   -0.000924   -0.000828   -0.022701
----------------------------------------
 Tot    0.000011    0.000011    0.000060
----------------------------------------
 Max    0.022761
 Res    0.013144    sqrt( Sum f_i^2 / 3N )
----------------------------------------
 Max    0.022701    constrained
 
mulliken: Atomic and Orbital Populations:

Species: H                   
Atom  Qatom  Qorb
               1s      1s      2py     2pz     2px     
   1  1.058   0.982   0.080   0.000  -0.004   0.000
   2  0.942   0.833   0.080   0.000   0.030   0.000

mulliken: Qtot =    2.000

cgvc: Finished line minimization    2.  Mean atomic displacement =    0.0063
 
* Maximum dynamic memory allocated =   251 MB

siesta:                 ==============================
                            Begin CG move =      6
                        ==============================

outcoor: Atomic coordinates (Ang):                          
    3.25353201    5.72009504   18.92650888   1  H          1
    3.25925899    5.72525600   19.67957448   1  H          2

siesta: iscf   Eharris(eV)      E_KS(eV)   FreeEng(eV)     dDmax   Ef(eV)
siesta:    1      -31.4806      -31.4806      -31.4806   0.00142  -5.0091
siesta:    2      -31.4806      -31.4806      -31.4806   0.00065  -4.9939
siesta:    3      -31.4806      -31.4806      -31.4806   0.00036  -4.9962
siesta:    4      -31.4806      -31.4806      -31.4806   0.00003  -4.9955
grdsam: Grid-cell sampling, point   0
grdsam: Grid-cell sampling, point   1
grdsam: Grid-cell sampling, point   2
grdsam: Grid-cell sampling, point   3

siesta: E_KS(eV) =              -31.4806

siesta: Atomic forces (eV/Ang):
     1   -0.000336   -0.000306   -0.139103
     2    0.000348    0.000317    0.139218
----------------------------------------
 Tot    0.000012    0.000011    0.000115
----------------------------------------
 Max    0.139218
 Res    0.080345    sqrt( Sum f_i^2 / 3N )
----------------------------------------
 Max    0.139218    constrained
 
mulliken: Atomic and Orbital Populations:

Species: H                   
Atom  Qatom  Qorb
               1s      1s      2py     2pz     2px     
   1  1.058   0.980   0.081   0.000  -0.004   0.000
   2  0.942   0.832   0.081   0.000   0.030   0.000

mulliken: Qtot =    2.000
 
* Maximum dynamic memory allocated =   251 MB

siesta:                 ==============================
                            Begin CG move =      7
                        ==============================

outcoor: Atomic coordinates (Ang):                          
    3.25353201    5.72009504   18.92650888   1  H          1
    3.25941157    5.72539283   19.68363138   1  H          2

siesta: iscf   Eharris(eV)      E_KS(eV)   FreeEng(eV)     dDmax   Ef(eV)
siesta:    1      -31.4808      -31.4807      -31.4807   0.00120  -4.9666
siesta:    2      -31.4808      -31.4808      -31.4808   0.00055  -4.9793
siesta:    3      -31.4808      -31.4808      -31.4808   0.00031  -4.9774
siesta:    4      -31.4808      -31.4808      -31.4808   0.00002  -4.9779
grdsam: Grid-cell sampling, point   0
grdsam: Grid-cell sampling, point   1
grdsam: Grid-cell sampling, point   2
grdsam: Grid-cell sampling, point   3

siesta: E_KS(eV) =              -31.4808

siesta: Atomic forces (eV/Ang):
     1    0.000777    0.000697    0.002192
     2   -0.000764   -0.000686   -0.002113
----------------------------------------
 Tot    0.000013    0.000011    0.000079
----------------------------------------
 Max    0.002192
 Res    0.001379    sqrt( Sum f_i^2 / 3N )
----------------------------------------
 Max    0.002113    constrained
 
mulliken: Atomic and Orbital Populations:

Species: H                   
Atom  Qatom  Qorb
               1s      1s      2py     2pz     2px     
   1  1.058   0.981   0.080   0.000  -0.004   0.000
   2  0.942   0.832   0.080   0.000   0.030   0.000

mulliken: Qtot =    2.000

outcoor: Relaxed atomic coordinates (Ang):                  
    3.25353201    5.72009504   18.92650888   1  H          1
    3.25941157    5.72539283   19.68363138   1  H          2

siesta: Eigenvalues (eV):
  ik is    eps
   1  1 -11.15   1.12   3.92   3.92   9.75  11.10  11.10  17.86  43.67  89.56
siesta: Fermi energy =      -4.977935 eV

siesta: Program's energy decomposition (eV):
siesta:-Eions   =     -26.074526
siesta: Ena     =       4.207219
siesta: Ekin    =      26.151443
siesta: Enl     =     -16.908057
siesta: DEna    =      -1.369284
siesta: DUscf   =       0.293539
siesta: DUext   =      -0.292902
siesta: Exc     =     -17.488247
siesta: eta*DQ  =       0.000000
siesta: Emadel  =       0.000000
siesta: Ekinion =       0.000000
siesta: Eharris =     -31.480828
siesta: Eso     =       0.000000
siesta: Etot    =     -31.480815
siesta: FreeEng =     -31.480815

siesta: Final energy (eV):
siesta:       Kinetic =      26.151443
siesta:       Hartree =      35.349324
siesta:    Ext. field =      -0.292902
siesta:   Exch.-corr. =     -17.488247
siesta:  Ion-electron =     -96.398859
siesta:       Ion-ion =      21.198427
siesta:       Ekinion =       0.000000
siesta:         Total =     -31.480815

siesta: Stress tensor (static) (eV/Ang**3):
siesta:     0.000095    0.000000    0.000000
siesta:     0.000000    0.000095    0.000000
siesta:     0.000000    0.000000    0.000193

siesta: Cell volume =       3044.391638 Ang**3

siesta: Pressure (static):
siesta:                Solid            Molecule  Units
siesta:          -0.00000139         -0.00000139  Ry/Bohr**3
siesta:          -0.00012800         -0.00012782  eV/Ang**3
siesta:          -0.20508440         -0.20479705  kBar

siesta: Total spin polarization (Qup-Qdown) =    0.000000
siesta: Spin vector =    0.000000    0.000000    0.000000
siesta: No SpinPolK block detected...

siesta: Electric dipole (a.u.)  =    0.000556    0.000501    0.276753
siesta: Electric dipole (Debye) =    0.001414    0.001274    0.703436
 
* Maximum dynamic memory allocated : Node    0 =   243 MB
* Maximum dynamic memory allocated : Node    2 =   251 MB
* Maximum dynamic memory allocated : Node    3 =   251 MB
* Maximum memory occured during redistribXZ                   
* Maximum dynamic memory allocated : Node    1 =   242 MB

timer: CPU execution times:
timer:  Routine       Calls   Time/call    Tot.time        %
timer:  siesta            1   11480.733   11480.733   100.00
timer:  Setup             1       5.142       5.142     0.04
timer:  bands             1       0.004       0.004     0.00
timer:  writewave         1       0.004       0.004     0.00
timer:  KSV_init          1       0.000       0.000     0.00
timer:  IterMD            8    1428.650   11429.202    99.55
timer:  hsparse           9       0.001       0.008     0.00
timer:  overfsm          16       0.004       0.066     0.00
timer:  IterSCF         556      20.544   11422.540    99.49
timer:  kinefsm          16       0.002       0.035     0.00
timer:  nlefsm           16       0.051       0.812     0.01
timer:  DHSCF           581      19.718   11456.440    99.79
timer:  DHSCF1            1       7.692       7.692     0.07
timer:  DHSCF2           33      11.757     387.997     3.38
timer:  REORD          8204       0.056     455.985     3.97
timer:  POISON          614       9.069    5568.462    48.50
timer:  DHSCF3          581      18.942   11005.422    95.86
timer:  rhoofd          581       0.171      99.422     0.87
timer:  CELLXC          581       5.461    3172.657    27.63
timer:  vmat            556       0.131      72.733     0.63
timer:  diagon          548       0.018       9.803     0.09
timer:  rdiag           548       0.012       6.407     0.06
timer:  DHSCF4           32       1.630      52.175     0.45
timer:  dfscf            32       1.327      42.457     0.37
  
>> End of run:   7-NOV-2013  16:54:43
