SIESTA 1.3.7  -- [1.3f1 release] (04 Feb 2004)
Architecture  : mpif90
Compiler flags:  -O3 -check bounds -fp-model strict
PARALLEL version

* Running on   64 nodes in parallel
>> Start of run:  17-JAN-2024  21:25:24

                           ***********************       
                           *  WELCOME TO SIESTA  *       
                           ***********************       

reinit: Reading from standard input
************************** Dump of input data file ****************************
SystemName                   IV          # Descriptive name of the system
SystemLabel                     IV               # Short name for naming files
NumberOfAtoms    178
NumberOfSpecies                 7               # Number of species
PAO.BasisType                   split
%block ChemicalSpeciesLabel
1 79 Au_bulk
2 7 N
3 6  C
4 1  H
5 79 Au
6 79 Au_surf
7 79 Au_tip
%endblock ChemicalSpeciesLabel
%block PAO.BasisSizes
C DZP
H DZP
N DZP
Au_surf DZP
Au_tip DZP
%endblock PAO.BasisSizes
%block PAO.Basis
  Au_bulk  2
n=6  0  1
6.500
1.00
n=5  2  1
5.850
1.00
  Au  2
n=6  0  1
6.500
1.00
n=5  2  1
5.850
1.00
%endblock PAO.Basis
LatticeConstant 1.000 Ang
%block LatticeVectors
   14.582     0.000   0.000        1
  0.000    8.866     0.000   1
  0.000   0.000    35.532  1
%endblock LatticeVectors
AtomicCoordinatesFormat Ang
%block AtomicCoordinatesAndAtomicSpecies
0.0 0.0 0.0 1 Au_bulk
0.0 2.955 0.0 1 Au_bulk
0.0 5.911 0.0 1 Au_bulk
2.956 0.0 0.0 1 Au_bulk
2.956 2.955 0.0 1 Au_bulk
2.956 5.911 0.0 1 Au_bulk
5.912 0.0 0.0 1 Au_bulk
5.912 2.955 0.0 1 Au_bulk
5.912 5.911 0.0 1 Au_bulk
8.67 0.0 0.0 1 Au_bulk
8.67 2.955 0.0 1 Au_bulk
8.67 5.911 0.0 1 Au_bulk
11.626 0.0 0.0 1 Au_bulk
11.626 2.955 0.0 1 Au_bulk
11.626 5.911 0.0 1 Au_bulk
1.478 1.478 2.09 1 Au_bulk
1.478 4.433 2.09 1 Au_bulk
1.478 7.389 2.09 1 Au_bulk
4.434 1.478 2.09 1 Au_bulk
4.434 4.433 2.09 1 Au_bulk
4.434 7.389 2.09 1 Au_bulk
7.192 1.478 2.09 1 Au_bulk
7.192 4.433 2.09 1 Au_bulk
7.192 7.389 2.09 1 Au_bulk
10.148 1.478 2.09 1 Au_bulk
10.148 4.433 2.09 1 Au_bulk
10.148 7.389 2.09 1 Au_bulk
13.104 1.478 2.09 1 Au_bulk
13.104 4.433 2.09 1 Au_bulk
13.104 7.389 2.09 1 Au_bulk
0.0 0.0 4.18 1 Au_bulk
0.0 2.955 4.18 1 Au_bulk
0.0 5.911 4.18 1 Au_bulk
2.956 0.0 4.18 1 Au_bulk
2.956 2.955 4.18 1 Au_bulk
2.956 5.911 4.18 1 Au_bulk
5.912 0.0 4.18 1 Au_bulk
5.912 2.955 4.18 1 Au_bulk
5.912 5.911 4.18 1 Au_bulk
8.67 0.0 4.18 1 Au_bulk
8.67 2.955 4.18 1 Au_bulk
8.67 5.911 4.18 1 Au_bulk
11.626 0.0 4.18 1 Au_bulk
11.626 2.955 4.18 1 Au_bulk
11.626 5.911 4.18 1 Au_bulk
1.478 1.478 6.27 1 Au_bulk
1.478 4.433 6.27 1 Au_bulk
1.478 7.389 6.27 1 Au_bulk
4.434 1.478 6.27 1 Au_bulk
4.434 4.433 6.27 1 Au_bulk
4.434 7.389 6.27 1 Au_bulk
7.192 1.478 6.27 1 Au_bulk
7.192 4.433 6.27 1 Au_bulk
7.192 7.389 6.27 1 Au_bulk
10.148 1.478 6.27 1 Au_bulk
10.148 4.433 6.27 1 Au_bulk
10.148 7.389 6.27 1 Au_bulk
13.104 1.478 6.27 1 Au_bulk
13.104 4.433 6.27 1 Au_bulk
13.104 7.389 6.27 1 Au_bulk
0.0 0.0 8.36 5 Au
0.0 2.955 8.36 5 Au
0.0 5.911 8.36 5 Au
2.956 0.0 8.36 5 Au
2.956 2.955 8.36 5 Au
2.956 5.911 8.36 5 Au
5.912 0.0 8.36 5 Au
5.912 2.955 8.36 5 Au
5.912 5.911 8.36 5 Au
8.67 0.0 8.36 5 Au
8.67 2.955 8.36 5 Au
8.67 5.911 8.36 5 Au
11.626 0.0 8.36 5 Au
11.626 2.955 8.36 5 Au
11.626 5.911 8.36 5 Au
1.478 1.478 10.45 6 Au_surf
1.478 4.433 10.45 6 Au_surf
1.478 7.389 10.45 6 Au_surf
4.434 1.478 10.45 6 Au_surf
4.434 4.433 10.45 6 Au_surf
4.434 7.389 10.45 6 Au_surf
7.192 1.478 10.45 6 Au_surf
7.192 4.433 10.45 6 Au_surf
7.192 7.389 10.45 6 Au_surf
10.148 1.478 10.45 6 Au_surf
10.148 4.433 10.45 6 Au_surf
10.148 7.389 10.45 6 Au_surf
13.104 1.478 10.45 6 Au_surf
13.104 4.433 10.45 6 Au_surf
13.104 7.389 10.45 6 Au_surf
4.855 5.911 12.032 2 N
9.528 5.913 12.034 2 N
7.192 5.934 12.04 2 N
10.3492 5.9231 12.6403 4 H
4.053 5.9162 12.6659 4 H
8.37 5.9345 12.7075 3 C
5.9985 5.9336 12.7551 3 C
8.302 5.9649 14.073 2 N
5.9283 5.9647 14.0992 2 N
9.1476 5.9243 14.638 4 H
7.0701 5.9964 14.8285 3 C
7.1637 5.9306 16.1178 2 N
7.2673 6.7195 16.742 4 H
1.478 1.478 23.082 5 Au
1.478 4.433 23.082 5 Au
1.478 7.389 23.082 5 Au
4.434 1.478 23.082 5 Au
4.434 4.433 23.082 5 Au
4.434 7.389 23.082 5 Au
7.192 1.478 23.082 5 Au
7.192 4.433 23.082 5 Au
7.192 7.389 23.082 5 Au
10.148 1.478 23.082 5 Au
10.148 4.433 23.082 5 Au
10.148 7.389 23.082 5 Au
13.104 1.478 23.082 5 Au
13.104 4.433 23.082 5 Au
13.104 7.389 23.082 5 Au
0.0 0.0 25.172 1 Au_bulk
0.0 2.955 25.172 1 Au_bulk
0.0 5.911 25.172 1 Au_bulk
2.956 0.0 25.172 1 Au_bulk
2.956 2.955 25.172 1 Au_bulk
2.956 5.911 25.172 1 Au_bulk
5.912 0.0 25.172 1 Au_bulk
5.912 2.955 25.172 1 Au_bulk
5.912 5.911 25.172 1 Au_bulk
8.67 0.0 25.172 1 Au_bulk
8.67 2.955 25.172 1 Au_bulk
8.67 5.911 25.172 1 Au_bulk
11.626 0.0 25.172 1 Au_bulk
11.626 2.955 25.172 1 Au_bulk
11.626 5.911 25.172 1 Au_bulk
1.478 1.478 27.262 1 Au_bulk
1.478 4.433 27.262 1 Au_bulk
1.478 7.389 27.262 1 Au_bulk
4.434 1.478 27.262 1 Au_bulk
4.434 4.433 27.262 1 Au_bulk
4.434 7.389 27.262 1 Au_bulk
7.192 1.478 27.262 1 Au_bulk
7.192 4.433 27.262 1 Au_bulk
7.192 7.389 27.262 1 Au_bulk
10.148 1.478 27.262 1 Au_bulk
10.148 4.433 27.262 1 Au_bulk
10.148 7.389 27.262 1 Au_bulk
13.104 1.478 27.262 1 Au_bulk
13.104 4.433 27.262 1 Au_bulk
13.104 7.389 27.262 1 Au_bulk
0.0 0.0 29.352 1 Au_bulk
0.0 2.955 29.352 1 Au_bulk
0.0 5.911 29.352 1 Au_bulk
2.956 0.0 29.352 1 Au_bulk
2.956 2.955 29.352 1 Au_bulk
2.956 5.911 29.352 1 Au_bulk
5.912 0.0 29.352 1 Au_bulk
5.912 2.955 29.352 1 Au_bulk
5.912 5.911 29.352 1 Au_bulk
8.67 0.0 29.352 1 Au_bulk
8.67 2.955 29.352 1 Au_bulk
8.67 5.911 29.352 1 Au_bulk
11.626 0.0 29.352 1 Au_bulk
11.626 2.955 29.352 1 Au_bulk
11.626 5.911 29.352 1 Au_bulk
1.478 1.478 31.442 1 Au_bulk
1.478 4.433 31.442 1 Au_bulk
1.478 7.389 31.442 1 Au_bulk
4.434 1.478 31.442 1 Au_bulk
4.434 4.433 31.442 1 Au_bulk
4.434 7.389 31.442 1 Au_bulk
7.192 1.478 31.442 1 Au_bulk
7.192 4.433 31.442 1 Au_bulk
7.192 7.389 31.442 1 Au_bulk
10.148 1.478 31.442 1 Au_bulk
10.148 4.433 31.442 1 Au_bulk
10.148 7.389 31.442 1 Au_bulk
13.104 1.478 31.442 1 Au_bulk
13.104 4.433 31.442 1 Au_bulk
13.104 7.389 31.442 1 Au_bulk
%endblock AtomicCoordinatesAndAtomicSpecies 	
%block kgrid_Monkhorst_Pack
  2   0   0     0.0
  0   4   0     0.0
  0   0   1     0.0
%endblock kgrid_Monkhorst_Pack
xc.functional		LDA		# 'LDA', 'GGA'
xc.authors 	 		CA		# 'CA'='PZ', 'PW92', 'PBE'
SpinPolarized			F		# 'T', 'F'		
#FixSpin           F
#TotalSpin        0.0
NonCollinearSpin		F		# 'T', 'F'
MeshCutoff 	 		    200 Ry		# Equivalent plane wave cutoff for the grid
MaxSCFIterations		500
DM.MixingWeight			0.1
DM.NumberPulay			4	# Pulay convergency accelerator
DM.MixSCF1			    T
MixHamiltonian      T
DM.PulayOnFile			F		# Store in memory ('F') or in files ('T')
#DM.NumberKick         30
#DM.KickMixingWeight   0.1
DM.Tolerance 		1.0E-4
NeglNonOverlapInt		F		# 'F'=do not neglect
SolutionMethod			diagon
ElectronicTemperature		300 K		# Default value
DM.UseSaveDM 			T
#MD.UseSaveXV			T
#MD.UseSaveCG			T
WriteForces      T
WriteCoorXmol			T		# Write Atoms coordinates
SaveElectrostaticPotential      T
#SaveHS				T		# Save the Hamiltonian and Overlap matrices
SaveRho				T		# Save the valence pseudocharge density
#SaveDeltaRho			T
#WriteDenchar			T		# Write Denchar output
WriteMullikenPop		0 #write mulliken population of aromic and orbital charges
#-----
#smeagol
#-----
# Perform a transport calculation
EMTransport              T
# Set number of energy points for integrals
NEnergReal               64
# Set bias range
VInitial             -2 eV
VFinal                2 eV
NIVPoints                8
# General variables
Delta                    1e-4
EnergLowestBound    -100.0 eV
# Print transmission coefficient
TrCoefficients           F
InitTransmRange      -10.0 eV
FinalTransmRange      10.0 eV
NTransmPoints            800
TRC.EMDOS                T
TRC.LeadsDOS             T
# Matching of Hartree potential with the leads
HartreeLeadsBottom  -15.36721897 eV
%block SaveBiasSteps
 0 1 2 3 4 5 6 7
%endblock SaveBiasSteps
************************** End of input data file *****************************

reinit: -----------------------------------------------------------------------
reinit: System Name: IV                                                         
reinit: -----------------------------------------------------------------------
reinit: System Label: IV                  
reinit: -----------------------------------------------------------------------

initatom: Reading input for the pseudopotentials and atomic orbitals ----------
 Species number:            1  Label: Au_bulk Atomic number:          79
 Species number:            2  Label: N Atomic number:           7
 Species number:            3  Label: C Atomic number:           6
 Species number:            4  Label: H Atomic number:           1
 Species number:            5  Label: Au Atomic number:          79
 Species number:            6  Label: Au_surf Atomic number:          79
 Species number:            7  Label: Au_tip Atomic number:          79
Ground state valence configuration:   6s01  5d10
Reading pseudopotential information in formatted form from Au_bulk.psf
Ground state valence configuration:   2s02  2p03
Reading pseudopotential information in formatted form from N.psf
Ground state valence configuration:   2s02  2p02
Reading pseudopotential information in formatted form from C.psf
Ground state valence configuration:   1s01
Reading pseudopotential information in formatted form from H.psf
Ground state valence configuration:   6s01  5d10
Reading pseudopotential information in formatted form from Au.psf
Ground state valence configuration:   6s01  5d10
Reading pseudopotential information in formatted form from Au_surf.psf
Ground state valence configuration:   6s01  5d10
Reading pseudopotential information in formatted form from Au_tip.psf
resizes: Read basis size for species C = dzp                 
resizes: Read basis size for species H = dzp                 
resizes: Read basis size for species N = dzp                 
resizes: Read basis size for species Au_surf = dzp                 
resizes: Read basis size for species Au_tip = dzp                 
For Au_bulk, standard SIESTA heuristics set lmxkb to 3
 (one more than the basis l, including polarization orbitals).
Use PS.lmax or PS.KBprojectors blocks to override.
 Warning: Empty PAO shell. l =           1
 Will have a KB projector anyway...
For N, standard SIESTA heuristics set lmxkb to 3
 (one more than the basis l, including polarization orbitals).
Use PS.lmax or PS.KBprojectors blocks to override.
For C, standard SIESTA heuristics set lmxkb to 3
 (one more than the basis l, including polarization orbitals).
Use PS.lmax or PS.KBprojectors blocks to override.
For H, standard SIESTA heuristics set lmxkb to 2
 (one more than the basis l, including polarization orbitals).
Use PS.lmax or PS.KBprojectors blocks to override.
For Au, standard SIESTA heuristics set lmxkb to 3
 (one more than the basis l, including polarization orbitals).
Use PS.lmax or PS.KBprojectors blocks to override.
 Warning: Empty PAO shell. l =           1
 Will have a KB projector anyway...
For Au_surf, standard SIESTA heuristics set lmxkb to 3
 (one more than the basis l, including polarization orbitals).
Use PS.lmax or PS.KBprojectors blocks to override.
For Au_tip, standard SIESTA heuristics set lmxkb to 3
 (one more than the basis l, including polarization orbitals).
Use PS.lmax or PS.KBprojectors blocks to override.

<basis_specs>
===============================================================================
Au_bulk              Z=  79    Mass=  196.97        Charge=  0.0000    
Lmxo=2 Lmxkb=3     BasisType=split      Semic=F
L=0  Nsemic=0  Cnfigmx=6
          n=1  nzeta=1  polorb=0
               vcte:    0.0000    
               rinn:    0.0000    
                rcs:    6.5000    
            lambdas:    1.0000    
L=1  Nsemic=0  Cnfigmx=6
L=2  Nsemic=0  Cnfigmx=5
          n=1  nzeta=1  polorb=0
               vcte:    0.0000    
               rinn:    0.0000    
                rcs:    5.8500    
            lambdas:    1.0000    
-------------------------------------------------------------------------------
L=0  Nkbl=1  erefs: 0.17977+309
L=1  Nkbl=1  erefs: 0.17977+309
L=2  Nkbl=1  erefs: 0.17977+309
L=3  Nkbl=1  erefs: 0.17977+309
===============================================================================
</basis_specs>

atom: Called for Au  (Z =  79)

read_vps: Pseudopotential generation method:
read_vps: ATM3      Troullier-Martins                       

read_vps: Pseudopotential generated from a relativistic atomic calculation
read_vps: There are spin-orbit pseudopotentials available

read_vps: Valence configuration (pseudopotential and basis set generation):
6s( 1.00) rc: 2.18
6p( 0.00) rc: 2.47
5d(10.00) rc: 1.79
5f( 0.00) rc: 2.00
Total valence charge:   11.00000

read_vps: Pseudopotential includes a core correction:
read_vps: Pseudo-core for xc-correction
comcore: Pseudo-core radius Rcore=  4.027091

xc_check: Exchange-correlation functional:
xc_check: Ceperley-Alder
V l=0 = -2*Zval/r beyond r=  2.9833
V l=1 = -2*Zval/r beyond r=  2.9833
V l=2 = -2*Zval/r beyond r=  2.9833
V l=3 = -2*Zval/r beyond r=  2.9833
All V_l potentials equal beyond r=  2.4425
This should be close to max(r_c) in ps generation
All pots = -2*Zval/r beyond r=  2.9833

VLOCAL1: 99.0% of the norm of Vloc inside      7.276 Ry
VLOCAL1: 99.9% of the norm of Vloc inside     16.582 Ry
atom: Maximum radius for 4*pi*r*r*local-pseudopot. charge    2.94627
atom: Maximum radius for r*vlocal+2*Zval:    2.60007
GHOST: No ghost state for L =  0
GHOST: No ghost state for L =  1
GHOST: No ghost state for L =  2
GHOST: No ghost state for L =  3

KBgen: Kleinman-Bylander projectors: 
   l= 0   rc=  3.175745   el= -0.445638   Ekb=  5.072790   kbcos=  0.276607
   l= 1   rc=  3.256140   el= -0.066324   Ekb=  2.703235   kbcos=  0.227171
   l= 2   rc=  3.020861   el= -0.526103   Ekb= -4.704026   kbcos= -0.643795
   l= 3   rc=  3.466145   el=  0.003438   Ekb= -2.516122   kbcos= -0.010529

KBgen: Total number of  Kleinman-Bylander projectors:   16
atom: -------------------------------------------------------------------------

atom: SANKEY-TYPE ORBITALS:

SPLIT: Orbitals with angular momentum L= 0

SPLIT: Basis orbitals for state 6s

   izeta = 1
                 lambda =    1.000000
                     rc =    6.557093
                 energy =   -0.435455
                kinetic =    0.389259
    potential(screened) =   -0.824714
       potential(ionic) =   -8.467175

SPLIT: Orbitals with angular momentum L= 2

SPLIT: Basis orbitals for state 5d

   izeta = 1
                 lambda =    1.000000
                     rc =    5.933100
                 energy =   -0.524775
                kinetic =    4.913203
    potential(screened) =   -5.437978
       potential(ionic) =  -15.883506
atom: Total number of Sankey-type orbitals:  6

atm_pop: Valence configuration(local Pseudopot. screening):
 6s( 1.00)                                                            
 6p( 0.00)                                                            
 5d(10.00)                                                            
Vna: chval, zval:   11.00000  11.00000

Vna:  Cut-off radius for the neutral-atom potential:   6.557093

atom: _________________________________________________________________________

<basis_specs>
===============================================================================
N                    Z=   7    Mass=  14.010        Charge=  0.0000    
Lmxo=1 Lmxkb=3     BasisType=split      Semic=F
L=0  Nsemic=0  Cnfigmx=2
          n=1  nzeta=2  polorb=0
               vcte:    0.0000    
               rinn:    0.0000    
                rcs:    0.0000      0.0000    
            lambdas:    1.0000      1.0000    
L=1  Nsemic=0  Cnfigmx=2
          n=1  nzeta=2  polorb=1
               vcte:    0.0000    
               rinn:    0.0000    
                rcs:    0.0000      0.0000    
            lambdas:    1.0000      1.0000    
-------------------------------------------------------------------------------
L=0  Nkbl=1  erefs: 0.17977+309
L=1  Nkbl=1  erefs: 0.17977+309
L=2  Nkbl=1  erefs: 0.17977+309
L=3  Nkbl=1  erefs: 0.17977+309
===============================================================================
</basis_specs>

atom: Called for N   (Z =   7)

read_vps: Pseudopotential generation method:
read_vps: ATM 3.2.2 Troullier-Martins                       

read_vps: Pseudopotential generated from a relativistic atomic calculation
read_vps: There are spin-orbit pseudopotentials available

read_vps: Valence configuration (pseudopotential and basis set generation):
2s( 2.00) rc: 1.14
2p( 3.00) rc: 1.14
3d( 0.00) rc: 1.14
4f( 0.00) rc: 1.14
Total valence charge:    5.00000

xc_check: Exchange-correlation functional:
xc_check: Ceperley-Alder
xc_check: WARNING: Pseudopotential generated with
xc_check: WARNING: GGA Perdew, Burke & Ernzerhof 1996 functional
V l=0 = -2*Zval/r beyond r=  1.2729
V l=1 = -2*Zval/r beyond r=  1.2889
V l=2 = -2*Zval/r beyond r=  1.2889
V l=3 = -2*Zval/r beyond r=  1.2889
All V_l potentials equal beyond r=  1.1233
This should be close to max(r_c) in ps generation
All pots = -2*Zval/r beyond r=  1.2889

VLOCAL1: 99.0% of the norm of Vloc inside     34.401 Ry
VLOCAL1: 99.9% of the norm of Vloc inside     78.401 Ry
atom: Maximum radius for 4*pi*r*r*local-pseudopot. charge    1.35504
atom: Maximum radius for r*vlocal+2*Zval:    1.18092
GHOST: No ghost state for L =  0
GHOST: No ghost state for L =  1
GHOST: No ghost state for L =  2
GHOST: No ghost state for L =  3

KBgen: Kleinman-Bylander projectors: 
   l= 0   rc=  1.460600   el= -1.344997   Ekb=  9.638631   kbcos=  0.297171
   l= 1   rc=  1.478977   el= -0.504850   Ekb= -6.415575   kbcos= -0.317314
   l= 2   rc=  1.634559   el=  0.002346   Ekb= -1.678090   kbcos= -0.003674
   l= 3   rc=  2.072839   el=  0.003449   Ekb= -0.793018   kbcos= -0.000316

KBgen: Total number of  Kleinman-Bylander projectors:   16
atom: -------------------------------------------------------------------------

atom: SANKEY-TYPE ORBITALS:
atom: Selected multiple-zeta basis: split     

SPLIT: Orbitals with angular momentum L= 0

SPLIT: Basis orbitals for state 2s

SPLIT: PAO cut-off radius determinated from an
SPLIT: energy shift=  0.020000 Ry

   izeta = 1
                 lambda =    1.000000
                     rc =    3.683980
                 energy =   -1.326370
                kinetic =    1.254647
    potential(screened) =   -2.581017
       potential(ionic) =   -8.161681

   izeta = 2
                 rmatch =    2.905100
              splitnorm =    0.150000
                 energy =   -1.124590
                kinetic =    1.923672
    potential(screened) =   -3.048262
       potential(ionic) =   -9.027318

SPLIT: Orbitals with angular momentum L= 1

SPLIT: Basis orbitals for state 2p

SPLIT: PAO cut-off radius determinated from an
SPLIT: energy shift=  0.020000 Ry

   izeta = 1
                 lambda =    1.000000
                     rc =    4.388595
                 energy =   -0.485851
                kinetic =    3.640453
    potential(screened) =   -4.126303
       potential(ionic) =   -9.541041

   izeta = 2
                 rmatch =    2.978652
              splitnorm =    0.150000
                 energy =   -0.267686
                kinetic =    5.503850
    potential(screened) =   -5.771536
       potential(ionic) =  -11.823923

POLgen: Perturbative polarization orbital with L=  2

POLgen: Polarization orbital for state 2p

   izeta = 1
                     rc =    4.388595
                 energy =    1.749403
                kinetic =    3.466240
    potential(screened) =   -1.716837
       potential(ionic) =   -6.139475
atom: Total number of Sankey-type orbitals: 13

atm_pop: Valence configuration(local Pseudopot. screening):
 2s( 2.00)                                                            
 2p( 3.00)                                                            
Vna: chval, zval:    5.00000   5.00000

Vna:  Cut-off radius for the neutral-atom potential:   4.388595

atom: _________________________________________________________________________

<basis_specs>
===============================================================================
C                    Z=   6    Mass=  12.010        Charge=  0.0000    
Lmxo=1 Lmxkb=3     BasisType=split      Semic=F
L=0  Nsemic=0  Cnfigmx=2
          n=1  nzeta=2  polorb=0
               vcte:    0.0000    
               rinn:    0.0000    
                rcs:    0.0000      0.0000    
            lambdas:    1.0000      1.0000    
L=1  Nsemic=0  Cnfigmx=2
          n=1  nzeta=2  polorb=1
               vcte:    0.0000    
               rinn:    0.0000    
                rcs:    0.0000      0.0000    
            lambdas:    1.0000      1.0000    
-------------------------------------------------------------------------------
L=0  Nkbl=1  erefs: 0.17977+309
L=1  Nkbl=1  erefs: 0.17977+309
L=2  Nkbl=1  erefs: 0.17977+309
L=3  Nkbl=1  erefs: 0.17977+309
===============================================================================
</basis_specs>

atom: Called for C   (Z =   6)

read_vps: Pseudopotential generation method:
read_vps: ATM3      Troullier-Martins                       

read_vps: Valence configuration (pseudopotential and basis set generation):
2s( 2.00) rc: 1.25
2p( 2.00) rc: 1.25
3d( 0.00) rc: 1.25
4f( 0.00) rc: 1.25
read_vps: Spin-orbit interaction is not included in this calculation
Total valence charge:    4.00000

xc_check: Exchange-correlation functional:
xc_check: Ceperley-Alder
V l=0 = -2*Zval/r beyond r=  1.3951
V l=1 = -2*Zval/r beyond r=  1.3777
V l=2 = -2*Zval/r beyond r=  1.3777
V l=3 = -2*Zval/r beyond r=  1.3777
All V_l potentials equal beyond r=  1.2311
This should be close to max(r_c) in ps generation
All pots = -2*Zval/r beyond r=  1.3951

VLOCAL1: 99.0% of the norm of Vloc inside     28.641 Ry
VLOCAL1: 99.9% of the norm of Vloc inside     65.273 Ry
atom: Maximum radius for 4*pi*r*r*local-pseudopot. charge    1.48507
atom: Maximum radius for r*vlocal+2*Zval:    1.27815
GHOST: No ghost state for L =  0
GHOST: No ghost state for L =  1
GHOST: No ghost state for L =  2
GHOST: No ghost state for L =  3

KBgen: Kleinman-Bylander projectors: 
   l= 0   rc=  1.600766   el= -1.001946   Ekb=  7.816946   kbcos=  0.279978
   l= 1   rc=  1.620907   el= -0.398597   Ekb= -4.829535   kbcos= -0.287433
   l= 2   rc=  1.836783   el=  0.002326   Ekb= -1.327964   kbcos= -0.005365
   l= 3   rc=  1.979871   el=  0.003420   Ekb= -0.522285   kbcos= -0.000569

KBgen: Total number of  Kleinman-Bylander projectors:   16
atom: -------------------------------------------------------------------------

atom: SANKEY-TYPE ORBITALS:
atom: Selected multiple-zeta basis: split     

SPLIT: Orbitals with angular momentum L= 0

SPLIT: Basis orbitals for state 2s

SPLIT: PAO cut-off radius determinated from an
SPLIT: energy shift=  0.020000 Ry

   izeta = 1
                 lambda =    1.000000
                     rc =    4.191849
                 energy =   -0.983900
                kinetic =    0.918801
    potential(screened) =   -1.902702
       potential(ionic) =   -5.506899

   izeta = 2
                 rmatch =    3.431921
              splitnorm =    0.150000
                 energy =   -0.849361
                kinetic =    1.377262
    potential(screened) =   -2.226623
       potential(ionic) =   -6.060758

SPLIT: Orbitals with angular momentum L= 1

SPLIT: Basis orbitals for state 2p

SPLIT: PAO cut-off radius determinated from an
SPLIT: energy shift=  0.020000 Ry

   izeta = 1
                 lambda =    1.000000
                     rc =    4.870301
                 energy =   -0.379088
                kinetic =    2.614064
    potential(screened) =   -2.993152
       potential(ionic) =   -6.506293

   izeta = 2
                 rmatch =    3.475094
              splitnorm =    0.150000
                 energy =   -0.215528
                kinetic =    3.940460
    potential(screened) =   -4.155988
       potential(ionic) =   -8.054000

POLgen: Perturbative polarization orbital with L=  2

POLgen: Polarization orbital for state 2p

   izeta = 1
                     rc =    4.870301
                 energy =    1.279486
                kinetic =    2.608016
    potential(screened) =   -1.328529
       potential(ionic) =   -4.267494
atom: Total number of Sankey-type orbitals: 13

atm_pop: Valence configuration(local Pseudopot. screening):
 2s( 2.00)                                                            
 2p( 2.00)                                                            
Vna: chval, zval:    4.00000   4.00000

Vna:  Cut-off radius for the neutral-atom potential:   4.870301

atom: _________________________________________________________________________

<basis_specs>
===============================================================================
H                    Z=   1    Mass=  1.0100        Charge=  0.0000    
Lmxo=0 Lmxkb=2     BasisType=split      Semic=F
L=0  Nsemic=0  Cnfigmx=1
          n=1  nzeta=2  polorb=1
               vcte:    0.0000    
               rinn:    0.0000    
                rcs:    0.0000      0.0000    
            lambdas:    1.0000      1.0000    
-------------------------------------------------------------------------------
L=0  Nkbl=1  erefs: 0.17977+309
L=1  Nkbl=1  erefs: 0.17977+309
L=2  Nkbl=1  erefs: 0.17977+309
===============================================================================
</basis_specs>

atom: Called for H   (Z =   1)

read_vps: Pseudopotential generation method:
read_vps: ATM3      Troullier-Martins                       

read_vps: Valence configuration (pseudopotential and basis set generation):
1s( 1.00) rc: 1.25
2p( 0.00) rc: 1.25
3d( 0.00) rc: 1.25
read_vps: Spin-orbit interaction is not included in this calculation
Total valence charge:    1.00000

xc_check: Exchange-correlation functional:
xc_check: Ceperley-Alder
V l=0 = -2*Zval/r beyond r=  1.2343
V l=1 = -2*Zval/r beyond r=  1.2189
V l=2 = -2*Zval/r beyond r=  1.2189
All V_l potentials equal beyond r=  1.2343
This should be close to max(r_c) in ps generation
All pots = -2*Zval/r beyond r=  1.2343

VLOCAL1: 99.0% of the norm of Vloc inside     28.493 Ry
VLOCAL1: 99.9% of the norm of Vloc inside     64.935 Ry
atom: Maximum radius for 4*pi*r*r*local-pseudopot. charge    1.45251
atom: Maximum radius for r*vlocal+2*Zval:    1.21892
GHOST: No ghost state for L =  0
GHOST: No ghost state for L =  1
GHOST: No ghost state for L =  2

KBgen: Kleinman-Bylander projectors: 
   l= 0   rc=  1.364359   el= -0.467325   Ekb= -2.005361   kbcos= -0.336422
   l= 1   rc=  1.434438   el=  0.001430   Ekb= -0.501708   kbcos= -0.021697
   l= 2   rc=  1.470814   el=  0.002365   Ekb= -0.190555   kbcos= -0.002281

KBgen: Total number of  Kleinman-Bylander projectors:    9
atom: -------------------------------------------------------------------------

atom: SANKEY-TYPE ORBITALS:
atom: Selected multiple-zeta basis: split     

SPLIT: Orbitals with angular momentum L= 0

SPLIT: Basis orbitals for state 1s

SPLIT: PAO cut-off radius determinated from an
SPLIT: energy shift=  0.020000 Ry

   izeta = 1
                 lambda =    1.000000
                     rc =    4.828263
                 energy =   -0.449375
                kinetic =    0.929372
    potential(screened) =   -1.378747
       potential(ionic) =   -1.915047

   izeta = 2
                 rmatch =    3.854947
              splitnorm =    0.150000
                 energy =   -0.335649
                kinetic =    1.505971
    potential(screened) =   -1.841620
       potential(ionic) =   -2.413776

POLgen: Perturbative polarization orbital with L=  1

POLgen: Polarization orbital for state 1s

   izeta = 1
                     rc =    4.828263
                 energy =    0.706972
                kinetic =    1.396397
    potential(screened) =   -0.689424
       potential(ionic) =   -1.169792
atom: Total number of Sankey-type orbitals:  5

atm_pop: Valence configuration(local Pseudopot. screening):
 1s( 1.00)                                                            
Vna: chval, zval:    1.00000   1.00000

Vna:  Cut-off radius for the neutral-atom potential:   4.828263

atom: _________________________________________________________________________

<basis_specs>
===============================================================================
Au                   Z=  79    Mass=  196.97        Charge=  0.0000    
Lmxo=2 Lmxkb=3     BasisType=split      Semic=F
L=0  Nsemic=0  Cnfigmx=6
          n=1  nzeta=1  polorb=0
               vcte:    0.0000    
               rinn:    0.0000    
                rcs:    6.5000    
            lambdas:    1.0000    
L=1  Nsemic=0  Cnfigmx=6
L=2  Nsemic=0  Cnfigmx=5
          n=1  nzeta=1  polorb=0
               vcte:    0.0000    
               rinn:    0.0000    
                rcs:    5.8500    
            lambdas:    1.0000    
-------------------------------------------------------------------------------
L=0  Nkbl=1  erefs: 0.17977+309
L=1  Nkbl=1  erefs: 0.17977+309
L=2  Nkbl=1  erefs: 0.17977+309
L=3  Nkbl=1  erefs: 0.17977+309
===============================================================================
</basis_specs>

atom: Called for Au  (Z =  79)

read_vps: Pseudopotential generation method:
read_vps: ATM3      Troullier-Martins                       

read_vps: Pseudopotential generated from a relativistic atomic calculation
read_vps: There are spin-orbit pseudopotentials available

read_vps: Valence configuration (pseudopotential and basis set generation):
6s( 1.00) rc: 2.18
6p( 0.00) rc: 2.47
5d(10.00) rc: 1.79
5f( 0.00) rc: 2.00
Total valence charge:   11.00000

read_vps: Pseudopotential includes a core correction:
read_vps: Pseudo-core for xc-correction
comcore: Pseudo-core radius Rcore=  4.027091

xc_check: Exchange-correlation functional:
xc_check: Ceperley-Alder
V l=0 = -2*Zval/r beyond r=  2.9833
V l=1 = -2*Zval/r beyond r=  2.9833
V l=2 = -2*Zval/r beyond r=  2.9833
V l=3 = -2*Zval/r beyond r=  2.9833
All V_l potentials equal beyond r=  2.4425
This should be close to max(r_c) in ps generation
All pots = -2*Zval/r beyond r=  2.9833

VLOCAL1: 99.0% of the norm of Vloc inside      7.276 Ry
VLOCAL1: 99.9% of the norm of Vloc inside     16.582 Ry
atom: Maximum radius for 4*pi*r*r*local-pseudopot. charge    2.94627
atom: Maximum radius for r*vlocal+2*Zval:    2.60007
GHOST: No ghost state for L =  0
GHOST: No ghost state for L =  1
GHOST: No ghost state for L =  2
GHOST: No ghost state for L =  3

KBgen: Kleinman-Bylander projectors: 
   l= 0   rc=  3.175745   el= -0.445638   Ekb=  5.072790   kbcos=  0.276607
   l= 1   rc=  3.256140   el= -0.066324   Ekb=  2.703235   kbcos=  0.227171
   l= 2   rc=  3.020861   el= -0.526103   Ekb= -4.704026   kbcos= -0.643795
   l= 3   rc=  3.466145   el=  0.003438   Ekb= -2.516122   kbcos= -0.010529

KBgen: Total number of  Kleinman-Bylander projectors:   16
atom: -------------------------------------------------------------------------

atom: SANKEY-TYPE ORBITALS:

SPLIT: Orbitals with angular momentum L= 0

SPLIT: Basis orbitals for state 6s

   izeta = 1
                 lambda =    1.000000
                     rc =    6.557093
                 energy =   -0.435455
                kinetic =    0.389259
    potential(screened) =   -0.824714
       potential(ionic) =   -8.467175

SPLIT: Orbitals with angular momentum L= 2

SPLIT: Basis orbitals for state 5d

   izeta = 1
                 lambda =    1.000000
                     rc =    5.933100
                 energy =   -0.524775
                kinetic =    4.913203
    potential(screened) =   -5.437978
       potential(ionic) =  -15.883506
atom: Total number of Sankey-type orbitals:  6

atm_pop: Valence configuration(local Pseudopot. screening):
 6s( 1.00)                                                            
 6p( 0.00)                                                            
 5d(10.00)                                                            
Vna: chval, zval:   11.00000  11.00000

Vna:  Cut-off radius for the neutral-atom potential:   6.557093

atom: _________________________________________________________________________

<basis_specs>
===============================================================================
Au_surf              Z=  79    Mass=  196.97        Charge=  0.0000    
Lmxo=2 Lmxkb=3     BasisType=split      Semic=F
L=0  Nsemic=0  Cnfigmx=6
          n=1  nzeta=2  polorb=1
               vcte:    0.0000    
               rinn:    0.0000    
                rcs:    0.0000      0.0000    
            lambdas:    1.0000      1.0000    
L=1  Nsemic=0  Cnfigmx=6
L=2  Nsemic=0  Cnfigmx=5
          n=1  nzeta=2  polorb=0
               vcte:    0.0000    
               rinn:    0.0000    
                rcs:    0.0000      0.0000    
            lambdas:    1.0000      1.0000    
-------------------------------------------------------------------------------
L=0  Nkbl=1  erefs: 0.17977+309
L=1  Nkbl=1  erefs: 0.17977+309
L=2  Nkbl=1  erefs: 0.17977+309
L=3  Nkbl=1  erefs: 0.17977+309
===============================================================================
</basis_specs>

atom: Called for Au  (Z =  79)

read_vps: Pseudopotential generation method:
read_vps: ATM3      Troullier-Martins                       

read_vps: Pseudopotential generated from a relativistic atomic calculation
read_vps: There are spin-orbit pseudopotentials available

read_vps: Valence configuration (pseudopotential and basis set generation):
6s( 1.00) rc: 2.18
6p( 0.00) rc: 2.47
5d(10.00) rc: 1.79
5f( 0.00) rc: 2.00
Total valence charge:   11.00000

read_vps: Pseudopotential includes a core correction:
read_vps: Pseudo-core for xc-correction
comcore: Pseudo-core radius Rcore=  4.027091

xc_check: Exchange-correlation functional:
xc_check: Ceperley-Alder
V l=0 = -2*Zval/r beyond r=  2.9833
V l=1 = -2*Zval/r beyond r=  2.9833
V l=2 = -2*Zval/r beyond r=  2.9833
V l=3 = -2*Zval/r beyond r=  2.9833
All V_l potentials equal beyond r=  2.4425
This should be close to max(r_c) in ps generation
All pots = -2*Zval/r beyond r=  2.9833

VLOCAL1: 99.0% of the norm of Vloc inside      7.276 Ry
VLOCAL1: 99.9% of the norm of Vloc inside     16.582 Ry
atom: Maximum radius for 4*pi*r*r*local-pseudopot. charge    2.94627
atom: Maximum radius for r*vlocal+2*Zval:    2.60007
GHOST: No ghost state for L =  0
GHOST: No ghost state for L =  1
GHOST: No ghost state for L =  2
GHOST: No ghost state for L =  3

KBgen: Kleinman-Bylander projectors: 
   l= 0   rc=  3.175745   el= -0.445638   Ekb=  5.072790   kbcos=  0.276607
   l= 1   rc=  3.256140   el= -0.066324   Ekb=  2.703235   kbcos=  0.227171
   l= 2   rc=  3.020861   el= -0.526103   Ekb= -4.704026   kbcos= -0.643795
   l= 3   rc=  3.466145   el=  0.003438   Ekb= -2.516122   kbcos= -0.010529

KBgen: Total number of  Kleinman-Bylander projectors:   16
atom: -------------------------------------------------------------------------

atom: SANKEY-TYPE ORBITALS:
atom: Selected multiple-zeta basis: split     

SPLIT: Orbitals with angular momentum L= 0

SPLIT: Basis orbitals for state 6s

SPLIT: PAO cut-off radius determinated from an
SPLIT: energy shift=  0.020000 Ry

   izeta = 1
                 lambda =    1.000000
                     rc =    6.083298
                 energy =   -0.427281
                kinetic =    0.413324
    potential(screened) =   -0.840605
       potential(ionic) =   -8.569369

   izeta = 2
                 rmatch =    5.643738
              splitnorm =    0.150000
                 energy =   -0.356838
                kinetic =    0.642757
    potential(screened) =   -0.999595
       potential(ionic) =   -9.161462

SPLIT: Orbitals with angular momentum L= 2

SPLIT: Basis orbitals for state 5d

SPLIT: PAO cut-off radius determinated from an
SPLIT: energy shift=  0.020000 Ry

   izeta = 1
                 lambda =    1.000000
                     rc =    4.286818
                 energy =   -0.507846
                kinetic =    5.140097
    potential(screened) =   -5.647943
       potential(ionic) =  -16.260097

   izeta = 2
                 rmatch =    2.802581
              splitnorm =    0.150000
                 energy =   -0.214101
                kinetic =    7.126928
    potential(screened) =   -7.341029
       potential(ionic) =  -18.741832

POLgen: Perturbative polarization orbital with L=  1

POLgen: Polarization orbital for state 6s

   izeta = 1
                     rc =    6.083298
                 energy =   -0.072727
                kinetic =    0.732634
    potential(screened) =   -0.805360
       potential(ionic) =   -8.142092
atom: Total number of Sankey-type orbitals: 15

atm_pop: Valence configuration(local Pseudopot. screening):
 6s( 1.00)                                                            
 6p( 0.00)                                                            
 5d(10.00)                                                            
Vna: chval, zval:   11.00000  11.00000

Vna:  Cut-off radius for the neutral-atom potential:   6.083298

atom: _________________________________________________________________________

<basis_specs>
===============================================================================
Au_tip               Z=  79    Mass=  196.97        Charge=  0.0000    
Lmxo=2 Lmxkb=3     BasisType=split      Semic=F
L=0  Nsemic=0  Cnfigmx=6
          n=1  nzeta=2  polorb=1
               vcte:    0.0000    
               rinn:    0.0000    
                rcs:    0.0000      0.0000    
            lambdas:    1.0000      1.0000    
L=1  Nsemic=0  Cnfigmx=6
L=2  Nsemic=0  Cnfigmx=5
          n=1  nzeta=2  polorb=0
               vcte:    0.0000    
               rinn:    0.0000    
                rcs:    0.0000      0.0000    
            lambdas:    1.0000      1.0000    
-------------------------------------------------------------------------------
L=0  Nkbl=1  erefs: 0.17977+309
L=1  Nkbl=1  erefs: 0.17977+309
L=2  Nkbl=1  erefs: 0.17977+309
L=3  Nkbl=1  erefs: 0.17977+309
===============================================================================
</basis_specs>

atom: Called for Au  (Z =  79)

read_vps: Pseudopotential generation method:
read_vps: ATM3      Troullier-Martins                       

read_vps: Pseudopotential generated from a relativistic atomic calculation
read_vps: There are spin-orbit pseudopotentials available

read_vps: Valence configuration (pseudopotential and basis set generation):
6s( 1.00) rc: 2.18
6p( 0.00) rc: 2.47
5d(10.00) rc: 1.79
5f( 0.00) rc: 2.00
Total valence charge:   11.00000

read_vps: Pseudopotential includes a core correction:
read_vps: Pseudo-core for xc-correction
comcore: Pseudo-core radius Rcore=  4.027091

xc_check: Exchange-correlation functional:
xc_check: Ceperley-Alder
V l=0 = -2*Zval/r beyond r=  2.9833
V l=1 = -2*Zval/r beyond r=  2.9833
V l=2 = -2*Zval/r beyond r=  2.9833
V l=3 = -2*Zval/r beyond r=  2.9833
All V_l potentials equal beyond r=  2.4425
This should be close to max(r_c) in ps generation
All pots = -2*Zval/r beyond r=  2.9833

VLOCAL1: 99.0% of the norm of Vloc inside      7.276 Ry
VLOCAL1: 99.9% of the norm of Vloc inside     16.582 Ry
atom: Maximum radius for 4*pi*r*r*local-pseudopot. charge    2.94627
atom: Maximum radius for r*vlocal+2*Zval:    2.60007
GHOST: No ghost state for L =  0
GHOST: No ghost state for L =  1
GHOST: No ghost state for L =  2
GHOST: No ghost state for L =  3

KBgen: Kleinman-Bylander projectors: 
   l= 0   rc=  3.175745   el= -0.445638   Ekb=  5.072790   kbcos=  0.276607
   l= 1   rc=  3.256140   el= -0.066324   Ekb=  2.703235   kbcos=  0.227171
   l= 2   rc=  3.020861   el= -0.526103   Ekb= -4.704026   kbcos= -0.643795
   l= 3   rc=  3.466145   el=  0.003438   Ekb= -2.516122   kbcos= -0.010529

KBgen: Total number of  Kleinman-Bylander projectors:   16
atom: -------------------------------------------------------------------------

atom: SANKEY-TYPE ORBITALS:
atom: Selected multiple-zeta basis: split     

SPLIT: Orbitals with angular momentum L= 0

SPLIT: Basis orbitals for state 6s

SPLIT: PAO cut-off radius determinated from an
SPLIT: energy shift=  0.020000 Ry

   izeta = 1
                 lambda =    1.000000
                     rc =    6.083298
                 energy =   -0.427281
                kinetic =    0.413324
    potential(screened) =   -0.840605
       potential(ionic) =   -8.569369

   izeta = 2
                 rmatch =    5.643738
              splitnorm =    0.150000
                 energy =   -0.356838
                kinetic =    0.642757
    potential(screened) =   -0.999595
       potential(ionic) =   -9.161462

SPLIT: Orbitals with angular momentum L= 2

SPLIT: Basis orbitals for state 5d

SPLIT: PAO cut-off radius determinated from an
SPLIT: energy shift=  0.020000 Ry

   izeta = 1
                 lambda =    1.000000
                     rc =    4.286818
                 energy =   -0.507846
                kinetic =    5.140097
    potential(screened) =   -5.647943
       potential(ionic) =  -16.260097

   izeta = 2
                 rmatch =    2.802581
              splitnorm =    0.150000
                 energy =   -0.214101
                kinetic =    7.126928
    potential(screened) =   -7.341029
       potential(ionic) =  -18.741832

POLgen: Perturbative polarization orbital with L=  1

POLgen: Polarization orbital for state 6s

   izeta = 1
                     rc =    6.083298
                 energy =   -0.072727
                kinetic =    0.732634
    potential(screened) =   -0.805360
       potential(ionic) =   -8.142092
atom: Total number of Sankey-type orbitals: 15

atm_pop: Valence configuration(local Pseudopot. screening):
 6s( 1.00)                                                            
 6p( 0.00)                                                            
 5d(10.00)                                                            
Vna: chval, zval:   11.00000  11.00000

Vna:  Cut-off radius for the neutral-atom potential:   6.083298

atom: _________________________________________________________________________

prinput: Basis input ----------------------------------------------------------

PAO.BasisType split     

%block ChemicalSpeciesLabel
    1   79 Au_bulk                 # Species index, atomic number, species label
    2    7 N                       # Species index, atomic number, species label
    3    6 C                       # Species index, atomic number, species label
    4    1 H                       # Species index, atomic number, species label
    5   79 Au                      # Species index, atomic number, species label
    6   79 Au_surf                 # Species index, atomic number, species label
    7   79 Au_tip                  # Species index, atomic number, species label
%endblock ChemicalSpeciesLabel

%block PAO.Basis                 # Define Basis set
Au_bulk     2                    # Species label, number of l-shells
 n=6   0   1                         # n, l, Nzeta 
   6.557   
   1.000   
 n=5   2   1                         # n, l, Nzeta 
   5.933   
   1.000   
N           2                    # Species label, number of l-shells
 n=2   0   2                         # n, l, Nzeta 
   3.684      2.905   
   1.000      1.000   
 n=2   1   2 P   1                   # n, l, Nzeta, Polarization, NzetaPol
   4.389      2.979   
   1.000      1.000   
C           2                    # Species label, number of l-shells
 n=2   0   2                         # n, l, Nzeta 
   4.192      3.432   
   1.000      1.000   
 n=2   1   2 P   1                   # n, l, Nzeta, Polarization, NzetaPol
   4.870      3.475   
   1.000      1.000   
H           1                    # Species label, number of l-shells
 n=1   0   2 P   1                   # n, l, Nzeta, Polarization, NzetaPol
   4.828      3.855   
   1.000      1.000   
Au          2                    # Species label, number of l-shells
 n=6   0   1                         # n, l, Nzeta 
   6.557   
   1.000   
 n=5   2   1                         # n, l, Nzeta 
   5.933   
   1.000   
Au_surf     2                    # Species label, number of l-shells
 n=6   0   2 P   1                   # n, l, Nzeta, Polarization, NzetaPol
   6.083      5.644   
   1.000      1.000   
 n=5   2   2                         # n, l, Nzeta 
   4.287      2.803   
   1.000      1.000   
Au_tip      2                    # Species label, number of l-shells
 n=6   0   2 P   1                   # n, l, Nzeta, Polarization, NzetaPol
   6.083      5.644   
   1.000      1.000   
 n=5   2   2                         # n, l, Nzeta 
   4.287      2.803   
   1.000      1.000   
%endblock PAO.Basis

prinput: ----------------------------------------------------------------------


siesta: ******************** Simulation parameters ****************************
siesta:
siesta: The following are some of the parameters of the simulation.
siesta: A complete list of the parameters used, including defect values,
siesta: can be found in file out.fdf
siesta:
coor:   Atomic-coordinates input format  =     Cartesian coordinates
coor:                                          (in Angstroms)
redata: Number of spin components        =     1
redata: SpinOrbit                        =     0
redata: Long output                      =     F
redata: Number of Atomic Species         =     7
redata: Charge density info will appear in .RHO file
redata: Write Mulliken Pop.              =     NO
redata: Write Hamilton Pop.              =     NO
redata: Mesh Cutoff                      =   200.0000  Ry
redata: Net charge of the system         =     0.0000 |e|
redata: Max. number of SCF Iter          =   500
redata: One Pulay mixing every           =     4 iterations
redata: Mix DM in first SCF step ?       =     T
redata: Write Pulay info on disk?        =     F
redata: New DM Mixing Weight             =     0.1000
redata: No kicks to SCF
redata: DM Mixing Weight for Kicks       =     0.5000
redata: DM Tolerance for SCF             =     0.000100
redata: Use continuation files for DM    =     T
redata: Neglect nonoverlap interactions  =     F
redata: Method of Calculation            =     Diagonalization
redata: Divide and Conquer               =     F
redata: Electronic Temperature           =     0.0019  Ry
redata: Fix the spin of the system       =     F
redata: Dynamics option                  =     CG coord. optimization
redata: Variable cell                    =     F
redata: Use continuation files for CG    =     F
redata: Maximum number of CG moves       =     0
redata: Max atomic displ per move        =     0.2000  Bohr
redata: Force tolerance                  =     0.0016  Ry/Bohr
redata: ***********************************************************************

siesta: Atomic coordinates (Bohr) and species
siesta:      0.00000   0.00000   0.00000  1        1
siesta:      0.00000   5.58414   0.00000  1        2
siesta:      0.00000  11.17018   0.00000  1        3
siesta:      5.58603   0.00000   0.00000  1        4
siesta:      5.58603   5.58414   0.00000  1        5
siesta:      5.58603  11.17018   0.00000  1        6
siesta:     11.17207   0.00000   0.00000  1        7
siesta:     11.17207   5.58414   0.00000  1        8
siesta:     11.17207  11.17018   0.00000  1        9
siesta:     16.38393   0.00000   0.00000  1       10
siesta:     16.38393   5.58414   0.00000  1       11
siesta:     16.38393  11.17018   0.00000  1       12
siesta:     21.96996   0.00000   0.00000  1       13
siesta:     21.96996   5.58414   0.00000  1       14
siesta:     21.96996  11.17018   0.00000  1       15
siesta:      2.79302   2.79302   3.94953  1       16
siesta:      2.79302   8.37716   3.94953  1       17
siesta:      2.79302  13.96319   3.94953  1       18
siesta:      8.37905   2.79302   3.94953  1       19
siesta:      8.37905   8.37716   3.94953  1       20
siesta:      8.37905  13.96319   3.94953  1       21
siesta:     13.59092   2.79302   3.94953  1       22
siesta:     13.59092   8.37716   3.94953  1       23
siesta:     13.59092  13.96319   3.94953  1       24
siesta:     19.17695   2.79302   3.94953  1       25
siesta:     19.17695   8.37716   3.94953  1       26
siesta:     19.17695  13.96319   3.94953  1       27
siesta:     24.76298   2.79302   3.94953  1       28
siesta:     24.76298   8.37716   3.94953  1       29
siesta:     24.76298  13.96319   3.94953  1       30
siesta:      0.00000   0.00000   7.89906  1       31
siesta:      0.00000   5.58414   7.89906  1       32
siesta:      0.00000  11.17018   7.89906  1       33
siesta:      5.58603   0.00000   7.89906  1       34
siesta:      5.58603   5.58414   7.89906  1       35
siesta:      5.58603  11.17018   7.89906  1       36
siesta:     11.17207   0.00000   7.89906  1       37
siesta:     11.17207   5.58414   7.89906  1       38
siesta:     11.17207  11.17018   7.89906  1       39
siesta:     16.38393   0.00000   7.89906  1       40
siesta:     16.38393   5.58414   7.89906  1       41
siesta:     16.38393  11.17018   7.89906  1       42
siesta:     21.96996   0.00000   7.89906  1       43
siesta:     21.96996   5.58414   7.89906  1       44
siesta:     21.96996  11.17018   7.89906  1       45
siesta:      2.79302   2.79302  11.84859  1       46
siesta:      2.79302   8.37716  11.84859  1       47
siesta:      2.79302  13.96319  11.84859  1       48
siesta:      8.37905   2.79302  11.84859  1       49
siesta:      8.37905   8.37716  11.84859  1       50
siesta:      8.37905  13.96319  11.84859  1       51
siesta:     13.59092   2.79302  11.84859  1       52
siesta:     13.59092   8.37716  11.84859  1       53
siesta:     13.59092  13.96319  11.84859  1       54
siesta:     19.17695   2.79302  11.84859  1       55
siesta:     19.17695   8.37716  11.84859  1       56
siesta:     19.17695  13.96319  11.84859  1       57
siesta:     24.76298   2.79302  11.84859  1       58
siesta:     24.76298   8.37716  11.84859  1       59
siesta:     24.76298  13.96319  11.84859  1       60
siesta:      0.00000   0.00000  15.79812  5       61
siesta:      0.00000   5.58414  15.79812  5       62
siesta:      0.00000  11.17018  15.79812  5       63
siesta:      5.58603   0.00000  15.79812  5       64
siesta:      5.58603   5.58414  15.79812  5       65
siesta:      5.58603  11.17018  15.79812  5       66
siesta:     11.17207   0.00000  15.79812  5       67
siesta:     11.17207   5.58414  15.79812  5       68
siesta:     11.17207  11.17018  15.79812  5       69
siesta:     16.38393   0.00000  15.79812  5       70
siesta:     16.38393   5.58414  15.79812  5       71
siesta:     16.38393  11.17018  15.79812  5       72
siesta:     21.96996   0.00000  15.79812  5       73
siesta:     21.96996   5.58414  15.79812  5       74
siesta:     21.96996  11.17018  15.79812  5       75
siesta:      2.79302   2.79302  19.74765  6       76
siesta:      2.79302   8.37716  19.74765  6       77
siesta:      2.79302  13.96319  19.74765  6       78
siesta:      8.37905   2.79302  19.74765  6       79
siesta:      8.37905   8.37716  19.74765  6       80
siesta:      8.37905  13.96319  19.74765  6       81
siesta:     13.59092   2.79302  19.74765  6       82
siesta:     13.59092   8.37716  19.74765  6       83
siesta:     13.59092  13.96319  19.74765  6       84
siesta:     19.17695   2.79302  19.74765  6       85
siesta:     19.17695   8.37716  19.74765  6       86
siesta:     19.17695  13.96319  19.74765  6       87
siesta:     24.76298   2.79302  19.74765  6       88
siesta:     24.76298   8.37716  19.74765  6       89
siesta:     24.76298  13.96319  19.74765  6       90
siesta:      9.17462  11.17018  22.73719  2       91
siesta:     18.00532  11.17396  22.74097  2       92
siesta:     13.59092  11.21364  22.75231  2       93
siesta:     19.55716  11.19304  23.88671  4       94
siesta:      7.65906  11.18000  23.93509  4       95
siesta:     15.81701  11.21458  24.01370  3       96
siesta:     11.33553  11.21288  24.10366  3       97
siesta:     15.68851  11.27203  26.59413  2       98
siesta:     11.20287  11.27165  26.64364  2       99
siesta:     17.28647  11.19531  27.66182  4      100
siesta:     13.36056  11.33156  28.02182  3      101
siesta:     13.53744  11.20721  30.45824  2      102
siesta:     13.73321  12.69802  31.63781  4      103
siesta:      2.79302   2.79302  43.61868  5      104
siesta:      2.79302   8.37716  43.61868  5      105
siesta:      2.79302  13.96319  43.61868  5      106
siesta:      8.37905   2.79302  43.61868  5      107
siesta:      8.37905   8.37716  43.61868  5      108
siesta:      8.37905  13.96319  43.61868  5      109
siesta:     13.59092   2.79302  43.61868  5      110
siesta:     13.59092   8.37716  43.61868  5      111
siesta:     13.59092  13.96319  43.61868  5      112
siesta:     19.17695   2.79302  43.61868  5      113
siesta:     19.17695   8.37716  43.61868  5      114
siesta:     19.17695  13.96319  43.61868  5      115
siesta:     24.76298   2.79302  43.61868  5      116
siesta:     24.76298   8.37716  43.61868  5      117
siesta:     24.76298  13.96319  43.61868  5      118
siesta:      0.00000   0.00000  47.56820  1      119
siesta:      0.00000   5.58414  47.56820  1      120
siesta:      0.00000  11.17018  47.56820  1      121
siesta:      5.58603   0.00000  47.56820  1      122
siesta:      5.58603   5.58414  47.56820  1      123
siesta:      5.58603  11.17018  47.56820  1      124
siesta:     11.17207   0.00000  47.56820  1      125
siesta:     11.17207   5.58414  47.56820  1      126
siesta:     11.17207  11.17018  47.56820  1      127
siesta:     16.38393   0.00000  47.56820  1      128
siesta:     16.38393   5.58414  47.56820  1      129
siesta:     16.38393  11.17018  47.56820  1      130
siesta:     21.96996   0.00000  47.56820  1      131
siesta:     21.96996   5.58414  47.56820  1      132
siesta:     21.96996  11.17018  47.56820  1      133
siesta:      2.79302   2.79302  51.51773  1      134
siesta:      2.79302   8.37716  51.51773  1      135
siesta:      2.79302  13.96319  51.51773  1      136
siesta:      8.37905   2.79302  51.51773  1      137
siesta:      8.37905   8.37716  51.51773  1      138
siesta:      8.37905  13.96319  51.51773  1      139
siesta:     13.59092   2.79302  51.51773  1      140
siesta:     13.59092   8.37716  51.51773  1      141
siesta:     13.59092  13.96319  51.51773  1      142
siesta:     19.17695   2.79302  51.51773  1      143
siesta:     19.17695   8.37716  51.51773  1      144
siesta:     19.17695  13.96319  51.51773  1      145
siesta:     24.76298   2.79302  51.51773  1      146
siesta:     24.76298   8.37716  51.51773  1      147
siesta:     24.76298  13.96319  51.51773  1      148
siesta:      0.00000   0.00000  55.46726  1      149
siesta:      0.00000   5.58414  55.46726  1      150
siesta:      0.00000  11.17018  55.46726  1      151
siesta:      5.58603   0.00000  55.46726  1      152
siesta:      5.58603   5.58414  55.46726  1      153
siesta:      5.58603  11.17018  55.46726  1      154
siesta:     11.17207   0.00000  55.46726  1      155
siesta:     11.17207   5.58414  55.46726  1      156
siesta:     11.17207  11.17018  55.46726  1      157
siesta:     16.38393   0.00000  55.46726  1      158
siesta:     16.38393   5.58414  55.46726  1      159
siesta:     16.38393  11.17018  55.46726  1      160
siesta:     21.96996   0.00000  55.46726  1      161
siesta:     21.96996   5.58414  55.46726  1      162
siesta:     21.96996  11.17018  55.46726  1      163
siesta:      2.79302   2.79302  59.41679  1      164
siesta:      2.79302   8.37716  59.41679  1      165
siesta:      2.79302  13.96319  59.41679  1      166
siesta:      8.37905   2.79302  59.41679  1      167
siesta:      8.37905   8.37716  59.41679  1      168
siesta:      8.37905  13.96319  59.41679  1      169
siesta:     13.59092   2.79302  59.41679  1      170
siesta:     13.59092   8.37716  59.41679  1      171
siesta:     13.59092  13.96319  59.41679  1      172
siesta:     19.17695   2.79302  59.41679  1      173
siesta:     19.17695   8.37716  59.41679  1      174
siesta:     19.17695  13.96319  59.41679  1      175
siesta:     24.76298   2.79302  59.41679  1      176
siesta:     24.76298   8.37716  59.41679  1      177
siesta:     24.76298  13.96319  59.41679  1      178

initatomlists: Number of atoms, orbitals, and projectors:    178  1262  2820

siesta: System type = bulk      
 Nodes, Orbitals          64        1262
 blocksizedefault           8

* ProcessorY, Blocksize:    8   8


siesta: k-grid: Number of k-points =     6
siesta: k-grid: Cutoff             =    14.582 Ang
siesta: k-grid: Supercell and displacements
siesta: k-grid:    2   0   0      0.000
siesta: k-grid:    0   4   0      0.000
siesta: k-grid:    0   0   1      0.000
siesta: overlap:  rmaxh   veclen  direction
siesta: overlap:  20.0465 27.5560   1
siesta: overlap:  rmaxh   veclen  direction
siesta: overlap:  20.0465 16.7543   2
siesta: overlap:  rmaxh   veclen  direction
siesta: overlap:  20.0465 67.1458   3
 label:           1 Au_bulk                        1 s      
 label:           2 Au_bulk                        1 dxy    
 label:           3 Au_bulk                        1 dyz    
 label:           4 Au_bulk                        1 dz2    
 label:           5 Au_bulk                        1 dxz    
 label:           6 Au_bulk                        1 dx2-y2 
 label:           7 Au_bulk                        2 s      
 label:           8 Au_bulk                        2 dxy    
 label:           9 Au_bulk                        2 dyz    
 label:          10 Au_bulk                        2 dz2    
 label:          11 Au_bulk                        2 dxz    
 label:          12 Au_bulk                        2 dx2-y2 
 label:          13 Au_bulk                        3 s      
 label:          14 Au_bulk                        3 dxy    
 label:          15 Au_bulk                        3 dyz    
 label:          16 Au_bulk                        3 dz2    
 label:          17 Au_bulk                        3 dxz    
 label:          18 Au_bulk                        3 dx2-y2 
 label:          19 Au_bulk                        4 s      
 label:          20 Au_bulk                        4 dxy    
 label:          21 Au_bulk                        4 dyz    
 label:          22 Au_bulk                        4 dz2    
 label:          23 Au_bulk                        4 dxz    
 label:          24 Au_bulk                        4 dx2-y2 
 label:          25 Au_bulk                        5 s      
 label:          26 Au_bulk                        5 dxy    
 label:          27 Au_bulk                        5 dyz    
 label:          28 Au_bulk                        5 dz2    
 label:          29 Au_bulk                        5 dxz    
 label:          30 Au_bulk                        5 dx2-y2 
 label:          31 Au_bulk                        6 s      
 label:          32 Au_bulk                        6 dxy    
 label:          33 Au_bulk                        6 dyz    
 label:          34 Au_bulk                        6 dz2    
 label:          35 Au_bulk                        6 dxz    
 label:          36 Au_bulk                        6 dx2-y2 
 label:          37 Au_bulk                        7 s      
 label:          38 Au_bulk                        7 dxy    
 label:          39 Au_bulk                        7 dyz    
 label:          40 Au_bulk                        7 dz2    
 label:          41 Au_bulk                        7 dxz    
 label:          42 Au_bulk                        7 dx2-y2 
 label:          43 Au_bulk                        8 s      
 label:          44 Au_bulk                        8 dxy    
 label:          45 Au_bulk                        8 dyz    
 label:          46 Au_bulk                        8 dz2    
 label:          47 Au_bulk                        8 dxz    
 label:          48 Au_bulk                        8 dx2-y2 
 label:          49 Au_bulk                        9 s      
 label:          50 Au_bulk                        9 dxy    
 label:          51 Au_bulk                        9 dyz    
 label:          52 Au_bulk                        9 dz2    
 label:          53 Au_bulk                        9 dxz    
 label:          54 Au_bulk                        9 dx2-y2 
 label:          55 Au_bulk                       10 s      
 label:          56 Au_bulk                       10 dxy    
 label:          57 Au_bulk                       10 dyz    
 label:          58 Au_bulk                       10 dz2    
 label:          59 Au_bulk                       10 dxz    
 label:          60 Au_bulk                       10 dx2-y2 
 label:          61 Au_bulk                       11 s      
 label:          62 Au_bulk                       11 dxy    
 label:          63 Au_bulk                       11 dyz    
 label:          64 Au_bulk                       11 dz2    
 label:          65 Au_bulk                       11 dxz    
 label:          66 Au_bulk                       11 dx2-y2 
 label:          67 Au_bulk                       12 s      
 label:          68 Au_bulk                       12 dxy    
 label:          69 Au_bulk                       12 dyz    
 label:          70 Au_bulk                       12 dz2    
 label:          71 Au_bulk                       12 dxz    
 label:          72 Au_bulk                       12 dx2-y2 
 label:          73 Au_bulk                       13 s      
 label:          74 Au_bulk                       13 dxy    
 label:          75 Au_bulk                       13 dyz    
 label:          76 Au_bulk                       13 dz2    
 label:          77 Au_bulk                       13 dxz    
 label:          78 Au_bulk                       13 dx2-y2 
 label:          79 Au_bulk                       14 s      
 label:          80 Au_bulk                       14 dxy    
 label:          81 Au_bulk                       14 dyz    
 label:          82 Au_bulk                       14 dz2    
 label:          83 Au_bulk                       14 dxz    
 label:          84 Au_bulk                       14 dx2-y2 
 label:          85 Au_bulk                       15 s      
 label:          86 Au_bulk                       15 dxy    
 label:          87 Au_bulk                       15 dyz    
 label:          88 Au_bulk                       15 dz2    
 label:          89 Au_bulk                       15 dxz    
 label:          90 Au_bulk                       15 dx2-y2 
 label:          91 Au_bulk                       16 s      
 label:          92 Au_bulk                       16 dxy    
 label:          93 Au_bulk                       16 dyz    
 label:          94 Au_bulk                       16 dz2    
 label:          95 Au_bulk                       16 dxz    
 label:          96 Au_bulk                       16 dx2-y2 
 label:          97 Au_bulk                       17 s      
 label:          98 Au_bulk                       17 dxy    
 label:          99 Au_bulk                       17 dyz    
 label:         100 Au_bulk                       17 dz2    
 label:         101 Au_bulk                       17 dxz    
 label:         102 Au_bulk                       17 dx2-y2 
 label:         103 Au_bulk                       18 s      
 label:         104 Au_bulk                       18 dxy    
 label:         105 Au_bulk                       18 dyz    
 label:         106 Au_bulk                       18 dz2    
 label:         107 Au_bulk                       18 dxz    
 label:         108 Au_bulk                       18 dx2-y2 
 label:         109 Au_bulk                       19 s      
 label:         110 Au_bulk                       19 dxy    
 label:         111 Au_bulk                       19 dyz    
 label:         112 Au_bulk                       19 dz2    
 label:         113 Au_bulk                       19 dxz    
 label:         114 Au_bulk                       19 dx2-y2 
 label:         115 Au_bulk                       20 s      
 label:         116 Au_bulk                       20 dxy    
 label:         117 Au_bulk                       20 dyz    
 label:         118 Au_bulk                       20 dz2    
 label:         119 Au_bulk                       20 dxz    
 label:         120 Au_bulk                       20 dx2-y2 
 label:         121 Au_bulk                       21 s      
 label:         122 Au_bulk                       21 dxy    
 label:         123 Au_bulk                       21 dyz    
 label:         124 Au_bulk                       21 dz2    
 label:         125 Au_bulk                       21 dxz    
 label:         126 Au_bulk                       21 dx2-y2 
 label:         127 Au_bulk                       22 s      
 label:         128 Au_bulk                       22 dxy    
 label:         129 Au_bulk                       22 dyz    
 label:         130 Au_bulk                       22 dz2    
 label:         131 Au_bulk                       22 dxz    
 label:         132 Au_bulk                       22 dx2-y2 
 label:         133 Au_bulk                       23 s      
 label:         134 Au_bulk                       23 dxy    
 label:         135 Au_bulk                       23 dyz    
 label:         136 Au_bulk                       23 dz2    
 label:         137 Au_bulk                       23 dxz    
 label:         138 Au_bulk                       23 dx2-y2 
 label:         139 Au_bulk                       24 s      
 label:         140 Au_bulk                       24 dxy    
 label:         141 Au_bulk                       24 dyz    
 label:         142 Au_bulk                       24 dz2    
 label:         143 Au_bulk                       24 dxz    
 label:         144 Au_bulk                       24 dx2-y2 
 label:         145 Au_bulk                       25 s      
 label:         146 Au_bulk                       25 dxy    
 label:         147 Au_bulk                       25 dyz    
 label:         148 Au_bulk                       25 dz2    
 label:         149 Au_bulk                       25 dxz    
 label:         150 Au_bulk                       25 dx2-y2 
 label:         151 Au_bulk                       26 s      
 label:         152 Au_bulk                       26 dxy    
 label:         153 Au_bulk                       26 dyz    
 label:         154 Au_bulk                       26 dz2    
 label:         155 Au_bulk                       26 dxz    
 label:         156 Au_bulk                       26 dx2-y2 
 label:         157 Au_bulk                       27 s      
 label:         158 Au_bulk                       27 dxy    
 label:         159 Au_bulk                       27 dyz    
 label:         160 Au_bulk                       27 dz2    
 label:         161 Au_bulk                       27 dxz    
 label:         162 Au_bulk                       27 dx2-y2 
 label:         163 Au_bulk                       28 s      
 label:         164 Au_bulk                       28 dxy    
 label:         165 Au_bulk                       28 dyz    
 label:         166 Au_bulk                       28 dz2    
 label:         167 Au_bulk                       28 dxz    
 label:         168 Au_bulk                       28 dx2-y2 
 label:         169 Au_bulk                       29 s      
 label:         170 Au_bulk                       29 dxy    
 label:         171 Au_bulk                       29 dyz    
 label:         172 Au_bulk                       29 dz2    
 label:         173 Au_bulk                       29 dxz    
 label:         174 Au_bulk                       29 dx2-y2 
 label:         175 Au_bulk                       30 s      
 label:         176 Au_bulk                       30 dxy    
 label:         177 Au_bulk                       30 dyz    
 label:         178 Au_bulk                       30 dz2    
 label:         179 Au_bulk                       30 dxz    
 label:         180 Au_bulk                       30 dx2-y2 
 label:         181 Au_bulk                       31 s      
 label:         182 Au_bulk                       31 dxy    
 label:         183 Au_bulk                       31 dyz    
 label:         184 Au_bulk                       31 dz2    
 label:         185 Au_bulk                       31 dxz    
 label:         186 Au_bulk                       31 dx2-y2 
 label:         187 Au_bulk                       32 s      
 label:         188 Au_bulk                       32 dxy    
 label:         189 Au_bulk                       32 dyz    
 label:         190 Au_bulk                       32 dz2    
 label:         191 Au_bulk                       32 dxz    
 label:         192 Au_bulk                       32 dx2-y2 
 label:         193 Au_bulk                       33 s      
 label:         194 Au_bulk                       33 dxy    
 label:         195 Au_bulk                       33 dyz    
 label:         196 Au_bulk                       33 dz2    
 label:         197 Au_bulk                       33 dxz    
 label:         198 Au_bulk                       33 dx2-y2 
 label:         199 Au_bulk                       34 s      
 label:         200 Au_bulk                       34 dxy    
 label:         201 Au_bulk                       34 dyz    
 label:         202 Au_bulk                       34 dz2    
 label:         203 Au_bulk                       34 dxz    
 label:         204 Au_bulk                       34 dx2-y2 
 label:         205 Au_bulk                       35 s      
 label:         206 Au_bulk                       35 dxy    
 label:         207 Au_bulk                       35 dyz    
 label:         208 Au_bulk                       35 dz2    
 label:         209 Au_bulk                       35 dxz    
 label:         210 Au_bulk                       35 dx2-y2 
 label:         211 Au_bulk                       36 s      
 label:         212 Au_bulk                       36 dxy    
 label:         213 Au_bulk                       36 dyz    
 label:         214 Au_bulk                       36 dz2    
 label:         215 Au_bulk                       36 dxz    
 label:         216 Au_bulk                       36 dx2-y2 
 label:         217 Au_bulk                       37 s      
 label:         218 Au_bulk                       37 dxy    
 label:         219 Au_bulk                       37 dyz    
 label:         220 Au_bulk                       37 dz2    
 label:         221 Au_bulk                       37 dxz    
 label:         222 Au_bulk                       37 dx2-y2 
 label:         223 Au_bulk                       38 s      
 label:         224 Au_bulk                       38 dxy    
 label:         225 Au_bulk                       38 dyz    
 label:         226 Au_bulk                       38 dz2    
 label:         227 Au_bulk                       38 dxz    
 label:         228 Au_bulk                       38 dx2-y2 
 label:         229 Au_bulk                       39 s      
 label:         230 Au_bulk                       39 dxy    
 label:         231 Au_bulk                       39 dyz    
 label:         232 Au_bulk                       39 dz2    
 label:         233 Au_bulk                       39 dxz    
 label:         234 Au_bulk                       39 dx2-y2 
 label:         235 Au_bulk                       40 s      
 label:         236 Au_bulk                       40 dxy    
 label:         237 Au_bulk                       40 dyz    
 label:         238 Au_bulk                       40 dz2    
 label:         239 Au_bulk                       40 dxz    
 label:         240 Au_bulk                       40 dx2-y2 
 label:         241 Au_bulk                       41 s      
 label:         242 Au_bulk                       41 dxy    
 label:         243 Au_bulk                       41 dyz    
 label:         244 Au_bulk                       41 dz2    
 label:         245 Au_bulk                       41 dxz    
 label:         246 Au_bulk                       41 dx2-y2 
 label:         247 Au_bulk                       42 s      
 label:         248 Au_bulk                       42 dxy    
 label:         249 Au_bulk                       42 dyz    
 label:         250 Au_bulk                       42 dz2    
 label:         251 Au_bulk                       42 dxz    
 label:         252 Au_bulk                       42 dx2-y2 
 label:         253 Au_bulk                       43 s      
 label:         254 Au_bulk                       43 dxy    
 label:         255 Au_bulk                       43 dyz    
 label:         256 Au_bulk                       43 dz2    
 label:         257 Au_bulk                       43 dxz    
 label:         258 Au_bulk                       43 dx2-y2 
 label:         259 Au_bulk                       44 s      
 label:         260 Au_bulk                       44 dxy    
 label:         261 Au_bulk                       44 dyz    
 label:         262 Au_bulk                       44 dz2    
 label:         263 Au_bulk                       44 dxz    
 label:         264 Au_bulk                       44 dx2-y2 
 label:         265 Au_bulk                       45 s      
 label:         266 Au_bulk                       45 dxy    
 label:         267 Au_bulk                       45 dyz    
 label:         268 Au_bulk                       45 dz2    
 label:         269 Au_bulk                       45 dxz    
 label:         270 Au_bulk                       45 dx2-y2 
 label:         271 Au_bulk                       46 s      
 label:         272 Au_bulk                       46 dxy    
 label:         273 Au_bulk                       46 dyz    
 label:         274 Au_bulk                       46 dz2    
 label:         275 Au_bulk                       46 dxz    
 label:         276 Au_bulk                       46 dx2-y2 
 label:         277 Au_bulk                       47 s      
 label:         278 Au_bulk                       47 dxy    
 label:         279 Au_bulk                       47 dyz    
 label:         280 Au_bulk                       47 dz2    
 label:         281 Au_bulk                       47 dxz    
 label:         282 Au_bulk                       47 dx2-y2 
 label:         283 Au_bulk                       48 s      
 label:         284 Au_bulk                       48 dxy    
 label:         285 Au_bulk                       48 dyz    
 label:         286 Au_bulk                       48 dz2    
 label:         287 Au_bulk                       48 dxz    
 label:         288 Au_bulk                       48 dx2-y2 
 label:         289 Au_bulk                       49 s      
 label:         290 Au_bulk                       49 dxy    
 label:         291 Au_bulk                       49 dyz    
 label:         292 Au_bulk                       49 dz2    
 label:         293 Au_bulk                       49 dxz    
 label:         294 Au_bulk                       49 dx2-y2 
 label:         295 Au_bulk                       50 s      
 label:         296 Au_bulk                       50 dxy    
 label:         297 Au_bulk                       50 dyz    
 label:         298 Au_bulk                       50 dz2    
 label:         299 Au_bulk                       50 dxz    
 label:         300 Au_bulk                       50 dx2-y2 
 label:         301 Au_bulk                       51 s      
 label:         302 Au_bulk                       51 dxy    
 label:         303 Au_bulk                       51 dyz    
 label:         304 Au_bulk                       51 dz2    
 label:         305 Au_bulk                       51 dxz    
 label:         306 Au_bulk                       51 dx2-y2 
 label:         307 Au_bulk                       52 s      
 label:         308 Au_bulk                       52 dxy    
 label:         309 Au_bulk                       52 dyz    
 label:         310 Au_bulk                       52 dz2    
 label:         311 Au_bulk                       52 dxz    
 label:         312 Au_bulk                       52 dx2-y2 
 label:         313 Au_bulk                       53 s      
 label:         314 Au_bulk                       53 dxy    
 label:         315 Au_bulk                       53 dyz    
 label:         316 Au_bulk                       53 dz2    
 label:         317 Au_bulk                       53 dxz    
 label:         318 Au_bulk                       53 dx2-y2 
 label:         319 Au_bulk                       54 s      
 label:         320 Au_bulk                       54 dxy    
 label:         321 Au_bulk                       54 dyz    
 label:         322 Au_bulk                       54 dz2    
 label:         323 Au_bulk                       54 dxz    
 label:         324 Au_bulk                       54 dx2-y2 
 label:         325 Au_bulk                       55 s      
 label:         326 Au_bulk                       55 dxy    
 label:         327 Au_bulk                       55 dyz    
 label:         328 Au_bulk                       55 dz2    
 label:         329 Au_bulk                       55 dxz    
 label:         330 Au_bulk                       55 dx2-y2 
 label:         331 Au_bulk                       56 s      
 label:         332 Au_bulk                       56 dxy    
 label:         333 Au_bulk                       56 dyz    
 label:         334 Au_bulk                       56 dz2    
 label:         335 Au_bulk                       56 dxz    
 label:         336 Au_bulk                       56 dx2-y2 
 label:         337 Au_bulk                       57 s      
 label:         338 Au_bulk                       57 dxy    
 label:         339 Au_bulk                       57 dyz    
 label:         340 Au_bulk                       57 dz2    
 label:         341 Au_bulk                       57 dxz    
 label:         342 Au_bulk                       57 dx2-y2 
 label:         343 Au_bulk                       58 s      
 label:         344 Au_bulk                       58 dxy    
 label:         345 Au_bulk                       58 dyz    
 label:         346 Au_bulk                       58 dz2    
 label:         347 Au_bulk                       58 dxz    
 label:         348 Au_bulk                       58 dx2-y2 
 label:         349 Au_bulk                       59 s      
 label:         350 Au_bulk                       59 dxy    
 label:         351 Au_bulk                       59 dyz    
 label:         352 Au_bulk                       59 dz2    
 label:         353 Au_bulk                       59 dxz    
 label:         354 Au_bulk                       59 dx2-y2 
 label:         355 Au_bulk                       60 s      
 label:         356 Au_bulk                       60 dxy    
 label:         357 Au_bulk                       60 dyz    
 label:         358 Au_bulk                       60 dz2    
 label:         359 Au_bulk                       60 dxz    
 label:         360 Au_bulk                       60 dx2-y2 
 label:         361 Au                            61 s      
 label:         362 Au                            61 dxy    
 label:         363 Au                            61 dyz    
 label:         364 Au                            61 dz2    
 label:         365 Au                            61 dxz    
 label:         366 Au                            61 dx2-y2 
 label:         367 Au                            62 s      
 label:         368 Au                            62 dxy    
 label:         369 Au                            62 dyz    
 label:         370 Au                            62 dz2    
 label:         371 Au                            62 dxz    
 label:         372 Au                            62 dx2-y2 
 label:         373 Au                            63 s      
 label:         374 Au                            63 dxy    
 label:         375 Au                            63 dyz    
[...]
   101    0.204399   -2.356080   -2.372610
   102    0.091557   11.283575  -11.992652
   103   -1.076241   -9.511095   -6.953712
   104    0.124842    0.074466    1.414729
   105    0.077804    0.000387    0.829239
   106    0.128958   -0.075561    1.405223
   107   -0.237834    0.113191    1.243815
   108   -0.385489    0.000156    0.689294
   109   -0.229916   -0.113022    1.238448
   110    0.153010    0.156452    0.837115
   111    0.385191    0.000631    0.378623
   112    0.146473   -0.152291    0.834900
   113   -0.257068    0.112751    1.386582
   114   -0.109571    0.000825    0.831033
   115   -0.264029   -0.112651    1.379084
   116   -0.068672    0.074544    1.421203
   117   -0.021028    0.001127    0.834836
   118   -0.072281   -0.076478    1.411359
   119    0.007342    0.000632   -0.672695
   120    0.007563   -0.032338   -0.367150
   121    0.011132    0.033280   -0.369831
   122    0.124906   -0.000914   -0.687118
   123    0.098044   -0.035874   -0.388967
   124    0.098509    0.038873   -0.387948
   125   -0.523307   -0.001675   -0.752293
   126   -0.545039   -0.033428   -0.463925
   127   -0.543899    0.038136   -0.466471
   128    0.491148   -0.001756   -0.648892
   129    0.512263   -0.038152   -0.358849
   130    0.511441    0.041354   -0.357775
   131   -0.191708    0.002976   -0.699171
   132   -0.164542   -0.040160   -0.402738
   133   -0.165037    0.038830   -0.407105
   134    0.136978   -0.044500    0.054577
   135    0.059527    0.001772    0.079894
   136    0.135422    0.042193    0.052216
   137   -0.470698   -0.073030    0.027005
   138   -0.622813    0.002060    0.019978
   139   -0.478805    0.071807    0.024020
   140    0.360508   -0.132951    0.071999
   141    0.507856    0.002268    0.021394
   142    0.370803    0.129053    0.069412
   143   -0.250805   -0.073508    0.048855
   144   -0.099045    0.001911    0.041439
   145   -0.242468    0.072644    0.045603
   146   -0.063522   -0.044693    0.028321
   147    0.013743    0.001761    0.056035
   148   -0.062026    0.042404    0.027202
   149   -0.021186    0.000525    0.877351
   150   -0.021233   -0.033157    0.713425
   151   -0.021264    0.033933    0.712911
   152    0.134850    0.000531    0.894377
   153    0.113976   -0.032651    0.718152
   154    0.114033    0.033466    0.717627
   155   -0.479265    0.001176    1.025350
   156   -0.496633   -0.018649    0.818404
   157   -0.495993    0.020212    0.817807
   158    0.421055    0.000642    0.916035
   159    0.438926   -0.020854    0.709045
   160    0.438702    0.021732    0.708513
   161   -0.188248    0.000538    0.892683
   162   -0.167370   -0.032733    0.716683
   163   -0.167392    0.033508    0.716174
   164    0.120397    0.037157   -1.565088
   165    0.073395    0.000842   -0.975060
   166    0.124649   -0.031133   -1.559386
   167   -0.197791    0.079553   -1.432986
   168   -0.307098    0.000967   -0.861503
   169   -0.189174   -0.074594   -1.426754
   170    0.171076    0.131225   -1.117286
   171    0.311910    0.001060   -0.628926
   172    0.163550   -0.125487   -1.111369
   173   -0.267982    0.079034   -1.545942
   174   -0.159964    0.000824   -0.974820
   175   -0.276584   -0.073891   -1.539730
   176   -0.056678    0.037165   -1.570286
   177   -0.009604    0.000842   -0.980247
   178   -0.060889   -0.031129   -1.564610
----------------------------------------
 Tot   -5.179286    0.104112   -0.490096
----------------------------------------
 Max   17.104036
 Res    1.909004    sqrt( Sum f_i^2 / 3N )
----------------------------------------
 Max   17.104036    constrained
 
* Maximum dynamic memory allocated =    63 MB

coxmol: Writing XMOL coordinates into file IV.xyz                  
 siesta: ERROR: PDOS implemented only with diagon

siesta: Program's energy decomposition (eV):
siesta:-Eions   = -203100.471143
siesta: Ena     =   12196.628715
siesta: Ekin    =  112130.950226
siesta: Enl     =  -42300.929488
siesta: DEna    =     275.509062
siesta: DUscf   =      19.374981
siesta: DUext   =       0.000000
siesta: Exc     =  -69426.824334
siesta: eta*DQ  =       0.000000
siesta: Emadel  =       0.000000
siesta: Ekinion =       0.000000
siesta: Eharris = -190205.761952
siesta: Eso     =       0.000000
siesta: Etot    = -190205.761981
siesta: FreeEng = -190205.761981

siesta: Final energy (eV):
siesta:       Kinetic =  112130.950226
siesta:       Hartree =  481377.555693
siesta:    Ext. field =       0.000000
siesta:   Exch.-corr. =  -69426.824334
siesta:  Ion-electron =-1050072.266492
siesta:       Ion-ion =  335784.822926
siesta:       Ekinion =       0.000000
siesta:         Total = -190205.761981

siesta: Atomic forces (eV/Ang):
siesta:    1   -0.018216    0.000447    1.521762
siesta:    2   -0.018228   -0.198205    1.522658
siesta:    3   -0.018252    0.198283    1.523656
siesta:    4    0.075532    0.000454    1.504688
siesta:    5    0.201556   -0.208433    1.505989
siesta:    6    0.201529    0.208540    1.506962
siesta:    7   -0.438771    0.000764    1.134022
siesta:    8   -0.137047   -0.223690    1.133067
siesta:    9   -0.136785    0.224104    1.134453
siesta:   10    0.379282    0.000520    1.415159
siesta:   11    0.077702   -0.224572    1.414715
siesta:   12    0.077657    0.224691    1.415656
siesta:   13   -0.057070    0.000468    1.522644
siesta:   14   -0.183239   -0.208394    1.524039
siesta:   15   -0.183211    0.208473    1.525008
siesta:   16    0.122456    0.029416   -0.384273
siesta:   17    0.076485    0.001344   -0.968012
siesta:   18    0.126404   -0.022408   -0.389763
siesta:   19   -0.402719    0.070198   -0.394234
siesta:   20   -0.501073    0.001301   -0.949258
siesta:   21   -0.393915   -0.064556   -0.400365
siesta:   22    0.382984    0.121173   -0.494761
siesta:   23    0.500108    0.001307   -0.971991
siesta:   24    0.374921   -0.116338   -0.501284
siesta:   25   -0.198103    0.069665   -0.391648
siesta:   26   -0.101143    0.001205   -0.946580
siesta:   27   -0.206960   -0.063890   -0.397810
siesta:   28   -0.061036    0.029413   -0.380396
siesta:   29   -0.014904    0.001335   -0.964223
siesta:   30   -0.064856   -0.022403   -0.385962
siesta:   31   -0.017341   -0.000088   -0.160825
siesta:   32   -0.017487   -0.027619   -0.036322
siesta:   33   -0.016937    0.028792   -0.043304
siesta:   34    0.123896   -0.003640   -0.145468
siesta:   35    0.110500   -0.022975   -0.000615
siesta:   36    0.110774    0.027568    0.009882
siesta:   37   -0.424126   -0.006013   -0.165068
siesta:   38   -0.434405   -0.003158    0.019507
siesta:   39   -0.432706    0.011253    0.032414
siesta:   40    0.356660   -0.007050   -0.167326
siesta:   41    0.367690   -0.004614    0.017618
siesta:   42    0.366271    0.012760    0.027589
siesta:   43   -0.173196   -0.005019   -0.152346
siesta:   44   -0.159942   -0.021551   -0.007432
siesta:   45   -0.160208    0.027695    0.012107
siesta:   46    0.234862   -0.041435    0.795424
siesta:   47   -0.019074   -0.008963    0.646084
siesta:   48    0.049508    0.052088    0.682178
siesta:   49   -0.246936   -0.067771    0.690955
siesta:   50   -0.495573   -0.019359    0.609263
siesta:   51   -0.364614    0.090703    0.595909
siesta:   52    0.208888   -0.120678    0.791075
siesta:   53    0.377992   -0.071789    0.644201
siesta:   54    0.254094    0.193924    0.571248
siesta:   55   -0.284731   -0.068442    0.702539
siesta:   56   -0.080771   -0.034044    0.617066
siesta:   57   -0.210804    0.105252    0.605190
siesta:   58   -0.194495   -0.040637    0.775138
siesta:   59    0.067349    0.001794    0.676652
siesta:   60   -0.003196    0.040205    0.714453
siesta:   61   -0.017297    0.004970    1.377164
siesta:   62   -0.017080   -0.033941    1.033518
siesta:   63   -0.009597    0.029685    1.044753
siesta:   64    0.279153   -0.177352    1.605306
siesta:   65    0.254281    0.139641    1.278862
siesta:   66    0.074167    0.037229    1.010322
siesta:   67   -0.302507   -0.236353    1.780057
siesta:   68   -0.327990    0.186406    1.464466
siesta:   69   -0.393395    0.044814    0.844212
siesta:   70    0.262127   -0.153686    1.553339
siesta:   71    0.284668    0.102054    1.239990
siesta:   72    0.311214    0.046459    0.683760
siesta:   73   -0.319847   -0.162003    1.570675
siesta:   74   -0.293759    0.124457    1.244946
siesta:   75   -0.145194    0.037365    1.013817
siesta:   76    0.062361    0.112462   -3.132748
siesta:   77   -0.011536    0.053064   -2.492664
siesta:   78    0.037496   -0.161701   -3.061028
siesta:   79    0.328272    0.143895   -3.157975
siesta:   80    0.591198    1.554936    0.890797
siesta:   81    0.728081   -1.696542    0.353129
siesta:   82   -0.429956    0.197009   -3.026417
siesta:   83    0.004222    1.776047    1.228765
siesta:   84   -0.267212   -1.953305    0.899843
siesta:   85   -0.210727    0.145378   -3.255351
siesta:   86   -0.837760    1.401453    0.498764
siesta:   87   -0.992880   -1.543880   -0.026699
siesta:   88   -0.022797    0.112793   -3.113022
siesta:   89   -0.006191    0.061651   -2.499583
siesta:   90   -0.055100   -0.171740   -3.066997
siesta:   91    4.426592    0.348978   10.555044
siesta:   92   -4.690903    0.405449   11.492735
siesta:   93    0.764994    0.019902   11.962804
siesta:   94   -8.668257   -0.121270   -7.173149
siesta:   95    8.743900   -0.045045   -6.790323
siesta:   96   -2.946263    0.148082    0.085779
siesta:   97    1.040570    0.137154    0.849410
siesta:   98   -2.910524   -0.797072   -3.397786
siesta:   99   17.104036   -0.145333   -9.829288
siesta:  100  -11.608622    0.604044   -6.925099
siesta:  101    0.204399   -2.356080   -2.372610
siesta:  102    0.091557   11.283575  -11.992652
siesta:  103   -1.076241   -9.511095   -6.953712
siesta:  104    0.124842    0.074466    1.414729
siesta:  105    0.077804    0.000387    0.829239
siesta:  106    0.128958   -0.075561    1.405223
siesta:  107   -0.237834    0.113191    1.243815
siesta:  108   -0.385489    0.000156    0.689294
siesta:  109   -0.229916   -0.113022    1.238448
siesta:  110    0.153010    0.156452    0.837115
siesta:  111    0.385191    0.000631    0.378623
siesta:  112    0.146473   -0.152291    0.834900
siesta:  113   -0.257068    0.112751    1.386582
siesta:  114   -0.109571    0.000825    0.831033
siesta:  115   -0.264029   -0.112651    1.379084
siesta:  116   -0.068672    0.074544    1.421203
siesta:  117   -0.021028    0.001127    0.834836
siesta:  118   -0.072281   -0.076478    1.411359
siesta:  119    0.007342    0.000632   -0.672695
siesta:  120    0.007563   -0.032338   -0.367150
siesta:  121    0.011132    0.033280   -0.369831
siesta:  122    0.124906   -0.000914   -0.687118
siesta:  123    0.098044   -0.035874   -0.388967
siesta:  124    0.098509    0.038873   -0.387948
siesta:  125   -0.523307   -0.001675   -0.752293
siesta:  126   -0.545039   -0.033428   -0.463925
siesta:  127   -0.543899    0.038136   -0.466471
siesta:  128    0.491148   -0.001756   -0.648892
siesta:  129    0.512263   -0.038152   -0.358849
siesta:  130    0.511441    0.041354   -0.357775
siesta:  131   -0.191708    0.002976   -0.699171
siesta:  132   -0.164542   -0.040160   -0.402738
siesta:  133   -0.165037    0.038830   -0.407105
siesta:  134    0.136978   -0.044500    0.054577
siesta:  135    0.059527    0.001772    0.079894
siesta:  136    0.135422    0.042193    0.052216
siesta:  137   -0.470698   -0.073030    0.027005
siesta:  138   -0.622813    0.002060    0.019978
siesta:  139   -0.478805    0.071807    0.024020
siesta:  140    0.360508   -0.132951    0.071999
siesta:  141    0.507856    0.002268    0.021394
siesta:  142    0.370803    0.129053    0.069412
siesta:  143   -0.250805   -0.073508    0.048855
siesta:  144   -0.099045    0.001911    0.041439
siesta:  145   -0.242468    0.072644    0.045603
siesta:  146   -0.063522   -0.044693    0.028321
siesta:  147    0.013743    0.001761    0.056035
siesta:  148   -0.062026    0.042404    0.027202
siesta:  149   -0.021186    0.000525    0.877351
siesta:  150   -0.021233   -0.033157    0.713425
siesta:  151   -0.021264    0.033933    0.712911
siesta:  152    0.134850    0.000531    0.894377
siesta:  153    0.113976   -0.032651    0.718152
siesta:  154    0.114033    0.033466    0.717627
siesta:  155   -0.479265    0.001176    1.025350
siesta:  156   -0.496633   -0.018649    0.818404
siesta:  157   -0.495993    0.020212    0.817807
siesta:  158    0.421055    0.000642    0.916035
siesta:  159    0.438926   -0.020854    0.709045
siesta:  160    0.438702    0.021732    0.708513
siesta:  161   -0.188248    0.000538    0.892683
siesta:  162   -0.167370   -0.032733    0.716683
siesta:  163   -0.167392    0.033508    0.716174
siesta:  164    0.120397    0.037157   -1.565088
siesta:  165    0.073395    0.000842   -0.975060
siesta:  166    0.124649   -0.031133   -1.559386
siesta:  167   -0.197791    0.079553   -1.432986
siesta:  168   -0.307098    0.000967   -0.861503
siesta:  169   -0.189174   -0.074594   -1.426754
siesta:  170    0.171076    0.131225   -1.117286
siesta:  171    0.311910    0.001060   -0.628926
siesta:  172    0.163550   -0.125487   -1.111369
siesta:  173   -0.267982    0.079034   -1.545942
siesta:  174   -0.159964    0.000824   -0.974820
siesta:  175   -0.276584   -0.073891   -1.539730
siesta:  176   -0.056678    0.037165   -1.570286
siesta:  177   -0.009604    0.000842   -0.980247
siesta:  178   -0.060889   -0.031129   -1.564610
siesta: ----------------------------------------
siesta:  Tot   -5.179286    0.104112   -0.490096

siesta: Stress tensor (static) (eV/Ang**3):
siesta:     0.129030    0.000071    0.000963
siesta:     0.000075    0.110418    0.001223
siesta:     0.000912    0.001405    0.119393

siesta: Cell volume =       4593.719514 Ang**3

siesta: Pressure (static):
siesta:                Solid            Molecule  Units
siesta:          -0.00130275         -0.00080059  Ry/Bohr**3
siesta:          -0.11961369         -0.07350712  eV/Ang**3
siesta:        -191.64433147       -117.77266534  kBar

siesta: Total spin polarization (Qup-Qdown) =    0.000000
siesta: Spin vector =    0.000000    0.000000    0.000000
siesta: No SpinPolK block detected...

siesta: Electric dipole (a.u.)  =    0.000000    0.000000    7.539156
siesta: Electric dipole (Debye) =    0.000000    0.000000   19.162637
 
* Maximum dynamic memory allocated : Node    0 =    63 MB
* Maximum dynamic memory allocated : Node    1 =    36 MB
* Maximum dynamic memory allocated : Node    2 =    32 MB
* Maximum dynamic memory allocated : Node    3 =    20 MB
* Maximum dynamic memory allocated : Node    4 =    22 MB
* Maximum dynamic memory allocated : Node    5 =    33 MB
* Maximum dynamic memory allocated : Node    6 =    35 MB
* Maximum dynamic memory allocated : Node    7 =    30 MB
* Maximum dynamic memory allocated : Node    8 =    35 MB
* Maximum dynamic memory allocated : Node    9 =    36 MB
* Maximum dynamic memory allocated : Node   10 =    31 MB
* Maximum dynamic memory allocated : Node   11 =    20 MB
* Maximum dynamic memory allocated : Node   12 =    22 MB
* Maximum dynamic memory allocated : Node   13 =    33 MB
* Maximum dynamic memory allocated : Node   14 =    35 MB
* Maximum dynamic memory allocated : Node   15 =    30 MB
* Maximum dynamic memory allocated : Node   16 =    35 MB
* Maximum dynamic memory allocated : Node   17 =    36 MB
* Maximum dynamic memory allocated : Node   18 =    32 MB
* Maximum dynamic memory allocated : Node   19 =    20 MB
* Maximum dynamic memory allocated : Node   20 =    22 MB
* Maximum dynamic memory allocated : Node   21 =    33 MB
* Maximum dynamic memory allocated : Node   22 =    35 MB
* Maximum dynamic memory allocated : Node   23 =    30 MB
* Maximum dynamic memory allocated : Node   24 =    35 MB
* Maximum dynamic memory allocated : Node   25 =    36 MB
* Maximum dynamic memory allocated : Node   26 =    33 MB
* Maximum dynamic memory allocated : Node   27 =    22 MB
* Maximum dynamic memory allocated : Node   28 =    22 MB
* Maximum dynamic memory allocated : Node   29 =    33 MB
* Maximum dynamic memory allocated : Node   30 =    34 MB
* Maximum dynamic memory allocated : Node   31 =    29 MB
* Maximum dynamic memory allocated : Node   32 =    34 MB
* Maximum dynamic memory allocated : Node   33 =    35 MB
* Maximum dynamic memory allocated : Node   34 =    34 MB
* Maximum dynamic memory allocated : Node   35 =    24 MB
* Maximum dynamic memory allocated : Node   36 =    22 MB
* Maximum dynamic memory allocated : Node   37 =    32 MB
* Maximum dynamic memory allocated : Node   38 =    34 MB
* Maximum dynamic memory allocated : Node   39 =    30 MB
* Maximum dynamic memory allocated : Node   40 =    34 MB
* Maximum dynamic memory allocated : Node   41 =    36 MB
* Maximum dynamic memory allocated : Node   42 =    36 MB
* Maximum dynamic memory allocated : Node   43 =    25 MB
* Maximum dynamic memory allocated : Node   44 =    22 MB
* Maximum dynamic memory allocated : Node   45 =    32 MB
* Maximum dynamic memory allocated : Node   46 =    34 MB
* Maximum dynamic memory allocated : Node   47 =    29 MB
* Maximum dynamic memory allocated : Node   48 =    34 MB
* Maximum dynamic memory allocated : Node   49 =    35 MB
* Maximum dynamic memory allocated : Node   50 =    34 MB
* Maximum dynamic memory allocated : Node   51 =    24 MB
* Maximum dynamic memory allocated : Node   52 =    22 MB
* Maximum dynamic memory allocated : Node   53 =    33 MB
* Maximum dynamic memory allocated : Node   54 =    34 MB
* Maximum dynamic memory allocated : Node   55 =    29 MB
* Maximum dynamic memory allocated : Node   56 =    34 MB
* Maximum dynamic memory allocated : Node   57 =    35 MB
* Maximum dynamic memory allocated : Node   58 =    32 MB
* Maximum dynamic memory allocated : Node   59 =    21 MB
* Maximum dynamic memory allocated : Node   60 =    22 MB
* Maximum dynamic memory allocated : Node   61 =    32 MB
* Maximum dynamic memory allocated : Node   62 =    34 MB
* Maximum dynamic memory allocated : Node   63 =    29 MB
* Maximum memory occured during matrixMtoO                    

timer: CPU execution times:
timer:  Routine       Calls   Time/call    Tot.time        %
timer:  siesta            1  214953.791  214953.791   100.00
timer:  Setup             1  807451.286  807451.286   375.64
timer:  bands             1       0.023       0.023     0.00
timer:  writewave         1       0.066       0.066     0.00
timer:  KSV_init          1       0.035       0.035     0.00
timer:  IterMD            9   23795.777  214161.992    99.63
timer:  hsparse          10      12.363     123.633     0.06
timer:  overfsm          18       2.636      47.449     0.02
timer:  IterSCF         204    1048.320  213857.245    99.49
timer:  kinefsm          18       2.466      44.387     0.02
timer:  nlefsm           18      88.808    1598.539     0.74
timer:  DHSCF           212      98.722   20929.109     9.74
timer:  DHSCF1            1       6.446       6.446     0.00
timer:  DHSCF2            1      90.685      90.685     0.04
timer:  REORD          2968       0.012      35.420     0.02
timer:  POISON          213       1.282     273.066     0.13
timer:  DHSCF3          212      95.590   20265.183     9.43
timer:  rhoofd          212      28.825    6110.889     2.84
timer:  CELLXC          212       0.460      97.586     0.05
timer:  vmat            204      39.219    8000.724     3.72
timer:  emtrans         204     927.568  189223.918    88.03
timer:  NEGFK          1224     140.373  171816.145    79.93
timer:  NEGFK_su       1224      28.453   34826.665    16.20
timer:  NEGFK_imag     1170      20.690   24206.875    11.26
timer:  NEGFK_real     1080      89.270   96412.015    44.85
timer:  NEGFK_col      1170       1.771    2071.890     0.96
timer:  DHSCF4            9      59.435     534.913     0.25
timer:  dfscf             9      50.982     458.842     0.21
timer:  CURRENT          54      20.839    1125.300     0.52
  
>> End of run:  17-JAN-2024  22:22:24
