SIESTA 1.3.7  -- [1.3f1 release] (04 Feb 2004)
Architecture  : mpif90
Compiler flags:  -O3 -check bounds -fp-model strict
PARALLEL version

* Running on    2 nodes in parallel
>> Start of run:   1-NOV-2023  17:09:08

                           ***********************       
                           *  WELCOME TO SIESTA  *       
                           ***********************       

reinit: Reading from standard input
************************** Dump of input data file ****************************
SystemName		     dft_wfn		# Descriptive name of the system
SystemLabel 			dft_wfn		# Short name for naming files
NumberOfAtoms    12
NumberOfSpecies			1               # Number of species
PAO.BasisType			split		
%block ChemicalSpeciesLabel
  1   3  Li
%endblock ChemicalSpeciesLabel
%block PAO.Basis
Li   1
n=2 0 1
0.0
1.0
%endblock PAO.Basis
%block PS.lmax
 Li   1
%endblock PS.lmax
LatticeConstant 1.000 Ang
%block LatticeVectors
  12.0    0.000   0.000   1
  0.000  12.0   0.000   1
  0.000   0.000     36.0 1
%endblock LatticeVectors
AtomicCoordinatesFormat Ang
%block AtomicCoordinatesAndAtomicSpecies
0.0 0.0 0.0 1 Li
0.0 0.0 3.0 1 Li
0.0 0.0 6.0 1 Li
0.0 0.0 9.0 1 Li
0.0 0.0 12.0 1 Li
0.0 0.0 15.0 1 Li
0.0 0.0 18.0 1 Li
0.0 0.0 21.0 1 Li
0.0 0.0 24.0 1 Li
0.0 0.0 27.0 1 Li
0.0 0.0 30.0 1 Li
0.0 0.0 33.0 1 Li
%endblock AtomicCoordinatesAndAtomicSpecies 	
%block kgrid_Monkhorst_Pack
  2   0   0     0.0
  0   2   0     0.0
  0   0   1     0.0
%endblock kgrid_Monkhorst_Pack
xc.functional		LDA		# 'LDA', 'GGA'
xc.authors 	 		CA		# 'CA'='PZ', 'PW92', 'PBE'
SpinPolarized			F		# 'T', 'F'		
#FixSpin           F
#TotalSpin        0.0
NonCollinearSpin		F		# 'T', 'F'
MeshCutoff 	 		    200 Ry		# Equivalent plane wave cutoff for the grid
MaxSCFIterations                10000                2                10000                10000		10000
DM.MixingWeight			0.1
DM.NumberPulay			4	# Pulay convergency accelerator
DM.MixSCF1			    T
MixHamiltonian      T
DM.PulayOnFile			F		# Store in memory ('F') or in files ('T')
#DM.NumberKick         30
#DM.KickMixingWeight   0.1
DM.Tolerance 		1.0E-4
NeglNonOverlapInt		F		# 'F'=do not neglect
SolutionMethod			diagon
ElectronicTemperature		300 K		# Default value
DM.UseSaveDM 			T
#MD.UseSaveXV			T
#MD.UseSaveCG			T
WriteForces      T
WriteCoorXmol			T		# Write Atoms coordinates
SaveElectrostaticPotential      T
#SaveHS				T		# Save the Hamiltonian and Overlap matrices
SaveRho				T		# Save the valence pseudocharge density
#SaveDeltaRho			T
#WriteDenchar			T		# Write Denchar output
WriteMullikenPop		0 #write mulliken population of aromic and orbital charges
************************** End of input data file *****************************

reinit: -----------------------------------------------------------------------
reinit: System Name: dft_wfn                                                    
reinit: -----------------------------------------------------------------------
reinit: System Label: dft_wfn             
reinit: -----------------------------------------------------------------------

initatom: Reading input for the pseudopotentials and atomic orbitals ----------
 Species number:            1  Label: Li Atomic number:           3
Ground state valence configuration:   2s01
Reading pseudopotential information in formatted form from Li.psf
relmxkb: Read Max KB Ang. Momentum=    1 for species Li

<basis_specs>
===============================================================================
Li                   Z=   3    Mass=  6.9400        Charge=  0.0000    
Lmxo=0 Lmxkb=1     BasisType=split      Semic=F
L=0  Nsemic=0  Cnfigmx=2
          n=1  nzeta=1  polorb=0
               vcte:    0.0000    
               rinn:    0.0000    
                rcs:    0.0000    
            lambdas:    1.0000    
-------------------------------------------------------------------------------
L=0  Nkbl=1  erefs: 0.17977+309
L=1  Nkbl=1  erefs: 0.17977+309
===============================================================================
</basis_specs>

atom: Called for Li  (Z =   3)

read_vps: Pseudopotential generation method:
read_vps: ATM3      Troullier-Martins                       

read_vps: Valence configuration (pseudopotential and basis set generation):
2s( 1.00) rc: 2.26
2p( 0.00) rc: 2.26
read_vps: Spin-orbit interaction is not included in this calculation
Total valence charge:    1.00000

read_vps: Pseudopotential includes a core correction:
read_vps: Pseudo-core for xc-correction
comcore: Pseudo-core radius Rcore=  3.450946

xc_check: Exchange-correlation functional:
xc_check: Ceperley-Alder
xc_check: WARNING: Pseudopotential generated with
xc_check: WARNING: GGA Perdew, Burke & Ernzerhof 1996 functional
V l=0 = -2*Zval/r beyond r=  2.4014
V l=1 = -2*Zval/r beyond r=  2.4014
All V_l potentials equal beyond r=  2.2001
This should be close to max(r_c) in ps generation
All pots = -2*Zval/r beyond r=  2.4014

VLOCAL1: 99.0% of the norm of Vloc inside      8.968 Ry
VLOCAL1: 99.9% of the norm of Vloc inside     20.437 Ry
atom: Maximum radius for 4*pi*r*r*local-pseudopot. charge    2.55631
atom: Maximum radius for r*vlocal+2*Zval:    2.17278
GHOST: No ghost state for L =  0
GHOST: No ghost state for L =  1

KBgen: Kleinman-Bylander projectors: 
   l= 0   rc=  2.721230   el= -0.211995   Ekb=  1.936384   kbcos=  0.226371
   l= 1   rc=  2.860793   el= -0.081473   Ekb= -0.871273   kbcos= -0.142848

KBgen: Total number of  Kleinman-Bylander projectors:    4
atom: -------------------------------------------------------------------------

atom: SANKEY-TYPE ORBITALS:

SPLIT: Orbitals with angular momentum L= 0

SPLIT: Basis orbitals for state 2s

SPLIT: PAO cut-off radius determinated from an
SPLIT: energy shift=  0.020000 Ry

   izeta = 1
                 lambda =    1.000000
                     rc =    7.777862
                 energy =   -0.192109
                kinetic =    0.194479
    potential(screened) =   -0.386588
       potential(ionic) =   -0.562300
atom: Total number of Sankey-type orbitals:  1

atm_pop: Valence configuration(local Pseudopot. screening):
 2s( 1.00)                                                            
Vna: chval, zval:    1.00000   1.00000

Vna:  Cut-off radius for the neutral-atom potential:   7.777862

atom: _________________________________________________________________________

prinput: Basis input ----------------------------------------------------------

PAO.BasisType split     

%block ChemicalSpeciesLabel
    1    3 Li                      # Species index, atomic number, species label
%endblock ChemicalSpeciesLabel

%block PAO.Basis                 # Define Basis set
Li          1                    # Species label, number of l-shells
 n=2   0   1                         # n, l, Nzeta 
   7.778   
   1.000   
%endblock PAO.Basis

prinput: ----------------------------------------------------------------------


siesta: ******************** Simulation parameters ****************************
siesta:
siesta: The following are some of the parameters of the simulation.
siesta: A complete list of the parameters used, including defect values,
siesta: can be found in file out.fdf
siesta:
coor:   Atomic-coordinates input format  =     Cartesian coordinates
coor:                                          (in Angstroms)
redata: Number of spin components        =     1
redata: SpinOrbit                        =     0
redata: Long output                      =     F
redata: Number of Atomic Species         =     1
redata: Charge density info will appear in .RHO file
redata: Write Mulliken Pop.              =     NO
redata: Write Hamilton Pop.              =     NO
redata: Mesh Cutoff                      =   200.0000  Ry
redata: Net charge of the system         =     0.0000 |e|
redata: Max. number of SCF Iter          = 10000
redata: One Pulay mixing every           =     4 iterations
redata: Mix DM in first SCF step ?       =     T
redata: Write Pulay info on disk?        =     F
redata: New DM Mixing Weight             =     0.1000
redata: No kicks to SCF
redata: DM Mixing Weight for Kicks       =     0.5000
redata: DM Tolerance for SCF             =     0.000100
redata: Use continuation files for DM    =     T
redata: Neglect nonoverlap interactions  =     F
redata: Method of Calculation            =     Diagonalization
redata: Divide and Conquer               =     F
redata: Electronic Temperature           =     0.0019  Ry
redata: Fix the spin of the system       =     F
redata: Dynamics option                  =     CG coord. optimization
redata: Variable cell                    =     F
redata: Use continuation files for CG    =     F
redata: Maximum number of CG moves       =     0
redata: Max atomic displ per move        =     0.2000  Bohr
redata: Force tolerance                  =     0.0016  Ry/Bohr
redata: ***********************************************************************

siesta: Atomic coordinates (Bohr) and species
siesta:      0.00000   0.00000   0.00000  1        1
siesta:      0.00000   0.00000   5.66918  1        2
siesta:      0.00000   0.00000  11.33836  1        3
siesta:      0.00000   0.00000  17.00754  1        4
siesta:      0.00000   0.00000  22.67672  1        5
siesta:      0.00000   0.00000  28.34590  1        6
siesta:      0.00000   0.00000  34.01508  1        7
siesta:      0.00000   0.00000  39.68426  1        8
siesta:      0.00000   0.00000  45.35345  1        9
siesta:      0.00000   0.00000  51.02263  1       10
siesta:      0.00000   0.00000  56.69181  1       11
siesta:      0.00000   0.00000  62.36099  1       12

initatomlists: Number of atoms, orbitals, and projectors:     12    12    48

siesta: System type = chain     
 Nodes, Orbitals           2          12
 blocksizedefault           5

* ProcessorY, Blocksize:    1   5


siesta: k-grid: Number of k-points =     4
siesta: k-grid: Cutoff             =    12.000 Ang
siesta: k-grid: Supercell and displacements
siesta: k-grid:    2   0   0      0.000
siesta: k-grid:    0   2   0      0.000
siesta: k-grid:    0   0   1      0.000
siesta: overlap:  rmaxh   veclen  direction
siesta: overlap:  21.2773 22.6767   1
siesta: overlap:  rmaxh   veclen  direction
siesta: overlap:  21.2773 22.6767   2
siesta: overlap:  rmaxh   veclen  direction
siesta: overlap:  21.2773 68.0302   3
 label:           1 Li                             1 s      
 label:           2 Li                             2 s      
 label:           3 Li                             3 s      
 label:           4 Li                             4 s      
 label:           5 Li                             5 s      
 label:           6 Li                             6 s      
 label:           7 Li                             7 s      
 label:           8 Li                             8 s      
 label:           9 Li                             9 s      
 label:          10 Li                            10 s      
 label:          11 Li                            11 s      
 label:          12 Li                            12 s      
 
* Maximum dynamic memory allocated =     1 MB

siesta:                 ==============================
                            Begin CG move =      0
                        ==============================

read_ldau The LDA+U method used is from Czyzky PRB 49 14211
 NSCOBlocks=           0

InitMesh: MESH =   108 x   108 x   320 =     3732480
InitMesh: Mesh cutoff (required, used) =   200.000   218.372 Ry
 
* Maximum dynamic memory allocated =   121 MB

stepf: Fermi-Dirac step function

siesta: Program's energy decomposition (eV):
siesta: Eions   =       132.671799
siesta: Ena     =        63.210748
siesta: Ekin    =        31.738355
siesta: Enl     =        20.034121
siesta: DEna    =         0.000000
siesta: DUscf   =         0.000000
siesta: DUext   =         0.000000
siesta: Exc     =      -134.296669
siesta: eta*DQ  =         0.000000
siesta: Emadel  =         0.000000
siesta: Eharris =      -157.625891
siesta: Eso     =         0.000000
siesta: Etot    =      -151.985244
siesta: FreeEng =      -151.985244

siesta: iscf   Eharris(eV)      E_KS(eV)   FreeEng(eV)     dDmax   Ef(eV)
siesta:    1     -157.6259     -151.9852     -151.9852   0.39008  -2.9736
timer: Routine,Calls,Time,% = IterSCF        1       3.594  96.46
siesta:    2     -157.6286     -152.5495     -152.6211   0.35107  -2.9672
siesta:    3     -157.6405     -157.6405     -157.7122   0.00000  -2.9071

siesta: E_KS(eV) =             -157.6405

siesta: E_KS - E_eggbox =      -157.6405

siesta: Atomic forces (eV/Ang):
     1   -0.000000   -0.000000    0.000000
     2    0.000000    0.000000    0.000607
     3   -0.000000    0.000000   -0.000607
     4    0.000000    0.000000    0.000000
     5   -0.000000   -0.000000    0.000607
     6   -0.000000    0.000000   -0.000607
     7   -0.000000    0.000000    0.000000
     8    0.000000    0.000000    0.000607
     9   -0.000000    0.000000   -0.000607
    10    0.000000    0.000000    0.000000
    11   -0.000000    0.000000    0.000607
    12   -0.000000    0.000000   -0.000607
----------------------------------------
 Tot    0.000000    0.000000    0.000001
----------------------------------------
 Max    0.000607
 Res    0.000286    sqrt( Sum f_i^2 / 3N )
----------------------------------------
 Max    0.000607    constrained
 
* Maximum dynamic memory allocated =   122 MB

coxmol: Writing XMOL coordinates into file dft_wfn.xyz             

siesta: Eigenvalues (eV):
  ik is    eps
   1  1  -3.87  -3.78  -3.78  -3.47  -3.47  -2.91  -2.91  -1.92  -1.92  -0.29
         -0.29   0.98
   2  1  -3.87  -3.78  -3.78  -3.47  -3.47  -2.91  -2.91  -1.92  -1.92  -0.29
         -0.29   0.98
   3  1  -3.87  -3.78  -3.78  -3.47  -3.47  -2.91  -2.91  -1.92  -1.92  -0.29
         -0.29   0.98
   4  1  -3.87  -3.78  -3.78  -3.47  -3.47  -2.91  -2.91  -1.92  -1.92  -0.29
         -0.29   0.98
siesta: Fermi energy =      -2.907129 eV

siesta: Program's energy decomposition (eV):
siesta:-Eions   =    -132.671799
siesta: Ena     =      63.210748
siesta: Ekin    =      26.165814
siesta: Enl     =      21.041961
siesta: DEna    =      -0.552922
siesta: DUscf   =       0.021955
siesta: DUext   =       0.000000
siesta: Exc     =    -134.856296
siesta: eta*DQ  =       0.000000
siesta: Emadel  =       0.000000
siesta: Ekinion =       0.000000
siesta: Eharris =    -157.640539
siesta: Eso     =       0.000000
siesta: Etot    =    -157.640539
siesta: FreeEng =    -157.712216

siesta: Final energy (eV):
siesta:       Kinetic =      26.165814
siesta:       Hartree =      40.977939
siesta:    Ext. field =       0.000000
siesta:   Exch.-corr. =    -134.856296
siesta:  Ion-electron =     -90.774818
siesta:       Ion-ion =       0.846822
siesta:       Ekinion =       0.000000
siesta:         Total =    -157.640539

siesta: Stress tensor (static) (eV/Ang**3):
siesta:    -0.000001   -0.000000    0.000000
siesta:    -0.000000   -0.000001    0.000000
siesta:     0.000000    0.000000   -0.000084

siesta: Cell volume =       5184.000000 Ang**3

siesta: Pressure (static):
siesta:                Solid            Molecule  Units
siesta:           0.00000032          0.00000032  Ry/Bohr**3
siesta:           0.00002900          0.00002947  eV/Ang**3
siesta:           0.04646244          0.04721263  kBar

siesta: Total spin polarization (Qup-Qdown) =    0.000000
siesta: Spin vector =    0.000000    0.000000    0.000000
siesta: No SpinPolK block detected...

siesta: Electric dipole (a.u.)  =    0.000000    0.000000    0.000000
siesta: Electric dipole (Debye) =    0.000000    0.000000    0.000000
 
* Maximum dynamic memory allocated : Node    0 =   122 MB
* Maximum memory occured during redistribXZ                   
* Maximum dynamic memory allocated : Node    1 =   121 MB

timer: CPU execution times:
timer:  Routine       Calls   Time/call    Tot.time        %
timer:  siesta            1      12.054      12.054   100.00
timer:  Setup             1       0.126       0.126     1.05
timer:  bands             1       0.000       0.000     0.00
timer:  writewave         1       0.001       0.001     0.00
timer:  KSV_init          1       0.000       0.000     0.00
timer:  IterMD            1       9.559       9.559    79.30
timer:  hsparse           2       0.000       0.000     0.00
timer:  overfsm           2       0.001       0.001     0.01
timer:  IterSCF           4       2.385       9.538    79.13
timer:  kinefsm           2       0.000       0.001     0.01
timer:  nlefsm            2       0.003       0.005     0.04
timer:  DHSCF             5       2.365      11.825    98.10
timer:  DHSCF1            1       0.249       0.249     2.07
timer:  DHSCF2            1       1.609       1.609    13.35
timer:  REORD            66       0.012       0.768     6.37
timer:  POISON            6       0.972       5.831    48.37
timer:  DHSCF3            5       1.804       9.021    74.83
timer:  rhoofd            5       0.061       0.305     2.53
timer:  CELLXC            5       0.164       0.818     6.79
timer:  vmat              4       0.048       0.193     1.60
timer:  diagon            3       0.008       0.023     0.19
timer:  cdiag            24       0.001       0.019     0.16
timer:  DHSCF4            1       0.941       0.941     7.80
timer:  dfscf             1       0.658       0.658     5.46
  
>> End of run:   1-NOV-2023  17:09:14
