ATOMS
H             0.00000000      0.00000000     -0.00998254             0.70710578      0.00118439      0.00011901
H             0.00000000      0.00000000      0.73998166            -0.70710578     -0.00118439     -0.00011901
