ATOMS
H             0.00000000      0.00000000     -0.00998254            -0.00003327     -0.68061389     -0.19174132
H             0.00000000      0.00000000      0.73998166            -0.00003327     -0.68061389     -0.19174132
