ATOMS
H             0.00000000      0.00000000     -0.00998254            -0.00000433     -0.22115310     -0.67163331
H             0.00000000      0.00000000      0.73998166            -0.00000433     -0.22115310     -0.67163331
