SIESTA 1.3.7  -- [1.3f1 release] (04 Feb 2004)
Architecture  : 
Compiler flags:  -O3  -g -traceback -check bounds
PARALLEL version

* Running on    2 nodes in parallel
>> Start of run:  24-DEC-2013  15:03:24

                           ***********************       
                           *  WELCOME TO SIESTA  *       
                           ***********************       

reinit: Reading from standard input
************************** Dump of input data file ****************************
#
SystemName                   mol            # Descriptive name of the system
SystemLabel                  mol            # Short name for naming files
NumberOfSpecies              1             # Number of species
NumberOfAtoms                2           # Number of atoms
%block ChemicalSpeciesLabel
 1    1   H
%endblock ChemicalSpeciesLabel
# ps
%block Ps.lmax
  H     3
%endblock Ps.lmax
# Basis
PAO.BasisType                split         # Type of basis ('nones', 'nonodes', 'split')
PAO.SplitNorm  0.15
PAO.EnergyShift              10 meV
PAO.BasisSize                DZP
%block PAO.Basis                           # basis
H     2      0.00
 n=1    0    2   E      2.07      0.50
   5.75  1.5
   1.000   1.000
 n=2    1    1   E      0.89      0.01
   5.500
   1.000
%endblock PAO.Basis
# lattice vectors
LatticeConstant              1.0 Ang
%block LatticeVectors
         8.86712000        0.00000000        0.00000000
         0.00000        8.86712000        0.00000000
         0.00000000        0.00000000       38.72
%endblock LatticeVectors
# coordinates
AtomicCoordinatesFormat      Ang
%block AtomicCoordinatesAndAtomicSpecies
    3.25344899    5.72008407   18.92671044   1  H         61
    3.26028861    5.72635255   19.79542680   1  H         62
%endblock AtomicCoordinatesAndAtomicSpecies
# constrains in relaxation
# real space mesh grid
MeshCutoff                   800.0 Ry
%block GridCellSampling
  0.5  0.5   0.0
  0.5  0.0   0.5
  0.0  0.5   0.5
%endblock GridCellSampling
# reciprocal space
%block kgrid_Monkhorst_Pack
  1   0   0    0.0
  0   1   0    0.0
  0   0   1    0.0
%endblock kgrid_Monkhorst_Pack
#ProcessorY                   4
#BlockSize                    100
# functional
xc.functional                GGA           # 'LDA', 'GGA'
xc.authors                   PBE           # 'CA'='PZ', 'PW92', 'PBE'
# scf
MaxSCFIterations             300
DM.MixingWeight              0.02
DM.Tolerance                 1.0E-4
DM.UseSaveDM                 T
DM.NumberPulay               6             # Pulay convergency accelerator
SolutionMethod               diagon
ElectronicTemperature        300 K         # Default value
# MD options
MD.TypeOfRun                 cg           # Type of dynamics:
MD.VariableCell              false         # if vary cell
MD.NumCGsteps                0             # Number of CG steps for relaxation
MD.MaxCGDispl                0.08 Ang     # Maximum atomic displacement at one step
MD.MaxForceTol               0.01 eV/Ang   # Tolerance in the maximum force min(fx, fy, fz)
MD.MaxStressTol              0.1 Gpa
MD.FCDispl                 0.02 ang
MD.FCIR                    F
MD.FCEigenVectors          T
MD.FCfirst                 59
MD.FClast                  64
MD.FCAcousticSumRule       F
MD.FCRead                  F
MD.FCAtomRestart           96
MD.FCAxisRestart           1
#Siesta Output Flags
#Siesta Output Flags
SaveHS                       T           # Hamiltonian and overlap in sparse
SaveRHO                      T
WriteMullikenPop             2
WriteHamiltonPop             2
WriteForces                  T
WriteCoorStep                T
SaveElectrostaticPotential   T             # Hartree Potential file
************************** End of input data file *****************************

reinit: -----------------------------------------------------------------------
reinit: System Name: mol                                                        
reinit: -----------------------------------------------------------------------
reinit: System Label: mol                 
reinit: -----------------------------------------------------------------------

initatom: Reading input for the pseudopotentials and atomic orbitals ----------
 Species number:            1  Label: H Atomic number:           1
Ground state valence configuration:   1s01
Reading pseudopotential information in formatted form from H.psf
relmxkb: Read Max KB Ang. Momentum=    3 for species H

<basis_specs>
===============================================================================
H                    Z=   1    Mass=  1.0100        Charge=  0.0000    
Lmxo=1 Lmxkb=3     BasisType=split      Semic=F
L=0  Nsemic=0  Cnfigmx=1
          n=1  nzeta=2  polorb=0
               vcte:    2.0700    
               rinn:   0.50000    
                rcs:    5.7500      1.5000    
            lambdas:    1.0000      1.0000    
L=1  Nsemic=0  Cnfigmx=2
          n=1  nzeta=1  polorb=0
               vcte:   0.89000    
               rinn:   0.10000E-01
                rcs:    5.5000    
            lambdas:    1.0000    
-------------------------------------------------------------------------------
L=0  Nkbl=1  erefs: 0.17977+309
L=1  Nkbl=1  erefs: 0.17977+309
L=2  Nkbl=1  erefs: 0.17977+309
L=3  Nkbl=1  erefs: 0.17977+309
===============================================================================
</basis_specs>

atom: Called for H   (Z =   1)

read_vps: Pseudopotential generation method:
read_vps: ATM3      Troullier-Martins                       

read_vps: Valence configuration (pseudopotential and basis set generation):
1s( 1.00) rc: 1.89
2p( 0.00) rc: 1.80
3d( 0.00) rc: 1.49
4f( 0.00) rc: 1.49
read_vps: Spin-orbit interaction is not included in this calculation
Total valence charge:    1.00000

xc_check: Exchange-correlation functional:
xc_check: GGA Perdew, Burke & Ernzerhof 1996
V l=0 = -2*Zval/r beyond r=  1.8658
V l=1 = -2*Zval/r beyond r=  1.7970
V l=2 = -2*Zval/r beyond r=  1.8196
V l=3 = -2*Zval/r beyond r=  1.8196
All V_l potentials equal beyond r=  1.8658
This should be close to max(r_c) in ps generation
All pots = -2*Zval/r beyond r=  1.8658

VLOCAL1: 99.0% of the norm of Vloc inside     12.470 Ry
VLOCAL1: 99.9% of the norm of Vloc inside     28.418 Ry
atom: Maximum radius for 4*pi*r*r*local-pseudopot. charge    2.16811
atom: Maximum radius for r*vlocal+2*Zval:    1.84256
GHOST: No ghost state for L =  0
GHOST: No ghost state for L =  1
GHOST: No ghost state for L =  2
GHOST: No ghost state for L =  3

KBgen: Kleinman-Bylander projectors: 
   l= 0   rc=  2.011274   el= -0.477200   Ekb= -1.572097   kbcos= -0.493163
   l= 1   rc=  2.141150   el=  0.001076   Ekb= -0.356432   kbcos= -0.050277
   l= 2   rc=  2.195416   el=  0.002010   Ekb= -0.177656   kbcos= -0.007774
   l= 3   rc=  2.251056   el=  0.003122   Ekb= -0.068270   kbcos= -0.002268

KBgen: Total number of  Kleinman-Bylander projectors:   16
atom: -------------------------------------------------------------------------

atom: SANKEY-TYPE ORBITALS:
atom: Selected multiple-zeta basis: split     

SPLIT: Orbitals with angular momentum L= 0

SPLIT: Basis orbitals for state 1s

   izeta = 1
                 lambda =    1.000000
                     rc =    5.752124
                 energy =   -0.469599
                kinetic =    0.919264
    potential(screened) =   -1.388863
       potential(ionic) =   -1.911599

   izeta = 2
                 rmatch =    1.527112
              splitnorm =    0.807394
                 energy =    2.126033
                kinetic =    5.261681
    potential(screened) =   -3.135649
       potential(ionic) =   -3.696632

SPLIT: Orbitals with angular momentum L= 1

SPLIT: Basis orbitals for state 2p

   izeta = 1
                 lambda =    1.000000
                     rc =    5.471469
                 energy =    0.371359
                kinetic =    0.737398
    potential(screened) =   -0.366040
       potential(ionic) =   -0.791603
atom: Total number of Sankey-type orbitals:  5

atm_pop: Valence configuration(local Pseudopot. screening):
 1s( 1.00)                                                            
 2p( 0.00)                                                            
Vna: chval, zval:    1.00000   1.00000

Vna:  Cut-off radius for the neutral-atom potential:   5.752124

atom: _________________________________________________________________________

prinput: Basis input ----------------------------------------------------------

PAO.BasisType split     

%block ChemicalSpeciesLabel
    1    1 H                       # Species index, atomic number, species label
%endblock ChemicalSpeciesLabel

%block PAO.Basis                 # Define Basis set
H           2                    # Species label, number of l-shells
 n=1   0   2                         # n, l, Nzeta 
   5.752      1.527   
   1.000      1.000   
 n=2   1   1                         # n, l, Nzeta 
   5.471   
   1.000   
%endblock PAO.Basis

prinput: ----------------------------------------------------------------------


siesta: ******************** Simulation parameters ****************************
siesta:
siesta: The following are some of the parameters of the simulation.
siesta: A complete list of the parameters used, including defect values,
siesta: can be found in file out.fdf
siesta:
coor:   Atomic-coordinates input format  =     Cartesian coordinates
coor:                                          (in Angstroms)
redata: Number of spin components        =     1
redata: SpinOrbit                        =     0
redata: Long output                      =     F
redata: Number of Atomic Species         =     1
redata: Charge density info will appear in .RHO file
redata: Write Mulliken Pop.              =     Atomic and Orbital charges
                                             plus Atomic Overlap Populations
redata: Write Hamilton Pop.              =     Atomic and Orbital energies
                                             plus Atomic Overlap Populations
redata: Mesh Cutoff                      =   800.0000  Ry
redata: Net charge of the system         =     0.0000 |e|
redata: Max. number of SCF Iter          =   300
redata: One Pulay mixing every           =     6 iterations
redata: Mix DM in first SCF step ?       =     F
redata: Write Pulay info on disk?        =     F
redata: New DM Mixing Weight             =     0.0200
redata: No kicks to SCF
redata: DM Mixing Weight for Kicks       =     0.5000
redata: DM Tolerance for SCF             =     0.000100
redata: Use continuation files for DM    =     T
redata: Neglect nonoverlap interactions  =     F
redata: Method of Calculation            =     Diagonalization
redata: Divide and Conquer               =     F
redata: Electronic Temperature           =     0.0019  Ry
redata: Fix the spin of the system       =     F
redata: Dynamics option                  =     CG coord. optimization
redata: Variable cell                    =     F
redata: Use continuation files for CG    =     F
redata: Maximum number of CG moves       =     0
redata: Max atomic displ per move        =     0.1512  Bohr
redata: Force tolerance                  =     0.0004  Ry/Bohr
redata: ***********************************************************************

siesta: Atomic coordinates (Bohr) and species
siesta:      6.14813  10.80940  35.76631  1        1
siesta:      6.16106  10.82124  37.40795  1        2

initatomlists: Number of atoms, orbitals, and projectors:      2    10    32

siesta: System type = molecule  
 Nodes, Orbitals           2          10
 blocksizedefault           4

* ProcessorY, Blocksize:    1   4

 Using EM.ParallelOverKNum =           1
 label:           1 H                              1 s      
 label:           2 H                              1 s      
 label:           3 H                              1 py     
 label:           4 H                              1 pz     
 label:           5 H                              1 px     
 label:           6 H                              2 s      
 label:           7 H                              2 s      
 label:           8 H                              2 py     
 label:           9 H                              2 pz     
 label:          10 H                              2 px     
 
* Maximum dynamic memory allocated =     1 MB

siesta:                 ==============================
                            Begin CG move =      0
                        ==============================

outcoor: Atomic coordinates (Ang):                          
    3.25344899    5.72008407   18.92671044   1  H          1
    3.26028861    5.72635255   19.79542680   1  H          2

read_ldau The LDA+U method used is from Czyzky PRB 49 14211

InitMesh: MESH =   160 x   160 x   720 =    18432000
InitMesh: Mesh cutoff (required, used) =   800.000   899.863 Ry
 
* Maximum dynamic memory allocated =   532 MB
 listhptr=           0          10          20          30
 listhptr=           0          10          20          30          40
          50

stepf: Fermi-Dirac step function

siesta: Program's energy decomposition (eV):
siesta: Eions   =        26.074526
siesta: Ena     =         3.178121
siesta: Ekin    =        25.015182
siesta: Enl     =       -12.950099
siesta: DEna    =         0.000000
siesta: DUscf   =         0.000000
siesta: DUext   =         0.000000
siesta: Exc     =       -15.827036
siesta: eta*DQ  =         0.000000
siesta: Emadel  =         0.000000
siesta: Eharris =       -31.201969
siesta: Eso     =         0.000000
siesta: Etot    =       -26.658358
siesta: FreeEng =       -26.658358

siesta: iscf   Eharris(eV)      E_KS(eV)   FreeEng(eV)     dDmax   Ef(eV)
siesta:    1      -31.2020      -26.6584      -26.6584   0.50299  -5.4340
timer: Routine,Calls,Time,% = IterSCF        1      42.730  98.22
 listhptr=           0          10          20          30
 listhptr=           0          10          20          30          40
          50
siesta:    2      -31.1468      -31.1429      -31.1429   0.00970  -4.4173
 listhptr=           0          10          20          30
 listhptr=           0          10          20          30          40
          50
siesta:    3      -31.1467      -31.1255      -31.1255   0.01144  -4.4231
 listhptr=           0          10          20          30
 listhptr=           0          10          20          30          40
          50
siesta:    4      -31.1466      -31.1465      -31.1465   0.00003  -4.4913
grdsam: Reading %block GridCellSampling
grdsam: Grid-cell sampling, point   0
grdsam: Generating displacements for grid-cell sampling
grdsam: Grid-cell sampling, point   1
grdsam: Grid-cell sampling, point   2
grdsam: Grid-cell sampling, point   3

siesta: E_KS(eV) =              -31.1464

siesta: E_KS - E_eggbox =       -31.1464

siesta: Atomic forces (eV/Ang):
     1    0.021692    0.019879    2.757167
     2   -0.021684   -0.019871   -2.757196
----------------------------------------
 Tot    0.000008    0.000008   -0.000030
----------------------------------------
 Max    2.757196
 Res    1.591950    sqrt( Sum f_i^2 / 3N )
----------------------------------------
 Max    2.757196    constrained
 
mulliken: Overlap Populations between Atoms
 
                 1       2
           1   0.592   0.408
           2   0.408   0.592
 
mulliken: Atomic and Orbital Populations:

Species: H                   
Atom  Qatom  Qorb
               1s      1s      2py     2pz     2px     
   1  1.000   0.928   0.059   0.000   0.013   0.000
   2  1.000   0.928   0.059   0.000   0.013   0.000

mulliken: Qtot =    2.000

***************************************************************************************************
 
hamilton: Energy Populations between Atoms
 
                   1           2
           1      -4.605      -5.788
           2      -5.788      -4.605
 
hamilton: Atomic and Orbital Populations:

Species: H                   
Atom      Eatom      Eorb
                      1s         1s         2py        2pz        2px     
   1    -10.393     -9.647     -0.611      0.000     -0.135      0.000
   2    -10.393     -9.647     -0.611      0.000     -0.135      0.000

hamilton: Etot =     -20.786
 
* Maximum dynamic memory allocated =   532 MB

siesta: Eigenvalues (eV):
  ik is    eps
   1  1 -10.39   0.61   4.13   4.13   9.19  10.31  10.31  16.00  48.17  85.94
siesta: Fermi energy =      -4.491254 eV

siesta: Program's energy decomposition (eV):
siesta:-Eions   =     -26.074526
siesta: Ena     =       3.178121
siesta: Ekin    =      24.188920
siesta: Enl     =     -14.839393
siesta: DEna    =      -0.942249
siesta: DUscf   =       0.151423
siesta: DUext   =       0.000000
siesta: Exc     =     -16.808653
siesta: eta*DQ  =       0.000000
siesta: Emadel  =       0.000000
siesta: Ekinion =       0.000000
siesta: Eharris =     -31.146552
siesta: Eso     =       0.000000
siesta: Etot    =     -31.146357
siesta: FreeEng =     -31.146357

siesta: Final energy (eV):
siesta:       Kinetic =      24.188920
siesta:       Hartree =      33.887294
siesta:    Ext. field =       0.000000
siesta:   Exch.-corr. =     -16.808653
siesta:  Ion-electron =     -91.157881
siesta:       Ion-ion =      18.743962
siesta:       Ekinion =       0.000000
siesta:         Total =     -31.146357

siesta: Atomic forces (eV/Ang):
siesta:    1    0.021692    0.019879    2.757167
siesta:    2   -0.021684   -0.019871   -2.757196
siesta: ----------------------------------------
siesta:  Tot    0.000008    0.000008   -0.000030

siesta: Stress tensor (static) (eV/Ang**3):
siesta:     0.000000    0.000000    0.000006
siesta:     0.000000    0.000000    0.000006
siesta:     0.000006    0.000006    0.000787

siesta: Cell volume =       3044.391638 Ang**3

siesta: Pressure (static):
siesta:                Solid            Molecule  Units
siesta:          -0.00000286          0.00000000  Ry/Bohr**3
siesta:          -0.00026227          0.00000002  eV/Ang**3
siesta:          -0.42019964          0.00002948  kBar

siesta: Total spin polarization (Qup-Qdown) =    0.000000
siesta: Spin vector =    0.000000    0.000000    0.000000
siesta: No SpinPolK block detected...

siesta: Electric dipole (a.u.)  =    0.000000    0.000000    0.000000
siesta: Electric dipole (Debye) =    0.000000    0.000000    0.000000
 
* Maximum dynamic memory allocated : Node    0 =   532 MB
* Maximum memory occured during redistribXZ                   
* Maximum dynamic memory allocated : Node    1 =   532 MB

timer: CPU execution times:
timer:  Routine       Calls   Time/call    Tot.time        %
timer:  siesta            1     330.361     330.361   100.00
timer:  Setup             1       0.725       0.725     0.22
timer:  bands             1       0.002       0.002     0.00
timer:  writewave         1       0.002       0.002     0.00
timer:  KSV_init          1       0.000       0.000     0.00
timer:  IterMD            1     283.163     283.163    85.71
timer:  hsparse           2       0.000       0.000     0.00
timer:  overfsm           2       0.022       0.045     0.01
timer:  IterSCF           5      56.622     283.110    85.70
timer:  kinefsm           2       0.019       0.038     0.01
timer:  nlefsm            2       0.251       0.503     0.15
timer:  DHSCF             9      36.511     328.597    99.47
timer:  DHSCF1            1       1.420       1.420     0.43
timer:  DHSCF2            5      14.337      71.683    21.70
timer:  REORD           122       0.134      16.353     4.95
timer:  POISON           14      12.097     169.361    51.27
timer:  DHSCF3            9      26.842     241.577    73.13
timer:  rhoofd            9       0.532       4.787     1.45
timer:  CELLXC            9       8.337      75.031    22.71
timer:  vmat              5       0.374       1.868     0.57
timer:  diagon            4       0.054       0.215     0.07
timer:  rdiag             4       0.049       0.196     0.06
timer:  DHSCF4            4       3.474      13.897     4.21
timer:  dfscf             4       3.153      12.612     3.82
  
>> End of run:  24-DEC-2013  15:06:25
