SIESTA 1.3.7  -- [1.3f1 release] (04 Feb 2004)
Architecture  : CRAY
Compiler flags:  -O3 -fallow-argument-mismatch -ffree-line-length-none  -fopenmp 
PARALLEL version

* Running on   64 nodes in parallel
 OMP_NUM_THREADS environment variable=1                                        0
 MKL_NUM_THREADS environment variable=1                                        0
 OMP_NUM_THREADS environment variable=1                                        1
 MKL_NUM_THREADS environment variable=1                                        1
 Maximum number of Threads, node index:           1           0
 Maximum number of Threads, node index:           1           1
 Maximum number of Threads, node index:           1           2
 Maximum number of Threads, node index:           1           3
 Maximum number of Threads, node index:           1          15
 Maximum number of Threads, node index:           1          18
 Maximum number of Threads, node index:           1          41
 Maximum number of Threads, node index:           1          13
 Maximum number of Threads, node index:           1          53
 Maximum number of Threads, node index:           1          10
 Maximum number of Threads, node index:           1          11
 Maximum number of Threads, node index:           1          22
 Maximum number of Threads, node index:           1          36
 Maximum number of Threads, node index:           1          12
 Maximum number of Threads, node index:           1          48
 Maximum number of Threads, node index:           1          49
 Maximum number of Threads, node index:           1          51
 Maximum number of Threads, node index:           1          63
 Maximum number of Threads, node index:           1           4
 Maximum number of Threads, node index:           1           5
 Maximum number of Threads, node index:           1           6
 Maximum number of Threads, node index:           1           7
 Maximum number of Threads, node index:           1           8
 Maximum number of Threads, node index:           1           9
 Maximum number of Threads, node index:           1          14
 Maximum number of Threads, node index:           1          16
 Maximum number of Threads, node index:           1          17
 Maximum number of Threads, node index:           1          19
 Maximum number of Threads, node index:           1          20
 Maximum number of Threads, node index:           1          21
 Maximum number of Threads, node index:           1          23
 Maximum number of Threads, node index:           1          24
 Maximum number of Threads, node index:           1          25
 Maximum number of Threads, node index:           1          26
 Maximum number of Threads, node index:           1          27
 Maximum number of Threads, node index:           1          28
 Maximum number of Threads, node index:           1          29
 Maximum number of Threads, node index:           1          30
 Maximum number of Threads, node index:           1          31
 Maximum number of Threads, node index:           1          32
 Maximum number of Threads, node index:           1          33
 Maximum number of Threads, node index:           1          34
 Maximum number of Threads, node index:           1          35
 Maximum number of Threads, node index:           1          37
 Maximum number of Threads, node index:           1          38
 Maximum number of Threads, node index:           1          39
 Maximum number of Threads, node index:           1          40
 Maximum number of Threads, node index:           1          42
 Maximum number of Threads, node index:           1          43
 Maximum number of Threads, node index:           1          44
 Maximum number of Threads, node index:           1          45
 Maximum number of Threads, node index:           1          46
 Maximum number of Threads, node index:           1          47
 Maximum number of Threads, node index:           1          50
 Maximum number of Threads, node index:           1          52
 Maximum number of Threads, node index:           1          54
 Maximum number of Threads, node index:           1          55
 Maximum number of Threads, node index:           1          56
 Maximum number of Threads, node index:           1          57
 Maximum number of Threads, node index:           1          58
 Maximum number of Threads, node index:           1          59
 Maximum number of Threads, node index:           1          60
 Maximum number of Threads, node index:           1          61
 Maximum number of Threads, node index:           1          62
 In parallel region?  F
 Number of Threads in parallel region           1
 Node index, Thread index           0           0
>> Start of run:  12-SEP-2023  15:56:05

                           ***********************       
                           *  WELCOME TO SIESTA  *       
                           ***********************       

reinit: Reading from standard input
************************** Dump of input data file ****************************
#
SystemName                   lead          # Descriptive name of the system
SystemLabel                  lead          # Short name for naming files
NumberOfSpecies              1             # Number of species
NumberOfAtoms                36            # Number of atoms
%block ChemicalSpeciesLabel
 1   79   Au
%endblock ChemicalSpeciesLabel
# ps
%block Ps.lmax
  Au    3
%endblock Ps.lmax
# Basis
PAO.BasisType                split         # Type of basis ('nones', 'nonodes', 'split')
PAO.SplitNorm                0.15
%block PAO.Basis                           # basis
Au 2
n=6   0   2 P   1                   # n, l, Nzeta, Polarization, NzetaPol
6.0 0.0
n=5   2   1                         # n, l, Nzeta
5.5
%endblock PAO.Basis
# lattice vectors
LatticeConstant              1.0 Ang
%block LatticeVectors
         8.86712000        0.00000000        0.00000000
         0.00000        8.86712000        0.00000000
         0.00000000        0.00000000       8.36000000
%endblock LatticeVectors
# coordinates
AtomicCoordinatesFormat      Ang
%block AtomicCoordinatesAndAtomicSpecies
          1.78720903       1.28067091       0.00000000      1     Au      1
          0.30935586       2.75852409       2.09000000      1     Au      2
          1.78720903       1.28067091       4.18000000      1     Au      3
          0.30935586       2.75852409       6.27000000      1     Au      4
          4.74291537       1.28067091       0.00000000      1     Au      5
          3.26506220       2.75852409       2.09000000      1     Au      6
          4.74291537       1.28067091       4.18000000      1     Au      7
          3.26506220       2.75852409       6.27000000      1     Au      8
          7.69862172       1.28067091       0.00000000      1     Au      9
          6.22076855       2.75852409       2.09000000      1     Au     10
          7.69862172       1.28067091       4.18000000      1     Au     11
          6.22076855       2.75852409       6.27000000      1     Au     12
          1.78720903       4.23637726       0.00000000      1     Au     13
          0.30935586       5.71423043       2.09000000      1     Au     14
          1.78720903       4.23637726       4.18000000      1     Au     15
          0.30935586       5.71423043       6.27000000      1     Au     16
          4.74291537       4.23637726       0.00000000      1     Au     17
          3.26506220       5.71423043       2.09000000      1     Au     18
          4.74291537       4.23637726       4.18000000      1     Au     19
          3.26506220       5.71423043       6.27000000      1     Au     20
          7.69862172       4.23637726       0.00000000      1     Au     21
          6.22076855       5.71423043       2.09000000      1     Au     22
          7.69862172       4.23637726       4.18000000      1     Au     23
          6.22076855       5.71423043       6.27000000      1     Au     24
          1.78720903       7.19208360       0.00000000      1     Au     25
          0.30935586       8.66993678       2.09000000      1     Au     26
          1.78720903       7.19208360       4.18000000      1     Au     27
          0.30935586       8.66993678       6.27000000     1
          4.74291537       7.19208360       0.00000000     1
          3.26506220       8.66993678       2.09000000     1
          4.74291537       7.19208360       4.18000000     1
          3.26506220       8.66993678       6.27000000     1
          7.69862172       7.19208360       0.00000000     1
          6.22076855       8.66993678       2.09000000     1
          7.69862172       7.19208360       4.18000000     1
          6.22076855       8.66993678       6.27000000     1
%endblock AtomicCoordinatesAndAtomicSpecies
# constrains in dynamics
#%block GeometryConstraints
#   position   from  1 to  6
#   position   from -1 to -6
#%endblock GeometryConstraints
# real space mesh grid
MeshCutoff                   800.0 Ry
%block GridCellSampling
  0.5  0.5   0.0
  0.5  0.0   0.5
  0.0  0.5   0.5
%endblock GridCellSampling
# reciprocal space
%block kgrid_Monkhorst_Pack
  1   0   0    0.0
  0   1   0    0.0
  0   0   20   0.0
%endblock kgrid_Monkhorst_Pack
#ProcessorY                   4
#BlockSize                    100
# functional
xc.functional                GGA           # 'LDA', 'GGA'
xc.authors                   PBE           # 'CA'='PZ', 'PW92', 'PBE'
# scf
MaxSCFIterations             300
DM.MixingWeight              0.02
DM.Tolerance                 1.0E-4
DM.UseSaveDM                 T
DM.NumberPulay               6             # Pulay convergency accelerator
DM.MixSCF1                   F
SolutionMethod               diagon
ElectronicTemperature        300 K         # Default value
# MD options
MD.TypeOfRun                 cg            # Type of dynamics:
MD.VariableCell              false         # if vary cell
MD.NumCGsteps                0             # Number of CG steps for relaxation
MD.MaxCGDispl                0.1 Ang      # Maximum atomic displacement at one step
MD.MaxForceTol               0.03 eV/Ang   # Tolerance in the maximum force min(fx, fy, fz)
MD.MaxStressTol              0.1 Gpa
#Siesta Output Flags
SaveHS                       true          # Hamiltonian and overlap in sparse
SaveRHO                      T
WriteMullikenPop             1
WriteForces                  T
WriteCoorStep                T
SaveElectrostaticPotential   T             # Hartree Potential file
##for smeagol-trans
#SetBulkTransvCell           T
BulkTransport                T
BulkLeads                    LR
WriteEDM                     T
WriteFDM                     T
SaveElectrostaticPotential   T             # Generate 0.*.VH file for Hartree potential leveling
************************** End of input data file *****************************

reinit: -----------------------------------------------------------------------
reinit: System Name: lead                                                       
reinit: -----------------------------------------------------------------------
reinit: System Label: lead                
reinit: -----------------------------------------------------------------------

initatom: Reading input for the pseudopotentials and atomic orbitals ----------
 Species number:            1  Label: Au Atomic number:          79
Ground state valence configuration:   6s01  5d10
Reading pseudopotential information in formatted form from Au.psf
relmxkb: Read Max KB Ang. Momentum=    3 for species Au
 Warning: Empty PAO shell. l =           1
 Will have a KB projector anyway...

<basis_specs>
===============================================================================
Au                   Z=  79    Mass=  196.97        Charge=  0.0000    
Lmxo=2 Lmxkb=3     BasisType=split      Semic=F
L=0  Nsemic=0  Cnfigmx=6
          n=1  nzeta=2  polorb=1
               vcte:    0.0000    
               rinn:    0.0000    
                rcs:    6.0000      0.0000    
            lambdas:    1.0000      1.0000    
L=1  Nsemic=0  Cnfigmx=6
L=2  Nsemic=0  Cnfigmx=5
          n=1  nzeta=1  polorb=0
               vcte:    0.0000    
               rinn:    0.0000    
                rcs:    5.5000    
            lambdas:    1.0000    
-------------------------------------------------------------------------------
L=0  Nkbl=1  erefs: 0.17977+309
L=1  Nkbl=1  erefs: 0.17977+309
L=2  Nkbl=1  erefs: 0.17977+309
L=3  Nkbl=1  erefs: 0.17977+309
===============================================================================
</basis_specs>

atom: Called for Au  (Z =  79)

read_vps: Pseudopotential generation method:
read_vps: ATM 3.2.2 Troullier-Martins                       

read_vps: Pseudopotential generated from a relativistic atomic calculation
read_vps: There are spin-orbit pseudopotentials available

read_vps: Valence configuration (pseudopotential and basis set generation):
6s( 1.00) rc: 2.57
6p( 0.00) rc: 2.70
5d(10.00) rc: 2.57
5f( 0.00) rc: 2.57
Total valence charge:   11.00000

xc_check: Exchange-correlation functional:
xc_check: GGA Perdew, Burke & Ernzerhof 1996
V l=0 = -2*Zval/r beyond r=  2.8378
V l=1 = -2*Zval/r beyond r=  2.8026
V l=2 = -2*Zval/r beyond r=  2.8378
V l=3 = -2*Zval/r beyond r=  2.8378
All V_l potentials equal beyond r=  2.6659
This should be close to max(r_c) in ps generation
All pots = -2*Zval/r beyond r=  2.8378

VLOCAL1: 99.0% of the norm of Vloc inside      6.108 Ry
VLOCAL1: 99.9% of the norm of Vloc inside     13.920 Ry
atom: Maximum radius for 4*pi*r*r*local-pseudopot. charge    3.21569
atom: Maximum radius for r*vlocal+2*Zval:    2.83783
GHOST: No ghost state for L =  0
GHOST: No ghost state for L =  1
GHOST: No ghost state for L =  2
GHOST: No ghost state for L =  3

KBgen: Kleinman-Bylander projectors: 
   l= 0   rc=  3.338571   el= -0.421346   Ekb=  4.108132   kbcos=  0.281999
   l= 1   rc=  3.509744   el= -0.057987   Ekb=  2.158847   kbcos=  0.223567
   l= 2   rc=  2.909675   el= -0.508781   Ekb= -5.041211   kbcos= -0.695264
   l= 3   rc=  3.878871   el=  0.003083   Ekb= -1.533214   kbcos= -0.016134

KBgen: Total number of  Kleinman-Bylander projectors:   16
atom: -------------------------------------------------------------------------

atom: SANKEY-TYPE ORBITALS:
atom: Selected multiple-zeta basis: split     

SPLIT: Orbitals with angular momentum L= 0

SPLIT: Basis orbitals for state 6s

   izeta = 1
                 lambda =    1.000000
                     rc =    6.083298
                 energy =   -0.401153
                kinetic =    0.393167
    potential(screened) =   -0.794320
       potential(ionic) =   -8.569036

   izeta = 2
                 rmatch =    5.714728
              splitnorm =    0.150000
                 energy =   -0.341190
                kinetic =    0.593789
    potential(screened) =   -0.934979
       potential(ionic) =   -9.135222

SPLIT: Orbitals with angular momentum L= 2

SPLIT: Basis orbitals for state 5d

   izeta = 1
                 lambda =    1.000000
                     rc =    5.504393
                 energy =   -0.506115
                kinetic =    4.701767
    potential(screened) =   -5.207882
       potential(ionic) =  -15.830994

POLgen: Perturbative polarization orbital with L=  1

POLgen: Polarization orbital for state 6s

   izeta = 1
                     rc =    6.083298
                 energy =   -0.044961
                kinetic =    0.720380
    potential(screened) =   -0.765342
       potential(ionic) =   -8.110664
atom: Total number of Sankey-type orbitals: 10

atm_pop: Valence configuration(local Pseudopot. screening):
 6s( 1.00)                                                            
 6p( 0.00)                                                            
 5d(10.00)                                                            
Vna: chval, zval:   11.00000  11.00000

Vna:  Cut-off radius for the neutral-atom potential:   6.083298

atom: _________________________________________________________________________

prinput: Basis input ----------------------------------------------------------

PAO.BasisType split     

%block ChemicalSpeciesLabel
    1   79 Au                      # Species index, atomic number, species label
%endblock ChemicalSpeciesLabel

%block PAO.Basis                 # Define Basis set
Au          2                    # Species label, number of l-shells
 n=6   0   2 P   1                   # n, l, Nzeta, Polarization, NzetaPol
   6.083      5.715   
   1.000      1.000   
 n=5   2   1                         # n, l, Nzeta 
   5.504   
   1.000   
%endblock PAO.Basis

prinput: ----------------------------------------------------------------------


siesta: ******************** Simulation parameters ****************************
siesta:
siesta: The following are some of the parameters of the simulation.
siesta: A complete list of the parameters used, including defect values,
siesta: can be found in file out.fdf
siesta:
coor:   Atomic-coordinates input format  =     Cartesian coordinates
coor:                                          (in Angstroms)
redata: Number of spin components        =     1
redata: SpinOrbit                        =     0
redata: Long output                      =     F
redata: Number of Atomic Species         =     1
redata: Charge density info will appear in .RHO file
redata: Write Mulliken Pop.              =     Atomic and Orbital charges
redata: Write Hamilton Pop.              =     NO
redata: Mesh Cutoff                      =   800.0000  Ry
redata: Net charge of the system         =     0.0000 |e|
redata: Max. number of SCF Iter          =   300
redata: One Pulay mixing every           =     6 iterations
redata: Mix DM in first SCF step ?       =     F
redata: Write Pulay info on disk?        =     F
redata: New DM Mixing Weight             =     0.0200
redata: No kicks to SCF
redata: DM Mixing Weight for Kicks       =     0.5000
redata: DM Tolerance for SCF             =     0.000100
redata: Use continuation files for DM    =     T
redata: Neglect nonoverlap interactions  =     F
redata: Method of Calculation            =     Diagonalization
redata: Divide and Conquer               =     F
redata: Electronic Temperature           =     0.0019  Ry
redata: Fix the spin of the system       =     F
redata: Dynamics option                  =     CG coord. optimization
redata: Variable cell                    =     F
redata: Use continuation files for CG    =     F
redata: Maximum number of CG moves       =     0
redata: Max atomic displ per move        =     0.1890  Bohr
redata: Force tolerance                  =     0.0012  Ry/Bohr
redata: ***********************************************************************

siesta: Atomic coordinates (Bohr) and species
siesta:      3.37734   2.42012   0.00000  1        1
siesta:      0.58460   5.21286   3.94953  1        2
siesta:      3.37734   2.42012   7.89906  1        3
siesta:      0.58460   5.21286  11.84859  1        4
siesta:      8.96281   2.42012   0.00000  1        5
siesta:      6.17008   5.21286   3.94953  1        6
siesta:      8.96281   2.42012   7.89906  1        7
siesta:      6.17008   5.21286  11.84859  1        8
siesta:     14.54829   2.42012   0.00000  1        9
siesta:     11.75555   5.21286   3.94953  1       10
siesta:     14.54829   2.42012   7.89906  1       11
siesta:     11.75555   5.21286  11.84859  1       12
siesta:      3.37734   8.00560   0.00000  1       13
siesta:      0.58460  10.79833   3.94953  1       14
siesta:      3.37734   8.00560   7.89906  1       15
siesta:      0.58460  10.79833  11.84859  1       16
siesta:      8.96281   8.00560   0.00000  1       17
siesta:      6.17008  10.79833   3.94953  1       18
siesta:      8.96281   8.00560   7.89906  1       19
siesta:      6.17008  10.79833  11.84859  1       20
siesta:     14.54829   8.00560   0.00000  1       21
siesta:     11.75555  10.79833   3.94953  1       22
siesta:     14.54829   8.00560   7.89906  1       23
siesta:     11.75555  10.79833  11.84859  1       24
siesta:      3.37734  13.59107   0.00000  1       25
siesta:      0.58460  16.38381   3.94953  1       26
siesta:      3.37734  13.59107   7.89906  1       27
siesta:      0.58460  16.38381  11.84859  1       28
siesta:      8.96281  13.59107   0.00000  1       29
siesta:      6.17008  16.38381   3.94953  1       30
siesta:      8.96281  13.59107   7.89906  1       31
siesta:      6.17008  16.38381  11.84859  1       32
siesta:     14.54829  13.59107   0.00000  1       33
siesta:     11.75555  16.38381   3.94953  1       34
siesta:     14.54829  13.59107   7.89906  1       35
siesta:     11.75555  16.38381  11.84859  1       36

initatomlists: Number of atoms, orbitals, and projectors:     36   360   576

siesta: System type = bulk      
 Nodes, Orbitals          64         360
 blocksizedefault           5

* ProcessorY, Blocksize:    8   5


siesta: k-grid: Number of k-points =    11
siesta: k-grid: Cutoff             =     4.434 Ang
siesta: k-grid: Supercell and displacements
siesta: k-grid:    1   0   0      0.000
siesta: k-grid:    0   1   0      0.000
siesta: k-grid:    0   0  20      0.000
siesta: overlap:  rmaxh   veclen  direction
siesta: overlap:  19.9243 16.7564   1
siesta: overlap:  rmaxh   veclen  direction
siesta: overlap:  19.9243 16.7564   2
siesta: overlap:  rmaxh   veclen  direction
siesta: overlap:  19.9243 15.7981   3
 label:           1 Au                             1 s      
 label:           2 Au                             1 s      
 label:           3 Au                             1 dxy    
 label:           4 Au                             1 dyz    
 label:           5 Au                             1 dz2    
 label:           6 Au                             1 dxz    
 label:           7 Au                             1 dx2-y2 
 label:           8 Au                             1 Ppy    
 label:           9 Au                             1 Ppz    
 label:          10 Au                             1 Ppx    
 label:          11 Au                             2 s      
 label:          12 Au                             2 s      
 label:          13 Au                             2 dxy    
 label:          14 Au                             2 dyz    
 label:          15 Au                             2 dz2    
 label:          16 Au                             2 dxz    
 label:          17 Au                             2 dx2-y2 
 label:          18 Au                             2 Ppy    
 label:          19 Au                             2 Ppz    
 label:          20 Au                             2 Ppx    
 label:          21 Au                             3 s      
 label:          22 Au                             3 s      
 label:          23 Au                             3 dxy    
 label:          24 Au                             3 dyz    
 label:          25 Au                             3 dz2    
 label:          26 Au                             3 dxz    
 label:          27 Au                             3 dx2-y2 
 label:          28 Au                             3 Ppy    
 label:          29 Au                             3 Ppz    
 label:          30 Au                             3 Ppx    
 label:          31 Au                             4 s      
 label:          32 Au                             4 s      
 label:          33 Au                             4 dxy    
 label:          34 Au                             4 dyz    
 label:          35 Au                             4 dz2    
 label:          36 Au                             4 dxz    
 label:          37 Au                             4 dx2-y2 
 label:          38 Au                             4 Ppy    
 label:          39 Au                             4 Ppz    
 label:          40 Au                             4 Ppx    
 label:          41 Au                             5 s      
 label:          42 Au                             5 s      
 label:          43 Au                             5 dxy    
 label:          44 Au                             5 dyz    
 label:          45 Au                             5 dz2    
 label:          46 Au                             5 dxz    
 label:          47 Au                             5 dx2-y2 
 label:          48 Au                             5 Ppy    
 label:          49 Au                             5 Ppz    
 label:          50 Au                             5 Ppx    
 label:          51 Au                             6 s      
 label:          52 Au                             6 s      
 label:          53 Au                             6 dxy    
 label:          54 Au                             6 dyz    
 label:          55 Au                             6 dz2    
 label:          56 Au                             6 dxz    
 label:          57 Au                             6 dx2-y2 
 label:          58 Au                             6 Ppy    
 label:          59 Au                             6 Ppz    
 label:          60 Au                             6 Ppx    
 label:          61 Au                             7 s      
 label:          62 Au                             7 s      
 label:          63 Au                             7 dxy    
 label:          64 Au                             7 dyz    
 label:          65 Au                             7 dz2    
 label:          66 Au                             7 dxz    
 label:          67 Au                             7 dx2-y2 
 label:          68 Au                             7 Ppy    
 label:          69 Au                             7 Ppz    
 label:          70 Au                             7 Ppx    
 label:          71 Au                             8 s      
 label:          72 Au                             8 s      
 label:          73 Au                             8 dxy    
 label:          74 Au                             8 dyz    
 label:          75 Au                             8 dz2    
 label:          76 Au                             8 dxz    
 label:          77 Au                             8 dx2-y2 
 label:          78 Au                             8 Ppy    
 label:          79 Au                             8 Ppz    
 label:          80 Au                             8 Ppx    
 label:          81 Au                             9 s      
 label:          82 Au                             9 s      
 label:          83 Au                             9 dxy    
 label:          84 Au                             9 dyz    
 label:          85 Au                             9 dz2    
 label:          86 Au                             9 dxz    
 label:          87 Au                             9 dx2-y2 
 label:          88 Au                             9 Ppy    
 label:          89 Au                             9 Ppz    
 label:          90 Au                             9 Ppx    
 label:          91 Au                            10 s      
 label:          92 Au                            10 s      
 label:          93 Au                            10 dxy    
 label:          94 Au                            10 dyz    
 label:          95 Au                            10 dz2    
 label:          96 Au                            10 dxz    
 label:          97 Au                            10 dx2-y2 
 label:          98 Au                            10 Ppy    
 label:          99 Au                            10 Ppz    
 label:         100 Au                            10 Ppx    
 label:         101 Au                            11 s      
 label:         102 Au                            11 s      
 label:         103 Au                            11 dxy    
 label:         104 Au                            11 dyz    
 label:         105 Au                            11 dz2    
 label:         106 Au                            11 dxz    
 label:         107 Au                            11 dx2-y2 
 label:         108 Au                            11 Ppy    
 label:         109 Au                            11 Ppz    
 label:         110 Au                            11 Ppx    
 label:         111 Au                            12 s      
 label:         112 Au                            12 s      
 label:         113 Au                            12 dxy    
 label:         114 Au                            12 dyz    
 label:         115 Au                            12 dz2    
 label:         116 Au                            12 dxz    
 label:         117 Au                            12 dx2-y2 
 label:         118 Au                            12 Ppy    
 label:         119 Au                            12 Ppz    
 label:         120 Au                            12 Ppx    
 label:         121 Au                            13 s      
 label:         122 Au                            13 s      
 label:         123 Au                            13 dxy    
 label:         124 Au                            13 dyz    
 label:         125 Au                            13 dz2    
 label:         126 Au                            13 dxz    
 label:         127 Au                            13 dx2-y2 
 label:         128 Au                            13 Ppy    
 label:         129 Au                            13 Ppz    
 label:         130 Au                            13 Ppx    
 label:         131 Au                            14 s      
 label:         132 Au                            14 s      
 label:         133 Au                            14 dxy    
 label:         134 Au                            14 dyz    
 label:         135 Au                            14 dz2    
 label:         136 Au                            14 dxz    
 label:         137 Au                            14 dx2-y2 
 label:         138 Au                            14 Ppy    
 label:         139 Au                            14 Ppz    
 label:         140 Au                            14 Ppx    
 label:         141 Au                            15 s      
 label:         142 Au                            15 s      
 label:         143 Au                            15 dxy    
 label:         144 Au                            15 dyz    
 label:         145 Au                            15 dz2    
 label:         146 Au                            15 dxz    
 label:         147 Au                            15 dx2-y2 
 label:         148 Au                            15 Ppy    
 label:         149 Au                            15 Ppz    
 label:         150 Au                            15 Ppx    
 label:         151 Au                            16 s      
 label:         152 Au                            16 s      
 label:         153 Au                            16 dxy    
 label:         154 Au                            16 dyz    
 label:         155 Au                            16 dz2    
 label:         156 Au                            16 dxz    
 label:         157 Au                            16 dx2-y2 
 label:         158 Au                            16 Ppy    
 label:         159 Au                            16 Ppz    
 label:         160 Au                            16 Ppx    
 label:         161 Au                            17 s      
 label:         162 Au                            17 s      
 label:         163 Au                            17 dxy    
 label:         164 Au                            17 dyz    
 label:         165 Au                            17 dz2    
 label:         166 Au                            17 dxz    
 label:         167 Au                            17 dx2-y2 
 label:         168 Au                            17 Ppy    
 label:         169 Au                            17 Ppz    
 label:         170 Au                            17 Ppx    
 label:         171 Au                            18 s      
 label:         172 Au                            18 s      
 label:         173 Au                            18 dxy    
 label:         174 Au                            18 dyz    
 label:         175 Au                            18 dz2    
 label:         176 Au                            18 dxz    
 label:         177 Au                            18 dx2-y2 
 label:         178 Au                            18 Ppy    
 label:         179 Au                            18 Ppz    
 label:         180 Au                            18 Ppx    
 label:         181 Au                            19 s      
 label:         182 Au                            19 s      
 label:         183 Au                            19 dxy    
 label:         184 Au                            19 dyz    
 label:         185 Au                            19 dz2    
 label:         186 Au                            19 dxz    
 label:         187 Au                            19 dx2-y2 
 label:         188 Au                            19 Ppy    
 label:         189 Au                            19 Ppz    
 label:         190 Au                            19 Ppx    
 label:         191 Au                            20 s      
 label:         192 Au                            20 s      
 label:         193 Au                            20 dxy    
 label:         194 Au                            20 dyz    
 label:         195 Au                            20 dz2    
 label:         196 Au                            20 dxz    
 label:         197 Au                            20 dx2-y2 
 label:         198 Au                            20 Ppy    
 label:         199 Au                            20 Ppz    
 label:         200 Au                            20 Ppx    
 label:         201 Au                            21 s      
 label:         202 Au                            21 s      
 label:         203 Au                            21 dxy    
 label:         204 Au                            21 dyz    
 label:         205 Au                            21 dz2    
 label:         206 Au                            21 dxz    
 label:         207 Au                            21 dx2-y2 
 label:         208 Au                            21 Ppy    
 label:         209 Au                            21 Ppz    
 label:         210 Au                            21 Ppx    
 label:         211 Au                            22 s      
 label:         212 Au                            22 s      
 label:         213 Au                            22 dxy    
 label:         214 Au                            22 dyz    
 label:         215 Au                            22 dz2    
 label:         216 Au                            22 dxz    
 label:         217 Au                            22 dx2-y2 
 label:         218 Au                            22 Ppy    
 label:         219 Au                            22 Ppz    
 label:         220 Au                            22 Ppx    
 label:         221 Au                            23 s      
 label:         222 Au                            23 s      
 label:         223 Au                            23 dxy    
 label:         224 Au                            23 dyz    
 label:         225 Au                            23 dz2    
 label:         226 Au                            23 dxz    
 label:         227 Au                            23 dx2-y2 
 label:         228 Au                            23 Ppy    
 label:         229 Au                            23 Ppz    
 label:         230 Au                            23 Ppx    
 label:         231 Au                            24 s      
 label:         232 Au                            24 s      
 label:         233 Au                            24 dxy    
 label:         234 Au                            24 dyz    
 label:         235 Au                            24 dz2    
 label:         236 Au                            24 dxz    
 label:         237 Au                            24 dx2-y2 
 label:         238 Au                            24 Ppy    
 label:         239 Au                            24 Ppz    
 label:         240 Au                            24 Ppx    
 label:         241 Au                            25 s      
 label:         242 Au                            25 s      
 label:         243 Au                            25 dxy    
 label:         244 Au                            25 dyz    
 label:         245 Au                            25 dz2    
 label:         246 Au                            25 dxz    
 label:         247 Au                            25 dx2-y2 
 label:         248 Au                            25 Ppy    
 label:         249 Au                            25 Ppz    
 label:         250 Au                            25 Ppx    
 label:         251 Au                            26 s      
 label:         252 Au                            26 s      
 label:         253 Au                            26 dxy    
 label:         254 Au                            26 dyz    
 label:         255 Au                            26 dz2    
 label:         256 Au                            26 dxz    
 label:         257 Au                            26 dx2-y2 
 label:         258 Au                            26 Ppy    
 label:         259 Au                            26 Ppz    
 label:         260 Au                            26 Ppx    
 label:         261 Au                            27 s      
 label:         262 Au                            27 s      
 label:         263 Au                            27 dxy    
 label:         264 Au                            27 dyz    
 label:         265 Au                            27 dz2    
 label:         266 Au                            27 dxz    
 label:         267 Au                            27 dx2-y2 
 label:         268 Au                            27 Ppy    
 label:         269 Au                            27 Ppz    
 label:         270 Au                            27 Ppx    
 label:         271 Au                            28 s      
 label:         272 Au                            28 s      
 label:         273 Au                            28 dxy    
 label:         274 Au                            28 dyz    
 label:         275 Au                            28 dz2    
 label:         276 Au                            28 dxz    
 label:         277 Au                            28 dx2-y2 
 label:         278 Au                            28 Ppy    
 label:         279 Au                            28 Ppz    
 label:         280 Au                            28 Ppx    
 label:         281 Au                            29 s      
 label:         282 Au                            29 s      
 label:         283 Au                            29 dxy    
 label:         284 Au                            29 dyz    
 label:         285 Au                            29 dz2    
 label:         286 Au                            29 dxz    
 label:         287 Au                            29 dx2-y2 
 label:         288 Au                            29 Ppy    
 label:         289 Au                            29 Ppz    
 label:         290 Au                            29 Ppx    
 label:         291 Au                            30 s      
 label:         292 Au                            30 s      
 label:         293 Au                            30 dxy    
 label:         294 Au                            30 dyz    
 label:         295 Au                            30 dz2    
 label:         296 Au                            30 dxz    
 label:         297 Au                            30 dx2-y2 
 label:         298 Au                            30 Ppy    
 label:         299 Au                            30 Ppz    
 label:         300 Au                            30 Ppx    
 label:         301 Au                            31 s      
 label:         302 Au                            31 s      
 label:         303 Au                            31 dxy    
 label:         304 Au                            31 dyz    
 label:         305 Au                            31 dz2    
 label:         306 Au                            31 dxz    
 label:         307 Au                            31 dx2-y2 
 label:         308 Au                            31 Ppy    
 label:         309 Au                            31 Ppz    
 label:         310 Au                            31 Ppx    
 label:         311 Au                            32 s      
 label:         312 Au                            32 s      
 label:         313 Au                            32 dxy    
 label:         314 Au                            32 dyz    
 label:         315 Au                            32 dz2    
 label:         316 Au                            32 dxz    
 label:         317 Au                            32 dx2-y2 
 label:         318 Au                            32 Ppy    
 label:         319 Au                            32 Ppz    
 label:         320 Au                            32 Ppx    
 label:         321 Au                            33 s      
 label:         322 Au                            33 s      
 label:         323 Au                            33 dxy    
 label:         324 Au                            33 dyz    
 label:         325 Au                            33 dz2    
 label:         326 Au                            33 dxz    
 label:         327 Au                            33 dx2-y2 
 label:         328 Au                            33 Ppy    
 label:         329 Au                            33 Ppz    
 label:         330 Au                            33 Ppx    
 label:         331 Au                            34 s      
 label:         332 Au                            34 s      
 label:         333 Au                            34 dxy    
 label:         334 Au                            34 dyz    
 label:         335 Au                            34 dz2    
 label:         336 Au                            34 dxz    
 label:         337 Au                            34 dx2-y2 
 label:         338 Au                            34 Ppy    
 label:         339 Au                            34 Ppz    
 label:         340 Au                            34 Ppx    
 label:         341 Au                            35 s      
 label:         342 Au                            35 s      
 label:         343 Au                            35 dxy    
 label:         344 Au                            35 dyz    
 label:         345 Au                            35 dz2    
 label:         346 Au                            35 dxz    
 label:         347 Au                            35 dx2-y2 
 label:         348 Au                            35 Ppy    
 label:         349 Au                            35 Ppz    
 label:         350 Au                            35 Ppx    
 label:         351 Au                            36 s      
 label:         352 Au                            36 s      
 label:         353 Au                            36 dxy    
 label:         354 Au                            36 dyz    
 label:         355 Au                            36 dz2    
 label:         356 Au                            36 dxz    
 label:         357 Au                            36 dx2-y2 
 label:         358 Au                            36 Ppy    
 label:         359 Au                            36 Ppz    
 label:         360 Au                            36 Ppx    

superc: Internal auxiliary supercell:     3 x     3 x     3  =      27
superc: Number of atoms, orbitals, and projectors:    972  9720 15552

* Maximum dynamic memory allocated =     1 MB

siesta:                 ==============================
                            Begin CG move =      0
                        ==============================

outcoor: Atomic coordinates (Ang):                          
    1.78720903    1.28067091    0.00000000   1  Au         1
    0.30935586    2.75852409    2.09000000   1  Au         2
    1.78720903    1.28067091    4.18000000   1  Au         3
    0.30935586    2.75852409    6.27000000   1  Au         4
    4.74291537    1.28067091    0.00000000   1  Au         5
    3.26506220    2.75852409    2.09000000   1  Au         6
    4.74291537    1.28067091    4.18000000   1  Au         7
    3.26506220    2.75852409    6.27000000   1  Au         8
    7.69862172    1.28067091    0.00000000   1  Au         9
    6.22076855    2.75852409    2.09000000   1  Au        10
    7.69862172    1.28067091    4.18000000   1  Au        11
    6.22076855    2.75852409    6.27000000   1  Au        12
    1.78720903    4.23637726    0.00000000   1  Au        13
    0.30935586    5.71423043    2.09000000   1  Au        14
    1.78720903    4.23637726    4.18000000   1  Au        15
    0.30935586    5.71423043    6.27000000   1  Au        16
    4.74291537    4.23637726    0.00000000   1  Au        17
    3.26506220    5.71423043    2.09000000   1  Au        18
    4.74291537    4.23637726    4.18000000   1  Au        19
    3.26506220    5.71423043    6.27000000   1  Au        20
    7.69862172    4.23637726    0.00000000   1  Au        21
    6.22076855    5.71423043    2.09000000   1  Au        22
    7.69862172    4.23637726    4.18000000   1  Au        23
    6.22076855    5.71423043    6.27000000   1  Au        24
    1.78720903    7.19208360    0.00000000   1  Au        25
    0.30935586    8.66993678    2.09000000   1  Au        26
    1.78720903    7.19208360    4.18000000   1  Au        27
    0.30935586    8.66993678    6.27000000   1  Au        28
    4.74291537    7.19208360    0.00000000   1  Au        29
    3.26506220    8.66993678    2.09000000   1  Au        30
    4.74291537    7.19208360    4.18000000   1  Au        31
    3.26506220    8.66993678    6.27000000   1  Au        32
    7.69862172    7.19208360    0.00000000   1  Au        33
    6.22076855    8.66993678    2.09000000   1  Au        34
    7.69862172    7.19208360    4.18000000   1  Au        35
    6.22076855    8.66993678    6.27000000   1  Au        36

superc: Internal auxiliary supercell:     3 x     3 x     3  =      27
superc: Number of atoms, orbitals, and projectors:    972  9720 15552

read_ldau The LDA+U method used is from Czyzky PRB 49 14211
 NSCOBlocks=           0

InitMesh: MESH =   160 x   160 x   144 =     3686400
InitMesh: Mesh cutoff (required, used) =   800.000   820.000 Ry

* Maximum dynamic memory allocated =   134 MB
cdiag: going 2D with      8 by      8 proc- grid

stepf: Fermi-Dirac step function
 Diagonalisation failed to converged
 Memory factor increased to    3.0000000000000000     
Node      1 reported insufficient diagmemory.
Node      2 reported insufficient diagmemory.
Node      3 reported insufficient diagmemory.
Node      4 reported insufficient diagmemory.
Node      5 reported insufficient diagmemory.
Node      6 reported insufficient diagmemory.
Node      7 reported insufficient diagmemory.
Node      8 reported insufficient diagmemory.
Node      9 reported insufficient diagmemory.
Node     10 reported insufficient diagmemory.
Node     11 reported insufficient diagmemory.
Node     12 reported insufficient diagmemory.
Node     13 reported insufficient diagmemory.
Node     14 reported insufficient diagmemory.
Node     15 reported insufficient diagmemory.
Node     16 reported insufficient diagmemory.
Node     17 reported insufficient diagmemory.
Node     18 reported insufficient diagmemory.
Node     19 reported insufficient diagmemory.
Node     20 reported insufficient diagmemory.
Node     21 reported insufficient diagmemory.
Node     22 reported insufficient diagmemory.
Node     23 reported insufficient diagmemory.
Node     24 reported insufficient diagmemory.
Node     25 reported insufficient diagmemory.
Node     26 reported insufficient diagmemory.
Node     27 reported insufficient diagmemory.
Node     28 reported insufficient diagmemory.
Node     29 reported insufficient diagmemory.
Node     30 reported insufficient diagmemory.
Node     31 reported insufficient diagmemory.
Node     32 reported insufficient diagmemory.
Node     33 reported insufficient diagmemory.
Node     34 reported insufficient diagmemory.
Node     35 reported insufficient diagmemory.
Node     36 reported insufficient diagmemory.
Node     37 reported insufficient diagmemory.
Node     38 reported insufficient diagmemory.
Node     39 reported insufficient diagmemory.
Node     40 reported insufficient diagmemory.
Node     41 reported insufficient diagmemory.
Node     42 reported insufficient diagmemory.
Node     43 reported insufficient diagmemory.
Node     44 reported insufficient diagmemory.
Node     45 reported insufficient diagmemory.
Node     46 reported insufficient diagmemory.
Node     47 reported insufficient diagmemory.
Node     48 reported insufficient diagmemory.
Node     49 reported insufficient diagmemory.
Node     50 reported insufficient diagmemory.
Node     51 reported insufficient diagmemory.
Node     52 reported insufficient diagmemory.
Node     53 reported insufficient diagmemory.
Node     54 reported insufficient diagmemory.
Node     55 reported insufficient diagmemory.
Node     56 reported insufficient diagmemory.
Node     57 reported insufficient diagmemory.
Node     58 reported insufficient diagmemory.
Node     59 reported insufficient diagmemory.
Node     60 reported insufficient diagmemory.
Node     61 reported insufficient diagmemory.
Node     62 reported insufficient diagmemory.
Node     63 reported insufficient diagmemory.
Node     64 reported insufficient diagmemory.

siesta: Program's energy decomposition (eV):
siesta: Eions   =     39745.547111
siesta: Ena     =      1328.964434
siesta: Ekin    =     23222.598518
siesta: Enl     =    -11849.702663
siesta: DEna    =        -0.000007
siesta: DUscf   =         0.000000
siesta: DUext   =         0.000000
siesta: Exc     =     -5235.571504
siesta: eta*DQ  =         0.000000
siesta: Emadel  =         0.000000
siesta: Eharris =    -32297.921095
siesta: Eso     =         0.000000
siesta: Etot    =    -32279.258331
siesta: FreeEng =    -32279.258331

siesta: iscf   Eharris(eV)      E_KS(eV)   FreeEng(eV)     dDmax   Ef(eV)
siesta:    1   -32297.9211   -32279.2583   -32279.2583   0.86747  -2.6301
timer: Routine,Calls,Time,% = IterSCF        1     719.297  80.87
siesta:    2   -32289.7533   -32279.5530   -32279.5823   0.15917  -3.7613
siesta:    3   -32286.2239   -32283.7269   -32283.7533   0.36270  -3.3858
siesta:    4   -32286.2387   -32283.7139   -32283.7361   0.36315  -3.3865
siesta:    5   -32285.8066   -32284.0814   -32284.1036   0.29594  -3.4031
siesta:    6   -32286.0952   -32283.8291   -32283.8514   0.34440  -3.3910
siesta:    7   -32285.9310   -32284.4159   -32284.4381   0.25043  -3.4057
siesta:    8   -32285.8098   -32285.8580   -32285.8802   0.02131  -3.4373
siesta:    9   -32285.7811   -32285.4259   -32285.4482   0.07825  -3.4292
siesta:   10   -32285.7717   -32285.8703   -32285.8926   0.00566  -3.4395
siesta:   11   -32285.7676   -32285.8365   -32285.8587   0.00414  -3.4416
siesta:   12   -32285.7672   -32285.8346   -32285.8569   0.00379  -3.4408
siesta:   13   -32285.7671   -32285.8410   -32285.8633   0.00343  -3.4388
siesta:   14   -32285.7670   -32285.8391   -32285.8614   0.00321  -3.4388
siesta:   15   -32285.7670   -32285.8334   -32285.8557   0.00288  -3.4389
siesta:   16   -32285.7670   -32285.8233   -32285.8456   0.00250  -3.4388
siesta:   17   -32285.7669   -32285.8148   -32285.8371   0.00216  -3.4388
siesta:   18   -32285.7668   -32285.7938   -32285.8161   0.00079  -3.4393
siesta:   19   -32285.7667   -32285.7928   -32285.8151   0.00069  -3.4392
siesta:   20   -32285.7667   -32285.7907   -32285.8131   0.00043  -3.4388
siesta:   21   -32285.7667   -32285.7887   -32285.8110   0.00040  -3.4388
siesta:   22   -32285.7667   -32285.7854   -32285.8078   0.00036  -3.4390
siesta:   23   -32285.7667   -32285.7834   -32285.8057   0.00036  -3.4392
siesta:   24   -32285.7667   -32285.7828   -32285.8051   0.00037  -3.4392
siesta:   25   -32285.7667   -32285.7826   -32285.8049   0.00037  -3.4392
siesta:   26   -32285.7667   -32285.7818   -32285.8041   0.00170  -3.4393
siesta:   27   -32285.7667   -32285.7816   -32285.8039   0.00042  -3.4392
siesta:   28   -32285.7667   -32285.7815   -32285.8039   0.00044  -3.4392
siesta:   29   -32285.7667   -32285.7819   -32285.8042   0.00037  -3.4392
siesta:   30   -32285.7667   -32285.7817   -32285.8040   0.00035  -3.4392
siesta:   31   -32285.7666   -32285.7794   -32285.8017   0.00031  -3.4392
siesta:   32   -32285.7666   -32285.7810   -32285.8034   0.00093  -3.4392
siesta:   33   -32285.7666   -32285.7811   -32285.8034   0.00034  -3.4392
siesta:   34   -32285.7666   -32285.7809   -32285.8032   0.00247  -3.4392
siesta:   35   -32285.7666   -32285.7809   -32285.8032   0.00219  -3.4392
siesta:   36   -32285.7666   -32285.7809   -32285.8032   0.00215  -3.4392
siesta:   37   -32285.7666   -32285.7804   -32285.8027   0.00032  -3.4392
siesta:   38   -32285.7666   -32285.7799   -32285.8023   0.00031  -3.4392
siesta:   39   -32285.7666   -32285.7792   -32285.8015   0.00029  -3.4392
siesta:   40   -32285.7666   -32285.7773   -32285.7996   0.00025  -3.4392
siesta:   41   -32285.7667   -32285.7763   -32285.7986   0.00023  -3.4392
siesta:   42   -32285.7667   -32285.7754   -32285.7977   0.00041  -3.4392
siesta:   43   -32285.7667   -32285.7755   -32285.7978   0.00452  -3.4392
siesta:   44   -32285.7667   -32285.7757   -32285.7980   0.00022  -3.4392
siesta:   45   -32285.7667   -32285.7739   -32285.7963   0.00163  -3.4392
siesta:   46   -32285.7667   -32285.7751   -32285.7974   0.00021  -3.4392
siesta:   47   -32285.7667   -32285.7753   -32285.7977   0.00021  -3.4392
siesta:   48   -32285.7667   -32285.7753   -32285.7976   0.00021  -3.4392
siesta:   49   -32285.7667   -32285.7753   -32285.7976   0.00021  -3.4392
siesta:   50   -32285.7667   -32285.7752   -32285.7975   0.00021  -3.4392
siesta:   51   -32285.7667   -32285.7751   -32285.7974   0.00021  -3.4392
siesta:   52   -32285.7667   -32285.7750   -32285.7974   0.00037  -3.4392
siesta:   53   -32285.7667   -32285.7751   -32285.7974   0.00024  -3.4392
siesta:   54   -32285.7667   -32285.7751   -32285.7974   0.00021  -3.4392
siesta:   55   -32285.7667   -32285.7751   -32285.7974   0.00021  -3.4392
siesta:   56   -32285.7667   -32285.7750   -32285.7973   0.00024  -3.4392
siesta:   57   -32285.7667   -32285.7749   -32285.7972   0.00031  -3.4392
siesta:   58   -32285.7667   -32285.7749   -32285.7972   0.00208  -3.4392
siesta:   59   -32285.7667   -32285.7749   -32285.7972   0.00020  -3.4392
siesta:   60   -32285.7667   -32285.7747   -32285.7971   0.00038  -3.4392
siesta:   61   -32285.7667   -32285.7747   -32285.7971   0.00210  -3.4392
siesta:   62   -32285.7667   -32285.7747   -32285.7971   0.00020  -3.4392
siesta:   63   -32285.7667   -32285.7747   -32285.7970   0.00167  -3.4392
siesta:   64   -32285.7667   -32285.7747   -32285.7970   0.00020  -3.4392
siesta:   65   -32285.7667   -32285.7746   -32285.7969   0.00019  -3.4392
siesta:   66   -32285.7667   -32285.7746   -32285.7969   0.00048  -3.4392
siesta:   67   -32285.7667   -32285.7745   -32285.7969   0.00041  -3.4392
siesta:   68   -32285.7667   -32285.7745   -32285.7969   0.00019  -3.4392
siesta:   69   -32285.7667   -32285.7745   -32285.7968   0.00034  -3.4392
siesta:   70   -32285.7667   -32285.7745   -32285.7968   0.00019  -3.4392
siesta:   71   -32285.7667   -32285.7744   -32285.7967   0.00025  -3.4392
siesta:   72   -32285.7667   -32285.7744   -32285.7967   0.00464  -3.4392
siesta:   73   -32285.7667   -32285.7744   -32285.7967   0.00101  -3.4392
siesta:   74   -32285.7667   -32285.7744   -32285.7967   0.00019  -3.4392
siesta:   75   -32285.7667   -32285.7742   -32285.7965   0.00439  -3.4392
siesta:   76   -32285.7667   -32285.7742   -32285.7965   0.00018  -3.4392
siesta:   77   -32285.7667   -32285.7742   -32285.7965   0.00027  -3.4392
siesta:   78   -32285.7667   -32285.7742   -32285.7965   0.00018  -3.4392
siesta:   79   -32285.7667   -32285.7742   -32285.7965   0.00056  -3.4392
siesta:   80   -32285.7667   -32285.7742   -32285.7965   0.00018  -3.4392
siesta:   81   -32285.7667   -32285.7740   -32285.7964   0.00070  -3.4392
siesta:   82   -32285.7667   -32285.7740   -32285.7964   0.00018  -3.4392
siesta:   83   -32285.7667   -32285.7740   -32285.7963   0.00106  -3.4392
siesta:   84   -32285.7667   -32285.7740   -32285.7963   0.00018  -3.4392
siesta:   85   -32285.7667   -32285.7740   -32285.7963   0.00063  -3.4392
siesta:   86   -32285.7667   -32285.7740   -32285.7963   0.00094  -3.4392
siesta:   87   -32285.7667   -32285.7739   -32285.7962   0.00017  -3.4392
siesta:   88   -32285.7667   -32285.7738   -32285.7961   0.00080  -3.4392
siesta:   89   -32285.7667   -32285.7737   -32285.7961   0.00049  -3.4392
siesta:   90   -32285.7667   -32285.7737   -32285.7961   0.00021  -3.4392
siesta:   91   -32285.7667   -32285.7737   -32285.7960   0.00024  -3.4392
siesta:   92   -32285.7667   -32285.7737   -32285.7960   0.00017  -3.4392
siesta:   93   -32285.7667   -32285.7736   -32285.7960   0.00764  -3.4392
siesta:   94   -32285.7667   -32285.7736   -32285.7959   0.00016  -3.4392
siesta:   95   -32285.7667   -32285.7735   -32285.7958   0.00016  -3.4392
siesta:   96   -32285.7667   -32285.7735   -32285.7958   0.00016  -3.4392
siesta:   97   -32285.7667   -32285.7735   -32285.7958   0.00016  -3.4392
siesta:   98   -32285.7667   -32285.7734   -32285.7957   0.00028  -3.4392
siesta:   99   -32285.7667   -32285.7734   -32285.7957   0.00016  -3.4392
siesta:  100   -32285.7667   -32285.7733   -32285.7956   0.00016  -3.4392
siesta:  101   -32285.7667   -32285.7733   -32285.7956   0.00016  -3.4392
siesta:  102   -32285.7667   -32285.7733   -32285.7956   0.00034  -3.4392
siesta:  103   -32285.7667   -32285.7733   -32285.7956   0.00016  -3.4392
siesta:  104   -32285.7667   -32285.7732   -32285.7955   0.00027  -3.4392
siesta:  105   -32285.7667   -32285.7732   -32285.7955   0.00023  -3.4392
siesta:  106   -32285.7667   -32285.7731   -32285.7954   0.00040  -3.4392
siesta:  107   -32285.7667   -32285.7731   -32285.7954   0.00080  -3.4392
siesta:  108   -32285.7667   -32285.7731   -32285.7954   0.00015  -3.4392
siesta:  109   -32285.7667   -32285.7730   -32285.7954   0.00074  -3.4392
siesta:  110   -32285.7667   -32285.7730   -32285.7953   0.00031  -3.4392
siesta:  111   -32285.7667   -32285.7730   -32285.7953   0.00245  -3.4392
siesta:  112   -32285.7667   -32285.7730   -32285.7953   0.00015  -3.4392
siesta:  113   -32285.7667   -32285.7729   -32285.7953   0.00015  -3.4392
siesta:  114   -32285.7667   -32285.7730   -32285.7953   0.00015  -3.4392
siesta:  115   -32285.7667   -32285.7728   -32285.7952   0.00153  -3.4392
siesta:  116   -32285.7667   -32285.7728   -32285.7952   0.00078  -3.4392
siesta:  117   -32285.7667   -32285.7728   -32285.7952   0.00020  -3.4392
siesta:  118   -32285.7667   -32285.7728   -32285.7952   0.00166  -3.4392
siesta:  119   -32285.7667   -32285.7728   -32285.7951   0.00015  -3.4392
siesta:  120   -32285.7667   -32285.7728   -32285.7951   0.00125  -3.4392
siesta:  121   -32285.7667   -32285.7727   -32285.7950   0.00015  -3.4392
siesta:  122   -32285.7667   -32285.7727   -32285.7950   0.00014  -3.4392
siesta:  123   -32285.7667   -32285.7726   -32285.7950   0.00022  -3.4392
siesta:  124   -32285.7667   -32285.7726   -32285.7949   0.00029  -3.4392
siesta:  125   -32285.7667   -32285.7726   -32285.7949   0.00226  -3.4392
siesta:  126   -32285.7667   -32285.7726   -32285.7949   0.00014  -3.4392
siesta:  127   -32285.7667   -32285.7725   -32285.7948   0.00090  -3.4392
siesta:  128   -32285.7667   -32285.7725   -32285.7948   0.00429  -3.4392
siesta:  129   -32285.7667   -32285.7724   -32285.7948   0.00025  -3.4392
siesta:  130   -32285.7667   -32285.7724   -32285.7947   0.00071  -3.4392
siesta:  131   -32285.7667   -32285.7724   -32285.7947   0.00024  -3.4392
siesta:  132   -32285.7667   -32285.7724   -32285.7947   0.00156  -3.4392
siesta:  133   -32285.7667   -32285.7723   -32285.7946   0.00014  -3.4392
siesta:  134   -32285.7667   -32285.7722   -32285.7945   0.00013  -3.4392
siesta:  135   -32285.7667   -32285.7722   -32285.7945   0.00018  -3.4392
siesta:  136   -32285.7667   -32285.7722   -32285.7945   0.00013  -3.4392
siesta:  137   -32285.7667   -32285.7721   -32285.7944   0.00036  -3.4392
siesta:  138   -32285.7667   -32285.7721   -32285.7944   0.00013  -3.4392
siesta:  139   -32285.7667   -32285.7721   -32285.7944   0.00073  -3.4392
siesta:  140   -32285.7667   -32285.7720   -32285.7944   0.00026  -3.4392
siesta:  141   -32285.7667   -32285.7720   -32285.7944   0.00013  -3.4392
siesta:  142   -32285.7667   -32285.7720   -32285.7943   0.00013  -3.4392
siesta:  143   -32285.7667   -32285.7720   -32285.7943   0.00042  -3.4392
siesta:  144   -32285.7667   -32285.7720   -32285.7943   0.00013  -3.4392
siesta:  145   -32285.7667   -32285.7719   -32285.7942   0.00020  -3.4392
siesta:  146   -32285.7667   -32285.7719   -32285.7942   0.00013  -3.4392
siesta:  147   -32285.7667   -32285.7719   -32285.7942   0.00012  -3.4392
siesta:  148   -32285.7667   -32285.7718   -32285.7941   0.00048  -3.4392
siesta:  149   -32285.7667   -32285.7718   -32285.7941   0.00018  -3.4392
siesta:  150   -32285.7667   -32285.7718   -32285.7941   0.00038  -3.4392
siesta:  151   -32285.7667   -32285.7718   -32285.7941   0.00274  -3.4392
siesta:  152   -32285.7667   -32285.7718   -32285.7941   0.00086  -3.4392
siesta:  153   -32285.7667   -32285.7717   -32285.7940   0.00188  -3.4392
siesta:  154   -32285.7667   -32285.7717   -32285.7940   0.00021  -3.4392
siesta:  155   -32285.7667   -32285.7717   -32285.7940   0.00050  -3.4392
siesta:  156   -32285.7667   -32285.7716   -32285.7939   0.00013  -3.4392
siesta:  157   -32285.7667   -32285.7716   -32285.7939   0.00024  -3.4392
siesta:  158   -32285.7667   -32285.7715   -32285.7938   0.00015  -3.4392
siesta:  159   -32285.7667   -32285.7715   -32285.7938   0.00014  -3.4392
siesta:  160   -32285.7667   -32285.7715   -32285.7938   0.00011  -3.4392
siesta:  161   -32285.7667   -32285.7714   -32285.7937   0.00011  -3.4392
siesta:  162   -32285.7667   -32285.7714   -32285.7937   0.00011  -3.4392
siesta:  163   -32285.7667   -32285.7713   -32285.7936   0.00011  -3.4392
siesta:  164   -32285.7667   -32285.7713   -32285.7936   0.00011  -3.4392
siesta:  165   -32285.7667   -32285.7712   -32285.7936   0.00011  -3.4392
siesta:  166   -32285.7667   -32285.7712   -32285.7935   0.00011  -3.4392
siesta:  167   -32285.7667   -32285.7712   -32285.7935   0.00018  -3.4392
siesta:  168   -32285.7667   -32285.7712   -32285.7935   0.00011  -3.4392
siesta:  169   -32285.7667   -32285.7711   -32285.7935   0.00084  -3.4392
siesta:  170   -32285.7667   -32285.7711   -32285.7934   0.00036  -3.4392
siesta:  171   -32285.7667   -32285.7711   -32285.7934   0.00014  -3.4392
siesta:  172   -32285.7667   -32285.7711   -32285.7934   0.00013  -3.4392
siesta:  173   -32285.7667   -32285.7711   -32285.7934   0.00012  -3.4392
siesta:  174   -32285.7667   -32285.7711   -32285.7934   0.00036  -3.4392
siesta:  175   -32285.7667   -32285.7710   -32285.7933   0.00010  -3.4392
siesta:  176   -32285.7667   -32285.7710   -32285.7933   0.00039  -3.4392
siesta:  177   -32285.7667   -32285.7710   -32285.7933   0.00010  -3.4392
siesta:  178   -32285.7667   -32285.7709   -32285.7932   0.00027  -3.4392
siesta:  179   -32285.7667   -32285.7709   -32285.7932   0.00010  -3.4392
siesta:  180   -32285.7667   -32285.7709   -32285.7932   0.00010  -3.4392
grdsam: Reading %block GridCellSampling
grdsam: Grid-cell sampling, point   0
grdsam: Generating displacements for grid-cell sampling
grdsam: Grid-cell sampling, point   1
grdsam: Grid-cell sampling, point   2
grdsam: Grid-cell sampling, point   3

siesta: E_KS(eV) =           -32285.7708

siesta: E_KS - E_eggbox =    -32285.7708

siesta: Atomic forces (eV/Ang):
     1   -0.001243    0.001152    0.000019
     2    0.001280   -0.001464    0.000032
     3   -0.001242    0.001053    0.000168
     4    0.001153   -0.001547   -0.000172
     5    0.002023    0.001675   -0.000070
     6   -0.001247    0.001132    0.000031
     7    0.002198    0.001582    0.000152
     8   -0.001163    0.001045   -0.000157
     9   -0.000693    0.000294   -0.000119
    10   -0.000257   -0.000292    0.000235
    11   -0.000859    0.000252    0.000172
    12   -0.000210   -0.000203   -0.000308
    13    0.001411   -0.000669    0.000118
    14    0.002267    0.001650    0.000031
    15    0.001250   -0.000619    0.000007
    16    0.001973    0.001716   -0.000061
    17    0.000135    0.000027   -0.000101
    18   -0.000841    0.000188    0.000210
    19    0.000325   -0.000079    0.000206
    20   -0.000535    0.000328   -0.000268
    21   -0.002096   -0.001316   -0.000118
    22   -0.001327    0.001036    0.000046
    23   -0.002146   -0.001320    0.000164
    24   -0.001349    0.001166   -0.000238
    25   -0.000127   -0.000209    0.000052
    26    0.000225   -0.000005    0.000155
    27   -0.000236   -0.000148    0.000007
    28    0.000103    0.000013   -0.000216
    29    0.001210   -0.001496   -0.000015
    30   -0.002153   -0.001310    0.000090
    31    0.001346   -0.001298    0.000186
    32   -0.001989   -0.001339   -0.000148
    33   -0.001307    0.001054   -0.000080
    34    0.001366   -0.000486    0.000105
    35   -0.001325    0.001087    0.000186
    36    0.001336   -0.000700   -0.000241
----------------------------------------
 Tot   -0.002741    0.001947    0.000057
----------------------------------------
 Max    0.002267
 Res    0.000979    sqrt( Sum f_i^2 / 3N )
----------------------------------------
 Max    0.002267    constrained

mulliken: Atomic and Orbital Populations:

Species: Au                  
Atom  Qatom  Qorb
               6s      6s      5dxy    5dyz    5dz2    5dxz    5dx2-y2 6Ppy    
               6Ppz    6Ppx    
   1 11.000   0.319   0.514   1.944   1.894   1.945   1.894   1.912   0.196
              0.186   0.196
   2 11.000   0.319   0.514   1.944   1.894   1.945   1.894   1.912   0.196
              0.186   0.196
   3 11.000   0.319   0.514   1.944   1.894   1.945   1.894   1.912   0.196
              0.186   0.196
   4 11.000   0.319   0.514   1.944   1.894   1.946   1.894   1.912   0.196
              0.186   0.196
   5 11.000   0.319   0.514   1.944   1.894   1.946   1.894   1.912   0.196
              0.186   0.196
   6 11.000   0.319   0.514   1.944   1.894   1.945   1.894   1.912   0.196
              0.186   0.196
   7 11.000   0.319   0.514   1.944   1.894   1.945   1.894   1.912   0.196
              0.186   0.196
   8 11.000   0.319   0.514   1.944   1.894   1.946   1.894   1.912   0.196
              0.186   0.196
   9 11.000   0.319   0.514   1.944   1.894   1.945   1.894   1.912   0.196
              0.186   0.196
  10 11.000   0.319   0.514   1.944   1.894   1.945   1.894   1.912   0.196
              0.186   0.196
  11 11.000   0.319   0.514   1.944   1.894   1.945   1.894   1.912   0.196
              0.186   0.196
  12 11.000   0.319   0.514   1.944   1.894   1.945   1.894   1.912   0.196
              0.186   0.196
  13 11.000   0.319   0.514   1.944   1.894   1.946   1.894   1.912   0.196
              0.186   0.196
  14 11.000   0.319   0.514   1.944   1.894   1.945   1.894   1.912   0.196
              0.186   0.196
  15 11.000   0.319   0.514   1.944   1.894   1.945   1.894   1.912   0.196
              0.186   0.196
  16 11.000   0.319   0.514   1.944   1.894   1.946   1.894   1.912   0.196
              0.186   0.196
  17 11.000   0.319   0.514   1.944   1.894   1.946   1.894   1.912   0.196
              0.186   0.196
  18 11.000   0.319   0.514   1.944   1.894   1.945   1.894   1.912   0.196
              0.186   0.196
  19 11.000   0.319   0.514   1.944   1.894   1.946   1.894   1.912   0.196
              0.186   0.196
  20 11.000   0.319   0.514   1.944   1.894   1.945   1.894   1.912   0.196
              0.186   0.196
  21 11.000   0.319   0.514   1.944   1.894   1.945   1.894   1.912   0.196
              0.186   0.196
  22 11.000   0.319   0.514   1.944   1.894   1.945   1.894   1.912   0.196
              0.186   0.196
  23 11.000   0.319   0.514   1.944   1.894   1.945   1.894   1.912   0.196
              0.186   0.196
  24 11.000   0.319   0.514   1.944   1.894   1.945   1.894   1.912   0.196
              0.186   0.196
  25 11.000   0.319   0.514   1.944   1.894   1.945   1.894   1.912   0.196
              0.186   0.196
  26 11.000   0.319   0.514   1.944   1.894   1.946   1.894   1.912   0.196
              0.186   0.196
  27 11.000   0.319   0.514   1.944   1.894   1.945   1.894   1.912   0.196
              0.186   0.196
  28 11.000   0.319   0.514   1.944   1.894   1.946   1.894   1.912   0.196
              0.186   0.196
  29 11.000   0.319   0.514   1.944   1.894   1.946   1.894   1.912   0.196
              0.186   0.196
  30 11.000   0.319   0.514   1.944   1.894   1.946   1.894   1.912   0.196
              0.186   0.196
  31 11.000   0.319   0.514   1.944   1.894   1.945   1.894   1.912   0.196
              0.186   0.196
  32 11.000   0.319   0.514   1.944   1.894   1.945   1.894   1.912   0.196
              0.186   0.196
  33 11.000   0.319   0.514   1.944   1.894   1.945   1.894   1.912   0.196
              0.186   0.196
  34 11.000   0.319   0.514   1.944   1.894   1.946   1.894   1.912   0.196
              0.186   0.196
  35 11.000   0.319   0.514   1.944   1.894   1.945   1.894   1.912   0.196
              0.186   0.196
  36 11.000   0.319   0.514   1.944   1.894   1.945   1.894   1.912   0.196
              0.186   0.196

mulliken: Qtot =  396.000

* Maximum dynamic memory allocated =   134 MB

siesta: Eigenvalues (eV):
  ik is    eps
   1  1 -12.40 -10.27 -10.27 -10.27 -10.27 -10.08 -10.08  -9.83  -9.83  -9.83
         -9.83  -9.83  -9.83  -9.83  -9.83  -9.74  -9.54  -9.54  -9.54  -9.54
         -9.44  -9.07  -9.07  -9.07  -9.07  -9.07  -9.07  -9.07  -9.07  -8.91
         -8.91  -8.91  -8.91  -8.83  -8.83  -8.83  -8.83  -8.59  -8.59  -8.57
         -8.57  -8.57  -8.57  -8.57  -8.57  -8.57  -8.57  -8.18  -8.18  -8.18
         -8.18  -8.14  -8.14  -8.14  -8.14  -8.08  -8.08  -8.08  -8.08  -8.08
         -8.08  -8.08  -8.08  -8.00  -8.00  -8.00  -8.00  -8.00  -8.00  -8.00
         -8.00  -7.70  -7.70  -7.70  -7.70  -7.70  -7.70  -7.70  -7.70  -7.65
         -7.65  -7.61  -7.44  -7.44  -7.44  -7.44  -7.44  -7.44  -7.44  -7.44
         -7.42  -7.42  -7.42  -7.42  -7.38  -7.38  -7.38  -7.38  -7.02  -7.02
         -6.98  -6.98  -6.98  -6.98  -6.91  -6.91  -6.91  -6.91  -6.77  -6.77
         -6.77  -6.77  -6.59  -6.59  -6.59  -6.59  -6.59  -6.59  -6.59  -6.59
         -6.54  -6.54  -6.54  -6.54  -6.54  -6.54  -6.54  -6.54  -6.54  -6.54
         -6.54  -6.54  -6.36  -6.36  -6.36  -6.36  -6.33  -6.28  -6.03  -6.03
         -6.03  -6.03  -5.92  -5.92  -5.92  -5.92  -5.83  -5.83  -5.83  -5.83
         -5.78  -5.78  -5.78  -5.78  -5.78  -5.78  -5.77  -5.77  -5.77  -5.77
         -5.77  -5.77  -5.77  -5.77  -5.62  -5.62  -5.62  -5.62  -5.56  -5.56
         -5.56  -5.56  -5.44  -5.44  -5.44  -5.44  -5.31  -5.31  -5.31  -5.31
         -5.31  -5.31  -5.31  -5.31  -5.24  -4.94  -4.94  -4.94  -4.94  -4.94
         -4.94  -4.71  -4.71  -4.71  -4.71  -4.71  -4.71  -4.71  -4.71  -2.07
         -2.07  -2.07  -2.07  -2.07  -2.07  -2.07  -2.07  -1.68  -0.64  -0.64
         -0.64  -0.64   1.27   1.27   1.27   1.27   1.87   1.87   1.87   1.87
          2.42   2.81   2.81   2.81   2.81   2.81   2.81   2.81   2.81   3.42
          3.42   3.42   3.42   4.33   4.33   4.33   4.33   4.87   4.87   4.87
          4.87   4.87   4.87   4.87   4.87   5.47   5.47   5.47   5.47   5.47
          5.47   5.47   5.47   5.55   5.55   5.55   5.55   7.26   7.26   7.26
          7.26   8.17   8.17   9.74   9.74   9.74   9.74  10.63  10.63  10.63
         10.63  10.67  10.67  10.67  10.67  10.95  10.95  10.95  10.95  12.58
         12.58  12.58  12.58  12.60  12.60  12.60  12.60  13.43  13.43  13.43
         13.43  13.49  13.49  13.49  13.49  13.49  13.49  13.49  13.49  14.93
         14.93  15.92  15.92  15.92  15.92  15.92  15.92  15.92  15.92  16.90
         16.90  16.90  16.90  16.90  16.90  16.90  16.90  21.62  21.62  21.62
         21.62  22.33  22.38  22.38  22.59  27.18  27.18  27.18  27.18  33.51
         33.51  36.71  36.71  36.71  36.71  36.88  40.37  40.37  40.37  40.37
         41.28  41.28  41.28  41.28  41.28  41.28  41.28  41.28  44.55  44.55
         44.55  44.55  48.42  48.42  48.42  48.42  48.42  48.42  48.42  48.42
   2  1 -12.39 -10.27 -10.27 -10.27 -10.27 -10.24  -9.93  -9.88  -9.88  -9.88
         -9.88  -9.77  -9.77  -9.77  -9.77  -9.74  -9.54  -9.54  -9.54  -9.54
         -9.44  -9.07  -9.07  -9.07  -9.07  -9.07  -9.07  -9.07  -9.07  -8.91
         -8.91  -8.91  -8.91  -8.82  -8.82  -8.82  -8.82  -8.67  -8.64  -8.64
         -8.64  -8.64  -8.52  -8.50  -8.50  -8.50  -8.50  -8.18  -8.18  -8.18
         -8.18  -8.13  -8.13  -8.13  -8.13  -8.13  -8.13  -8.13  -8.13  -8.09
         -8.09  -8.09  -8.09  -8.04  -8.04  -8.04  -8.04  -7.91  -7.91  -7.91
         -7.91  -7.74  -7.74  -7.74  -7.74  -7.66  -7.66  -7.66  -7.66  -7.65
         -7.65  -7.61  -7.47  -7.47  -7.47  -7.47  -7.41  -7.41  -7.41  -7.41
         -7.41  -7.41  -7.41  -7.41  -7.38  -7.38  -7.38  -7.38  -7.04  -7.00
         -7.00  -7.00  -7.00  -6.96  -6.91  -6.91  -6.91  -6.91  -6.74  -6.74
         -6.74  -6.74  -6.64  -6.64  -6.64  -6.64  -6.64  -6.64  -6.56  -6.56
         -6.56  -6.56  -6.55  -6.55  -6.55  -6.55  -6.50  -6.50  -6.50  -6.50
         -6.44  -6.44  -6.37  -6.37  -6.37  -6.37  -6.33  -6.28  -6.05  -6.05
         -6.05  -6.05  -6.04  -6.04  -6.04  -6.04  -5.82  -5.78  -5.78  -5.78
         -5.78  -5.78  -5.78  -5.78  -5.78  -5.76  -5.76  -5.76  -5.76  -5.74
         -5.71  -5.71  -5.71  -5.71  -5.61  -5.61  -5.61  -5.61  -5.54  -5.54
         -5.54  -5.54  -5.45  -5.45  -5.45  -5.45  -5.36  -5.36  -5.36  -5.36
         -5.27  -5.27  -5.27  -5.27  -5.25  -4.98  -4.98  -4.98  -4.98  -4.95
         -4.95  -4.95  -4.95  -4.95  -4.95  -4.42  -4.42  -4.42  -4.42  -2.26
         -2.26  -2.26  -2.26  -1.87  -1.87  -1.87  -1.87  -1.75  -0.63  -0.63
         -0.63  -0.63   1.29   1.29   1.29   1.29   1.85   1.85   1.85   1.85
          2.50   2.51   2.51   2.51   2.51   3.12   3.12   3.12   3.12   3.16
          3.16   3.16   3.16   4.60   4.60   4.60   4.60   4.75   4.75   4.75
          4.75   5.02   5.02   5.02   5.02   5.15   5.15   5.15   5.15   5.48
          5.48   5.48   5.48   5.79   5.79   5.79   5.79   7.37   7.37   7.37
          7.37   8.18   8.18   9.65   9.65   9.65   9.65  10.65  10.65  10.65
         10.65  10.69  10.69  10.69  10.69  10.76  10.76  10.76  10.76  12.61
         12.61  12.61  12.61  12.78  12.78  12.78  12.78  12.96  12.96  13.47
         13.47  13.47  13.47  13.47  13.47  13.47  13.47  13.91  13.91  14.16
         15.59  15.59  15.59  15.59  15.67  16.26  16.26  16.26  16.26  16.36
         16.36  16.36  16.36  17.37  17.37  17.37  17.37  21.59  21.59  21.59
         21.59  22.31  22.33  22.33  22.61  27.28  27.28  27.28  27.28  32.48
         34.51  36.75  36.75  36.75  36.75  36.91  40.26  40.26  40.26  40.26
         41.04  41.04  41.04  41.04  41.49  41.49  41.49  41.49  44.49  44.49
         44.49  44.49  46.54  46.54  46.54  46.54  49.83  49.83  49.83  49.83
   3  1 -12.37 -10.41 -10.27 -10.27 -10.27 -10.27  -9.93  -9.93  -9.93  -9.93
         -9.81  -9.73  -9.71  -9.71  -9.71  -9.71  -9.52  -9.52  -9.52  -9.52
         -9.43  -9.07  -9.07  -9.07  -9.07  -9.06  -9.06  -9.06  -9.06  -8.92
         -8.92  -8.92  -8.92  -8.80  -8.80  -8.80  -8.80  -8.74  -8.70  -8.70
         -8.70  -8.70  -8.45  -8.45  -8.45  -8.45  -8.45  -8.19  -8.19  -8.19
         -8.19  -8.18  -8.18  -8.18  -8.18  -8.18  -8.18  -8.18  -8.18  -8.10
         -8.10  -8.10  -8.10  -8.02  -8.02  -8.02  -8.02  -7.81  -7.81  -7.81
         -7.81  -7.78  -7.78  -7.78  -7.78  -7.64  -7.64  -7.62  -7.62  -7.62
         -7.62  -7.62  -7.49  -7.49  -7.49  -7.49  -7.40  -7.40  -7.40  -7.40
         -7.38  -7.38  -7.38  -7.38  -7.38  -7.38  -7.38  -7.38  -7.05  -7.05
         -7.05  -7.05  -7.03  -6.92  -6.92  -6.92  -6.92  -6.88  -6.74  -6.74
         -6.70  -6.70  -6.70  -6.70  -6.68  -6.68  -6.68  -6.68  -6.56  -6.56
         -6.56  -6.56  -6.52  -6.52  -6.52  -6.52  -6.45  -6.45  -6.45  -6.45
         -6.40  -6.40  -6.40  -6.40  -6.34  -6.33  -6.33  -6.27  -6.22  -6.22
         -6.22  -6.22  -6.04  -6.04  -6.04  -6.04  -5.86  -5.79  -5.79  -5.79
         -5.79  -5.78  -5.78  -5.78  -5.78  -5.74  -5.74  -5.74  -5.74  -5.70
         -5.65  -5.65  -5.65  -5.65  -5.58  -5.58  -5.58  -5.58  -5.45  -5.45
         -5.45  -5.45  -5.44  -5.44  -5.44  -5.44  -5.41  -5.41  -5.41  -5.41
         -5.25  -5.24  -5.24  -5.24  -5.24  -5.22  -5.22  -5.22  -5.22  -4.97
         -4.97  -4.97  -4.97  -4.97  -4.97  -4.11  -4.11  -4.11  -4.11  -2.45
         -2.45  -2.45  -2.45  -1.95  -1.67  -1.67  -1.67  -1.67  -0.59  -0.59
         -0.59  -0.59   1.33   1.33   1.33   1.33   1.79   1.79   1.79   1.79
          2.23   2.23   2.23   2.23   2.69   2.69   2.69   2.69   2.75   3.43
          3.43   3.43   3.43   4.64   4.64   4.64   4.64   4.83   4.83   4.83
          4.83   5.12   5.12   5.12   5.12   5.17   5.17   5.17   5.17   5.32
          5.32   5.32   5.32   6.12   6.12   6.12   6.12   7.64   7.64   7.64
          7.64   8.23   8.23   9.45   9.45   9.45   9.45  10.34  10.34  10.34
         10.34  10.58  10.58  10.58  10.58  10.85  10.85  10.85  10.85  12.51
         12.51  12.63  12.63  12.63  12.63  13.22  13.22  13.22  13.22  13.38
         13.42  13.42  13.42  13.42  13.42  13.42  13.42  13.42  14.41  14.41
         15.28  15.28  15.28  15.28  15.78  15.78  15.78  15.78  16.38  16.61
         16.61  16.61  16.61  17.76  17.76  17.76  17.76  21.52  21.52  21.52
         21.52  22.20  22.20  22.26  22.68  27.56  27.56  27.56  27.56  31.45
         35.43  36.87  36.87  36.87  36.87  36.98  39.93  39.94  39.94  39.94
         40.79  40.79  40.79  40.80  41.64  41.64  41.64  41.64  44.32  44.32
         44.32  44.32  44.44  44.44  44.44  44.44  50.54  50.54  50.54  50.55
   4  1 -12.33 -10.59 -10.27 -10.27 -10.27 -10.27  -9.98  -9.98  -9.98  -9.98
         -9.72  -9.70  -9.65  -9.65  -9.65  -9.65  -9.50  -9.50  -9.50  -9.50
         -9.42  -9.08  -9.08  -9.08  -9.08  -9.05  -9.05  -9.05  -9.05  -8.93
         -8.93  -8.93  -8.93  -8.80  -8.77  -8.77  -8.77  -8.77  -8.76  -8.76
         -8.76  -8.76  -8.43  -8.43  -8.43  -8.43  -8.38  -8.27  -8.27  -8.27
         -8.27  -8.19  -8.19  -8.19  -8.19  -8.19  -8.19  -8.19  -8.19  -8.06
         -8.06  -8.06  -8.06  -8.02  -8.02  -8.02  -8.02  -7.82  -7.82  -7.82
         -7.82  -7.72  -7.72  -7.72  -7.72  -7.63  -7.62  -7.62  -7.59  -7.59
         -7.59  -7.59  -7.50  -7.50  -7.50  -7.50  -7.38  -7.38  -7.38  -7.38
         -7.38  -7.38  -7.38  -7.38  -7.34  -7.34  -7.34  -7.34  -7.11  -7.11
         -7.11  -7.11  -7.01  -6.93  -6.93  -6.93  -6.93  -6.83  -6.83  -6.76
         -6.75  -6.75  -6.75  -6.75  -6.61  -6.61  -6.61  -6.61  -6.54  -6.54
         -6.54  -6.54  -6.51  -6.51  -6.51  -6.51  -6.45  -6.45  -6.45  -6.45
         -6.39  -6.39  -6.39  -6.39  -6.39  -6.39  -6.39  -6.39  -6.36  -6.27
         -6.22  -6.22  -6.05  -6.05  -6.05  -6.05  -5.90  -5.79  -5.79  -5.79
         -5.79  -5.79  -5.79  -5.79  -5.79  -5.72  -5.72  -5.72  -5.72  -5.66
         -5.65  -5.65  -5.65  -5.65  -5.55  -5.55  -5.55  -5.55  -5.47  -5.47
         -5.47  -5.47  -5.47  -5.47  -5.47  -5.47  -5.43  -5.43  -5.43  -5.43
         -5.27  -5.27  -5.27  -5.27  -5.26  -5.21  -5.21  -5.21  -5.21  -5.00
         -5.00  -5.00  -5.00  -5.00  -5.00  -3.78  -3.78  -3.78  -3.78  -2.64
         -2.64  -2.64  -2.64  -2.23  -1.47  -1.47  -1.47  -1.47  -0.54  -0.54
         -0.54  -0.54   1.40   1.40   1.40   1.40   1.68   1.68   1.68   1.68
          1.95   1.95   1.95   1.95   2.19   2.19   2.19   2.19   3.11   3.77
[...]
         -6.10  -6.10  -6.10  -6.10  -6.01  -5.90  -5.90  -5.80  -5.80  -5.80
         -5.80  -5.79  -5.79  -5.79  -5.79  -5.74  -5.74  -5.74  -5.74  -5.73
         -5.73  -5.73  -5.73  -5.68  -5.68  -5.68  -5.68  -5.62  -5.62  -5.62
         -5.62  -5.55  -5.53  -5.53  -5.53  -5.53  -5.41  -5.41  -5.41  -5.41
         -5.31  -5.18  -5.18  -5.18  -5.18  -5.16  -5.16  -5.16  -5.16  -5.15
         -5.15  -4.71  -4.71  -4.71  -4.71  -3.35  -3.19  -3.19  -3.19  -3.19
         -2.72  -2.72  -2.72  -2.72  -0.81  -0.81  -0.81  -0.81  -0.27  -0.27
         -0.27  -0.27   0.72   0.72   0.72   0.72   1.16   1.16   1.16   1.16
          1.20   1.20   1.20   1.20   1.79   1.79   1.79   1.79   3.63   3.63
          3.63   3.63   4.36   4.36   4.36   4.36   4.61   4.61   4.61   4.61
          4.65   4.84   4.84   4.84   4.84   5.98   5.98   5.98   5.98   7.47
          7.47   7.47   7.47   7.55   7.55   7.55   7.55   8.28   8.28   8.28
          8.28   8.33   8.33   8.33   8.33   8.70   8.70   9.40   9.40   9.40
          9.40   9.90   9.90   9.90   9.90  10.22  10.90  10.90  11.60  11.60
         11.60  11.60  12.78  12.78  12.78  12.78  12.89  12.89  12.89  12.89
         12.98  12.98  12.98  12.98  13.10  13.10  13.10  13.10  14.20  14.20
         14.20  14.20  15.46  15.46  15.46  15.46  16.55  16.55  18.09  18.09
         18.09  18.09  18.38  18.38  18.38  18.38  18.83  20.81  20.81  20.81
         20.81  20.88  20.88  21.70  23.41  27.69  30.61  30.61  30.61  30.61
         37.34  37.35  37.35  37.35  37.42  37.42  37.42  37.42  37.68  37.97
         38.05  38.05  38.05  38.05  40.25  40.25  40.25  40.25  41.44  41.44
         41.44  41.44  42.78  42.78  42.78  42.78  45.93  45.93  45.93  45.93
   8  1 -12.06 -11.28 -10.24 -10.24 -10.24 -10.24 -10.12 -10.12 -10.12 -10.12
         -9.64  -9.53  -9.39  -9.39  -9.39  -9.39  -9.32  -9.30  -9.30  -9.30
         -9.30  -9.08  -9.08  -9.08  -9.08  -9.05  -9.04  -9.04  -9.04  -9.04
         -8.95  -8.95  -8.95  -8.95  -8.93  -8.93  -8.93  -8.93  -8.77  -8.77
         -8.77  -8.77  -8.59  -8.59  -8.59  -8.59  -8.58  -8.58  -8.58  -8.58
         -8.19  -8.19  -8.19  -8.19  -8.19  -8.19  -8.19  -8.19  -8.10  -8.01
         -8.01  -8.01  -8.01  -7.84  -7.84  -7.84  -7.84  -7.76  -7.75  -7.75
         -7.75  -7.75  -7.51  -7.51  -7.50  -7.50  -7.50  -7.50  -7.49  -7.49
         -7.49  -7.49  -7.39  -7.39  -7.39  -7.39  -7.37  -7.37  -7.37  -7.37
         -7.32  -7.32  -7.32  -7.32  -7.25  -7.25  -7.25  -7.25  -7.16  -7.16
         -7.13  -7.13  -7.13  -7.13  -7.03  -7.03  -7.03  -7.03  -7.03  -7.03
         -7.03  -7.03  -6.97  -6.97  -6.97  -6.97  -6.87  -6.87  -6.87  -6.87
         -6.83  -6.71  -6.71  -6.71  -6.71  -6.50  -6.38  -6.38  -6.38  -6.38
         -6.27  -6.27  -6.27  -6.27  -6.21  -6.13  -6.13  -6.13  -6.13  -6.12
         -6.12  -6.12  -6.12  -6.05  -5.87  -5.80  -5.80  -5.80  -5.80  -5.79
         -5.79  -5.79  -5.79  -5.79  -5.79  -5.77  -5.77  -5.77  -5.77  -5.76
         -5.76  -5.76  -5.76  -5.74  -5.74  -5.74  -5.74  -5.58  -5.58  -5.58
         -5.58  -5.56  -5.56  -5.56  -5.56  -5.51  -5.36  -5.36  -5.36  -5.36
         -5.33  -5.23  -5.23  -5.22  -5.22  -5.22  -5.22  -5.18  -5.18  -5.18
         -5.18  -4.52  -4.52  -4.52  -4.52  -3.74  -3.38  -3.38  -3.38  -3.38
         -2.33  -2.33  -2.33  -2.33  -0.57  -0.57  -0.57  -0.57  -0.16  -0.16
         -0.16  -0.16   0.26   0.26   0.26   0.26   0.93   0.93   0.93   0.93
          0.97   0.97   0.97   0.97   1.96   1.96   1.96   1.96   3.36   3.36
          3.36   3.36   4.33   4.33   4.33   4.33   4.50   4.50   4.50   4.50
          5.22   5.22   5.22   5.22   5.26   6.23   6.23   6.23   6.23   7.80
          7.80   7.80   7.80   7.84   7.84   7.84   7.84   7.97   7.97   7.97
          7.97   8.21   8.21   8.21   8.21   8.89   8.89   9.45   9.65   9.65
          9.65   9.65   9.90   9.90   9.90   9.90  10.54  10.54  11.79  11.79
         11.79  11.79  12.39  12.39  12.39  12.39  12.49  12.49  12.49  12.49
         12.83  12.83  12.83  12.83  12.99  12.99  12.99  12.99  13.97  13.97
         13.97  13.97  16.01  16.01  16.01  16.01  17.11  17.11  18.28  18.28
         18.28  18.28  18.47  18.47  18.47  18.47  19.34  20.41  20.41  20.54
         20.54  20.54  20.54  21.47  23.72  26.91  31.87  31.87  31.87  31.87
         36.44  36.44  36.44  36.44  36.66  36.66  36.66  36.66  37.90  38.25
         38.49  38.49  38.49  38.49  40.30  40.30  40.30  40.30  41.16  41.16
         41.16  41.16  42.30  42.30  42.30  42.30  43.65  43.65  43.65  43.65
   9  1 -11.96 -11.44 -10.23 -10.23 -10.23 -10.23 -10.15 -10.15 -10.15 -10.15
         -9.61  -9.53  -9.32  -9.32  -9.32  -9.32  -9.29  -9.23  -9.23  -9.23
         -9.23  -9.11  -9.08  -9.08  -9.08  -9.08  -9.07  -9.07  -9.07  -9.07
         -8.98  -8.98  -8.98  -8.98  -8.89  -8.89  -8.89  -8.89  -8.87  -8.87
         -8.87  -8.87  -8.66  -8.66  -8.66  -8.66  -8.51  -8.51  -8.51  -8.51
         -8.25  -8.25  -8.25  -8.25  -8.18  -8.18  -8.18  -8.18  -8.05  -8.05
         -8.05  -8.05  -8.03  -7.81  -7.72  -7.72  -7.72  -7.72  -7.64  -7.64
         -7.64  -7.64  -7.49  -7.49  -7.49  -7.49  -7.48  -7.48  -7.48  -7.48
         -7.46  -7.46  -7.39  -7.39  -7.39  -7.39  -7.36  -7.36  -7.36  -7.36
         -7.30  -7.30  -7.30  -7.30  -7.23  -7.23  -7.21  -7.21  -7.21  -7.21
         -7.18  -7.18  -7.18  -7.18  -7.07  -7.07  -7.07  -7.07  -7.06  -7.06
         -7.06  -7.06  -7.02  -7.02  -7.02  -7.02  -7.02  -7.02  -7.02  -7.02
         -6.79  -6.79  -6.79  -6.79  -6.77  -6.55  -6.33  -6.33  -6.33  -6.33
         -6.19  -6.19  -6.19  -6.19  -6.19  -6.16  -6.16  -6.16  -6.16  -6.08
         -6.05  -6.05  -6.05  -6.05  -5.84  -5.84  -5.84  -5.84  -5.81  -5.81
         -5.81  -5.81  -5.80  -5.80  -5.80  -5.80  -5.79  -5.79  -5.79  -5.79
         -5.73  -5.73  -5.73  -5.73  -5.69  -5.69  -5.60  -5.60  -5.60  -5.60
         -5.57  -5.53  -5.53  -5.53  -5.53  -5.47  -5.35  -5.32  -5.32  -5.31
         -5.31  -5.31  -5.31  -5.29  -5.29  -5.29  -5.29  -5.20  -5.20  -5.20
         -5.20  -4.33  -4.33  -4.33  -4.33  -4.13  -3.57  -3.57  -3.57  -3.57
         -1.94  -1.94  -1.94  -1.94  -0.33  -0.33  -0.33  -0.33  -0.26  -0.26
         -0.26  -0.26   0.05   0.05   0.05   0.05   0.68   0.68   0.68   0.68
          0.75   0.75   0.75   0.75   2.15   2.15   2.15   2.15   3.09   3.09
          3.09   3.09   4.31   4.31   4.31   4.31   4.42   4.42   4.42   4.42
          5.62   5.62   5.62   5.62   5.90   6.49   6.49   6.49   6.49   7.37
          7.37   7.37   7.37   7.66   7.66   7.66   7.66   8.13   8.13   8.13
          8.13   8.70   8.88   8.88   8.88   8.88   9.11   9.11   9.38   9.38
          9.38   9.38  10.21  10.21  10.39  10.39  10.39  10.39  11.67  11.67
         11.67  11.67  11.97  11.97  11.97  11.97  12.15  12.15  12.15  12.15
         12.67  12.67  12.67  12.67  13.11  13.11  13.11  13.11  13.77  13.77
         13.77  13.77  16.53  16.53  16.53  16.53  17.68  17.68  18.09  18.09
         18.09  18.09  18.85  18.85  18.85  18.85  19.79  19.90  19.90  20.24
         20.24  20.24  20.24  21.21  24.09  26.20  33.35  33.35  33.35  33.35
         35.80  35.80  35.80  35.80  36.08  36.08  36.08  36.08  38.11  38.41
         38.95  38.95  38.95  38.95  40.45  40.45  40.45  40.45  40.80  40.80
         40.80  40.80  41.31  41.32  41.32  41.32  41.83  41.83  41.83  41.83
  10  1 -11.85 -11.58 -10.21 -10.21 -10.21 -10.21 -10.18 -10.18 -10.18 -10.18
         -9.59  -9.54  -9.26  -9.26  -9.26  -9.26  -9.25  -9.16  -9.15  -9.15
         -9.15  -9.15  -9.14  -9.14  -9.14  -9.14  -9.05  -9.05  -9.05  -9.05
         -9.01  -9.01  -9.01  -9.01  -8.97  -8.97  -8.97  -8.97  -8.84  -8.84
         -8.84  -8.84  -8.72  -8.72  -8.72  -8.72  -8.45  -8.45  -8.45  -8.45
         -8.32  -8.32  -8.32  -8.32  -8.15  -8.15  -8.15  -8.15  -8.09  -8.09
         -8.09  -8.09  -7.97  -7.86  -7.60  -7.60  -7.60  -7.60  -7.54  -7.54
         -7.54  -7.54  -7.48  -7.48  -7.48  -7.48  -7.46  -7.46  -7.46  -7.46
         -7.41  -7.41  -7.40  -7.40  -7.40  -7.40  -7.37  -7.37  -7.37  -7.37
         -7.33  -7.33  -7.33  -7.33  -7.30  -7.30  -7.23  -7.23  -7.23  -7.23
         -7.17  -7.17  -7.17  -7.17  -7.16  -7.16  -7.16  -7.16  -7.11  -7.11
         -7.11  -7.11  -7.07  -7.07  -7.07  -7.07  -7.00  -7.00  -7.00  -7.00
         -6.86  -6.86  -6.86  -6.86  -6.71  -6.60  -6.28  -6.28  -6.28  -6.28
         -6.19  -6.19  -6.19  -6.19  -6.17  -6.11  -6.10  -6.10  -6.10  -6.10
         -5.99  -5.99  -5.99  -5.99  -5.93  -5.93  -5.93  -5.93  -5.87  -5.87
         -5.87  -5.87  -5.80  -5.80  -5.80  -5.80  -5.80  -5.80  -5.80  -5.80
         -5.70  -5.70  -5.70  -5.70  -5.63  -5.63  -5.63  -5.63  -5.59  -5.59
         -5.48  -5.48  -5.48  -5.48  -5.44  -5.39  -5.39  -5.38  -5.35  -5.35
         -5.35  -5.35  -5.28  -5.28  -5.28  -5.28  -5.24  -5.22  -5.22  -5.22
         -5.22  -4.52  -4.14  -4.14  -4.14  -4.14  -3.76  -3.76  -3.76  -3.76
         -1.53  -1.53  -1.53  -1.53  -0.68  -0.68  -0.68  -0.68  -0.08  -0.08
         -0.08  -0.08   0.19   0.19   0.19   0.19   0.43   0.43   0.43   0.43
          0.55   0.55   0.55   0.55   2.36   2.36   2.36   2.36   2.83   2.83
          2.83   2.83   4.31   4.31   4.31   4.31   4.37   4.37   4.37   4.37
          6.03   6.03   6.03   6.03   6.56   6.76   6.76   6.76   6.76   6.91
          6.91   6.91   6.91   7.35   7.35   7.35   7.35   7.97   8.46   8.46
          8.46   8.46   9.08   9.08   9.08   9.08   9.35   9.35   9.56   9.56
          9.56   9.56   9.90   9.90  10.87  10.87  10.87  10.87  10.96  10.96
         10.96  10.96  11.76  11.76  11.76  11.76  12.15  12.15  12.15  12.15
         12.50  12.50  12.50  12.50  13.25  13.25  13.25  13.25  13.58  13.58
         13.58  13.58  17.01  17.01  17.01  17.01  17.80  17.80  17.80  17.80
         18.25  18.25  19.22  19.22  19.22  19.22  19.36  19.36  19.92  19.92
         19.92  19.92  20.21  20.92  24.52  25.57  35.04  35.04  35.04  35.04
         35.47  35.47  35.47  35.48  35.66  35.66  35.66  35.66  38.28  38.46
         39.05  39.05  39.05  39.06  39.44  39.44  39.44  39.44  40.38  40.38
         40.38  40.38  40.69  40.69  40.69  40.69  41.39  41.39  41.39  41.39
  11  1 -11.72 -11.72 -10.20 -10.20 -10.20 -10.20 -10.20 -10.20 -10.20 -10.20
         -9.56  -9.56  -9.20  -9.20  -9.19  -9.19  -9.19  -9.19  -9.19  -9.19
         -9.19  -9.19  -9.06  -9.06  -9.06  -9.06  -9.06  -9.06  -9.06  -9.06
         -9.03  -9.03  -9.03  -9.03  -9.03  -9.03  -9.03  -9.03  -8.78  -8.78
         -8.78  -8.78  -8.78  -8.78  -8.78  -8.78  -8.38  -8.38  -8.38  -8.38
         -8.38  -8.38  -8.38  -8.38  -8.12  -8.12  -8.12  -8.12  -8.12  -8.12
         -8.12  -8.12  -7.91  -7.91  -7.49  -7.49  -7.49  -7.49  -7.49  -7.49
         -7.49  -7.49  -7.46  -7.46  -7.46  -7.46  -7.46  -7.46  -7.46  -7.46
         -7.43  -7.43  -7.43  -7.43  -7.43  -7.43  -7.43  -7.43  -7.36  -7.36
         -7.36  -7.36  -7.29  -7.29  -7.29  -7.29  -7.29  -7.29  -7.29  -7.29
         -7.17  -7.17  -7.17  -7.17  -7.17  -7.17  -7.17  -7.17  -7.12  -7.12
         -7.12  -7.12  -7.12  -7.12  -7.12  -7.12  -6.93  -6.93  -6.93  -6.93
         -6.93  -6.93  -6.93  -6.93  -6.65  -6.65  -6.24  -6.24  -6.24  -6.24
         -6.24  -6.24  -6.24  -6.24  -6.14  -6.14  -6.01  -6.01  -6.01  -6.01
         -6.01  -6.01  -6.01  -6.01  -5.92  -5.92  -5.92  -5.92  -5.92  -5.92
         -5.92  -5.92  -5.80  -5.80  -5.80  -5.80  -5.80  -5.80  -5.80  -5.80
         -5.67  -5.67  -5.67  -5.67  -5.67  -5.67  -5.67  -5.67  -5.49  -5.49
         -5.49  -5.49  -5.42  -5.42  -5.42  -5.42  -5.42  -5.42  -5.42  -5.42
         -5.41  -5.41  -5.24  -5.24  -5.24  -5.24  -5.24  -5.24  -5.24  -5.24
         -4.88  -4.88  -3.95  -3.95  -3.95  -3.95  -3.95  -3.95  -3.95  -3.95
         -1.11  -1.11  -1.11  -1.11  -1.11  -1.11  -1.11  -1.11   0.18   0.18
          0.18   0.18   0.18   0.18   0.18   0.18   0.36   0.36   0.36   0.36
          0.36   0.36   0.36   0.36   2.59   2.59   2.59   2.59   2.59   2.59
          2.59   2.59   4.33   4.33   4.33   4.33   4.33   4.33   4.33   4.33
          6.46   6.46   6.46   6.46   6.46   6.46   6.46   6.46   7.05   7.05
          7.05   7.05   7.05   7.05   7.05   7.05   7.25   7.25   8.78   8.78
          8.78   8.78   8.78   8.78   8.78   8.78   9.61   9.61   9.61   9.61
         10.26  10.26  10.26  10.26  10.26  10.26  10.26  10.26  11.33  11.33
         11.33  11.33  11.33  11.33  11.33  11.33  12.32  12.32  12.32  12.32
         12.32  12.32  12.32  12.32  13.40  13.40  13.40  13.40  13.40  13.40
         13.40  13.40  17.44  17.44  17.44  17.44  17.44  17.44  17.44  17.44
         18.81  18.81  18.81  18.81  19.58  19.58  19.58  19.58  19.58  19.58
         19.58  19.58  20.58  20.58  25.01  25.01  35.44  35.44  35.44  35.44
         35.44  35.44  35.44  35.44  36.95  36.95  36.95  36.95  36.95  36.95
         36.95  36.95  38.41  38.41  39.92  39.92  39.92  39.92  39.92  39.92
         39.92  39.92  41.00  41.00  41.00  41.00  41.01  41.01  41.01  41.01
siesta: Fermi energy =      -3.439248 eV

siesta: Program's energy decomposition (eV):
siesta:-Eions   =  -39745.547111
siesta: Ena     =    1328.964434
siesta: Ekin    =   22343.106098
siesta: Enl     =  -11314.344598
siesta: DEna    =     215.135712
siesta: DUscf   =      11.896010
siesta: DUext   =       0.000000
siesta: Exc     =   -5124.981371
siesta: eta*DQ  =       0.000000
siesta: Emadel  =       0.000000
siesta: Ekinion =       0.000000
siesta: Eharris =  -32285.766679
siesta: Eso     =       0.000000
siesta: Etot    =  -32285.770825
siesta: FreeEng =  -32285.793141

siesta: Final energy (eV):
siesta:       Kinetic =   22343.106098
siesta:       Hartree =    3698.028613
siesta:    Ext. field =       0.000000
siesta:   Exch.-corr. =   -5124.981371
siesta:  Ion-electron =  -25932.502809
siesta:       Ion-ion =  -27269.421356
siesta:       Ekinion =       0.000000
siesta:         Total =  -32285.770825

siesta: Stress tensor (static) (eV/Ang**3):
siesta:    -0.011182   -0.000020   -0.000001
siesta:    -0.000020   -0.011164    0.000000
siesta:    -0.000001    0.000000    0.001817

siesta: Cell volume =        657.311831 Ang**3

siesta: Pressure (static):
siesta:                Solid            Molecule  Units
siesta:           0.00007452          0.00007496  Ry/Bohr**3
siesta:           0.00684259          0.00688260  eV/Ang**3
siesta:          10.96314934         11.02726329  kBar

siesta: Total spin polarization (Qup-Qdown) =    0.000000
siesta: Spin vector =    0.000000    0.000000    0.000000
siesta: No SpinPolK block detected...
The transport is along the z direction.

* Maximum dynamic memory allocated : Node    0 =   152 MB
* Maximum dynamic memory allocated : Node    1 =   152 MB
* Maximum dynamic memory allocated : Node    2 =   151 MB
* Maximum dynamic memory allocated : Node    3 =   152 MB
* Maximum dynamic memory allocated : Node    4 =   151 MB
* Maximum dynamic memory allocated : Node    5 =   152 MB
* Maximum dynamic memory allocated : Node    6 =   151 MB
* Maximum dynamic memory allocated : Node    7 =   152 MB
* Maximum dynamic memory allocated : Node    8 =   151 MB
* Maximum dynamic memory allocated : Node    9 =   150 MB
* Maximum dynamic memory allocated : Node   10 =   150 MB
* Maximum dynamic memory allocated : Node   11 =   151 MB
* Maximum dynamic memory allocated : Node   12 =   151 MB
* Maximum dynamic memory allocated : Node   13 =   150 MB
* Maximum dynamic memory allocated : Node   14 =   150 MB
* Maximum dynamic memory allocated : Node   15 =   151 MB
* Maximum dynamic memory allocated : Node   16 =   150 MB
* Maximum dynamic memory allocated : Node   17 =   151 MB
* Maximum dynamic memory allocated : Node   18 =   151 MB
* Maximum dynamic memory allocated : Node   19 =   150 MB
* Maximum dynamic memory allocated : Node   20 =   150 MB
* Maximum dynamic memory allocated : Node   21 =   151 MB
* Maximum dynamic memory allocated : Node   22 =   151 MB
* Maximum dynamic memory allocated : Node   23 =   150 MB
* Maximum dynamic memory allocated : Node   24 =   151 MB
* Maximum dynamic memory allocated : Node   25 =   150 MB
* Maximum dynamic memory allocated : Node   26 =   150 MB
* Maximum dynamic memory allocated : Node   27 =   151 MB
* Maximum dynamic memory allocated : Node   28 =   151 MB
* Maximum dynamic memory allocated : Node   29 =   150 MB
* Maximum dynamic memory allocated : Node   30 =   150 MB
* Maximum dynamic memory allocated : Node   31 =   151 MB
* Maximum dynamic memory allocated : Node   32 =   151 MB
* Maximum dynamic memory allocated : Node   33 =   151 MB
* Maximum dynamic memory allocated : Node   34 =   151 MB
* Maximum dynamic memory allocated : Node   35 =   151 MB
* Maximum dynamic memory allocated : Node   36 =   151 MB
* Maximum dynamic memory allocated : Node   37 =   151 MB
* Maximum dynamic memory allocated : Node   38 =   151 MB
* Maximum dynamic memory allocated : Node   39 =   151 MB
* Maximum dynamic memory allocated : Node   40 =   150 MB
* Maximum dynamic memory allocated : Node   41 =   151 MB
* Maximum dynamic memory allocated : Node   42 =   151 MB
* Maximum dynamic memory allocated : Node   43 =   150 MB
* Maximum dynamic memory allocated : Node   44 =   150 MB
* Maximum dynamic memory allocated : Node   45 =   151 MB
* Maximum dynamic memory allocated : Node   46 =   151 MB
* Maximum dynamic memory allocated : Node   47 =   150 MB
* Maximum dynamic memory allocated : Node   48 =   151 MB
* Maximum dynamic memory allocated : Node   49 =   150 MB
* Maximum dynamic memory allocated : Node   50 =   150 MB
* Maximum dynamic memory allocated : Node   51 =   151 MB
* Maximum dynamic memory allocated : Node   52 =   151 MB
* Maximum dynamic memory allocated : Node   53 =   150 MB
* Maximum dynamic memory allocated : Node   54 =   150 MB
* Maximum dynamic memory allocated : Node   55 =   151 MB
* Maximum dynamic memory allocated : Node   56 =   150 MB
* Maximum dynamic memory allocated : Node   57 =   151 MB
* Maximum dynamic memory allocated : Node   58 =   151 MB
* Maximum dynamic memory allocated : Node   59 =   150 MB
* Maximum dynamic memory allocated : Node   60 =   150 MB
* Maximum dynamic memory allocated : Node   61 =   151 MB
* Maximum dynamic memory allocated : Node   62 =   151 MB
* Maximum memory occured during bulktrans                     
* Maximum dynamic memory allocated : Node   63 =   150 MB

timer: CPU execution times:
timer:  Routine       Calls   Time/call    Tot.time        %
timer:  siesta            1   48960.122   48960.122   100.00
timer:  Setup             1     159.912     159.912     0.33
timer:  bands             1       0.001       0.001     0.00
timer:  writewave         1       0.010       0.010     0.00
timer:  KSV_init          1       0.016       0.016     0.00
timer:  IterMD            1   47960.637   47960.637    97.96
timer:  hsparse           2       1.594       3.189     0.01
timer:  overfsm           2       1.300       2.600     0.01
timer:  IterSCF         181     264.918   47950.070    97.94
timer:  kinefsm           2       1.103       2.206     0.00
timer:  nlefsm            2      49.391      98.782     0.20
timer:  DHSCF           185      95.723   17708.739    36.17
timer:  DHSCF1            1      35.895      35.895     0.07
timer:  DHSCF2            5     362.550    1812.751     3.70
timer:  REORD          1864       0.004       6.840     0.01
timer:  POISON          190       0.670     127.336     0.26
timer:  DHSCF3          185      83.845   15511.347    31.68
timer:  rhoofd          185      28.305    5236.485    10.70
timer:  CELLXC          185       5.518    1020.901     2.09
timer:  vmat            181      44.419    8039.922    16.42
timer:  diagon          180     104.569   18822.382    38.44
timer:  cdiag          3960       4.554   18035.747    36.84
timer:  DHSCF4            4      80.406     321.624     0.66
timer:  dfscf             4      53.820     215.280     0.44
  
>> End of run:  12-SEP-2023  16:08:52
