 DBCSR| CPU Multiplication driver                                           XSMM
 DBCSR| Multrec recursion limit                                              512
 DBCSR| Multiplication stack size                                           1000
 DBCSR| Maximum elements for images                                    UNLIMITED
 DBCSR| Multiplicative factor virtual images                                   1
 DBCSR| Use multiplication densification                                       T
 DBCSR| Multiplication size stacks                                             3
 DBCSR| Use memory pool for CPU allocation                                     F
 DBCSR| Number of 3D layers                                               SINGLE
 DBCSR| Use MPI memory allocation                                              F
 DBCSR| Use RMA algorithm                                                      F
 DBCSR| Use Communication thread                                               T
 DBCSR| Communication thread load                                             60
 DBCSR| MPI: My node id                                                        0
 DBCSR| MPI: Number of nodes                                                  64
 DBCSR| OMP: Current number of threads                                         8
 DBCSR| OMP: Max number of threads                                             8
 DBCSR| Split modifier for TAS multiplication algorithm                  1.0E+00


  **** **** ******  **  PROGRAM STARTED AT               2024-01-09 19:54:51.407
 ***** ** ***  *** **   PROGRAM STARTED ON                           hx1-c08-5-1
 **    ****   ******    PROGRAM STARTED BY                                cahart
 ***** **    ** ** **   PROGRAM PROCESS ID                               3045523
  **** **  *******  **  PROGRAM STARTED IN /gpfs/home/cahart/transport/melamine/
                                           au_from-h2/capacitor/leads-sz_tip-dzv
                                           p_surf-dzvp_kpoints-1-1-20-cu

 CP2K| version string:                 CP2K version 2022.1 (Development Version)
 CP2K| source code revision number:                                  git:5518aa6
 CP2K| cp2kflags: omp libint fftw3 libxc parallel mpi3 scalapack xsmm plumed2   
 CP2K| is freely available from                            https://www.cp2k.org/
 CP2K| Program compiled at                          Thu 21 Sep 19:20:17 BST 2023
 CP2K| Program compiled on                                       hx1-c12-login-1
 CP2K| Program compiled for                                                local
 CP2K| Data directory path    /gpfs/easybuild/prod/software/CP2K/2022.1-foss-202
 CP2K| Input file name                                                  3_0V.inp

 GLOBAL| Force Environment number                                              1
 GLOBAL| Basis set file name                                        BASIS_MOLOPT
 GLOBAL| Potential file name                                      GTH_POTENTIALS
 GLOBAL| MM Potential file name                                     MM_POTENTIAL
 GLOBAL| Coordinate file name                                             em.xyz
 GLOBAL| Method name                                                        CP2K
 GLOBAL| Project name                                                         0V
 GLOBAL| Run type                                                         ENERGY
 GLOBAL| FFT library                                                       FFTW3
 GLOBAL| Diagonalization library                                       ScaLAPACK
 GLOBAL| Orthonormality check for eigenvectors                          DISABLED
 GLOBAL| Matrix multiplication library                                 ScaLAPACK
 GLOBAL| All-to-all communication in single precision                          F
 GLOBAL| FFTs using library dependent lengths                                  T
 GLOBAL| Grid backend                                                       AUTO
 GLOBAL| Global print level                                               MEDIUM
 GLOBAL| MPI I/O enabled                                                       T
 GLOBAL| Total number of message passing processes                            64
 GLOBAL| Number of threads for this process                                    8
 GLOBAL| This output is from process                                           0
 GLOBAL| Stack size for threads created by OpenMP (OMP_STACKSIZE)        default
 GLOBAL| CPU model name             Intel(R) Xeon(R) Platinum 8358 CPU @ 2.60GHz
 GLOBAL| CPUID                                                              1003

 MEMORY| system memory details [Kb]
 MEMORY|                        rank 0           min           max       average
 MEMORY| MemTotal            527652792     527652780     527652796     527652787
 MEMORY| MemFree             509432484     509432484     515419480     513510915
 MEMORY| Buffers                  5480             0          5480          3650
 MEMORY| Cached                6007012        773704       6007012       2297135
 MEMORY| Slab                  1858716       1095756       1858716       1537202
 MEMORY| SReclaimable           809296        206604        809296        585817
 MEMORY| MemLikelyFree       516254272     516109620     516664672     516397518


 *** Fundamental physical constants (SI units) ***

 *** Literature: B. J. Mohr and B. N. Taylor,
 ***             CODATA recommended values of the fundamental physical
 ***             constants: 2006, Web Version 5.1
 ***             http://physics.nist.gov/constants

 Speed of light in vacuum [m/s]                             2.99792458000000E+08
 Magnetic constant or permeability of vacuum [N/A**2]       1.25663706143592E-06
 Electric constant or permittivity of vacuum [F/m]          8.85418781762039E-12
 Planck constant (h) [J*s]                                  6.62606896000000E-34
 Planck constant (h-bar) [J*s]                              1.05457162825177E-34
 Elementary charge [C]                                      1.60217648700000E-19
 Electron mass [kg]                                         9.10938215000000E-31
 Electron g factor [ ]                                     -2.00231930436220E+00
 Proton mass [kg]                                           1.67262163700000E-27
 Fine-structure constant                                    7.29735253760000E-03
 Rydberg constant [1/m]                                     1.09737315685270E+07
 Avogadro constant [1/mol]                                  6.02214179000000E+23
 Boltzmann constant [J/K]                                   1.38065040000000E-23
 Atomic mass unit [kg]                                      1.66053878200000E-27
 Bohr radius [m]                                            5.29177208590000E-11

 *** Conversion factors ***

 [u] -> [a.u.]                                              1.82288848426455E+03
 [Angstrom] -> [Bohr] = [a.u.]                              1.88972613288564E+00
 [a.u.] = [Bohr] -> [Angstrom]                              5.29177208590000E-01
 [a.u.] -> [s]                                              2.41888432650478E-17
 [a.u.] -> [fs]                                             2.41888432650478E-02
 [a.u.] -> [J]                                              4.35974393937059E-18
 [a.u.] -> [N]                                              8.23872205491840E-08
 [a.u.] -> [K]                                              3.15774647902944E+05
 [a.u.] -> [kJ/mol]                                         2.62549961709828E+03
 [a.u.] -> [kcal/mol]                                       6.27509468713739E+02
 [a.u.] -> [Pa]                                             2.94210107994716E+13
 [a.u.] -> [bar]                                            2.94210107994716E+08
 [a.u.] -> [atm]                                            2.90362800883016E+08
 [a.u.] -> [eV]                                             2.72113838565563E+01
 [a.u.] -> [Hz]                                             6.57968392072181E+15
 [a.u.] -> [1/cm] (wave numbers)                            2.19474631370540E+05
 [a.u./Bohr**2] -> [1/cm]                                   5.14048714338585E+03
 

 CELL_TOP| Volume [angstrom^3]:                                      4593.719514
 CELL_TOP| Vector a [angstrom    14.582     0.000     0.000   |a| =    14.582000
 CELL_TOP| Vector b [angstrom     0.000     8.866     0.000   |b| =     8.866000
 CELL_TOP| Vector c [angstrom     0.000     0.000    35.532   |c| =    35.532000
 CELL_TOP| Angle (b,c), alpha [degree]:                                90.000000
 CELL_TOP| Angle (a,c), beta  [degree]:                                90.000000
 CELL_TOP| Angle (a,b), gamma [degree]:                                90.000000
 CELL_TOP| Numerically orthorhombic:                                         YES
 CELL_TOP| Periodicity                                                       XYZ

 GENERATE|  Preliminary Number of Bonds generated:                             0
 GENERATE|  Achieved consistency in connectivity generation.

 CELL| Volume [angstrom^3]:                                          4593.719514
 CELL| Vector a [angstrom]:      14.582     0.000     0.000   |a| =    14.582000
 CELL| Vector b [angstrom]:       0.000     8.866     0.000   |b| =     8.866000
 CELL| Vector c [angstrom]:       0.000     0.000    35.532   |c| =    35.532000
 CELL| Angle (b,c), alpha [degree]:                                    90.000000
 CELL| Angle (a,c), beta  [degree]:                                    90.000000
 CELL| Angle (a,b), gamma [degree]:                                    90.000000
 CELL| Numerically orthorhombic:                                             YES
 CELL| Periodicity                                                           XYZ

 CELL_REF| Volume [angstrom^3]:                                      4593.719514
 CELL_REF| Vector a [angstrom    14.582     0.000     0.000   |a| =    14.582000
 CELL_REF| Vector b [angstrom     0.000     8.866     0.000   |b| =     8.866000
 CELL_REF| Vector c [angstrom     0.000     0.000    35.532   |c| =    35.532000
 CELL_REF| Angle (b,c), alpha [degree]:                                90.000000
 CELL_REF| Angle (a,c), beta  [degree]:                                90.000000
 CELL_REF| Angle (a,b), gamma [degree]:                                90.000000
 CELL_REF| Numerically orthorhombic:                                         YES
 CELL_REF| Periodicity                                                       XYZ

 *** WARNING in cryssym.F:165 :: Symmetry library SPGLIB not available ***


 *******************************************************************************
                                    Kpoints
 *******************************************************************************
 BRILLOUIN| K-point scheme                                        Monkhorst-Pack
 BRILLOUIN| K-Point grid                                             1    1    1
 BRILLOUIN| Accuracy in Symmetry determination                      0.100000E-07
 BRILLOUIN| K-Point point group symmetrization                               OFF
 BRILLOUIN| Wavefunction type                                            COMPLEX
 BRILLOUIN| Use full k-point grid     
 BRILLOUIN| List of Kpoints [2 Pi/Bohr]                                        1
 BRILLOUIN| Number           Weight            X              Y              Z
 BRILLOUIN|     1           1.00000        0.00000        0.00000        0.00000
 *******************************************************************************

 *******************************************************************************
 *******************************************************************************
 **                                                                           **
 **     #####                         ##              ##                      **
 **    ##   ##            ##          ##              ##                      **
 **   ##     ##                       ##            ######                    **
 **   ##     ##  ##   ##  ##   #####  ##  ##   ####   ##    #####    #####    **
 **   ##     ##  ##   ##  ##  ##      ## ##   ##      ##   ##   ##  ##   ##   **
 **   ##  ## ##  ##   ##  ##  ##      ####     ###    ##   ######   ######    **
 **    ##  ###   ##   ##  ##  ##      ## ##      ##   ##   ##       ##        **
 **     #######   #####   ##   #####  ##  ##  ####    ##    #####   ##        **
 **           ##                                                    ##        **
 **                                                                           **
 **                                                ... make the atoms dance   **
 **                                                                           **
 **            Copyright (C) by CP2K developers group (2000-2022)             **
 **                      J. Chem. Phys. 152, 194103 (2020)                    **
 **                                                                           **
 *******************************************************************************

 DFT| Spin restricted Kohn-Sham (RKS) calculation                            RKS
 DFT| Multiplicity                                                             2
 DFT| Number of spin states                                                    1
 DFT| Charge                                                                   0
 DFT| Self-interaction correction (SIC)                                       NO
 DFT| Cutoffs: density                                              1.000000E-10
 DFT|          gradient                                             1.000000E-10
 DFT|          tau                                                  1.000000E-10
 DFT|          cutoff_smoothing_range                               0.000000E+00
 DFT| XC density smoothing                                                  NONE
 DFT| XC derivatives                                                          PW

 FUNCTIONAL| PBE:
 FUNCTIONAL| J.P.Perdew, K.Burke, M.Ernzerhof, Phys. Rev. Letter, vol. 77, n 18,
 FUNCTIONAL|  pp. 3865-3868, (1996){spin unpolarized}                           


 QS| Method:                                                                 GPW
 QS| Density plane wave grid type                        NON-SPHERICAL FULLSPACE
 QS| Number of grid levels:                                                    4
 QS| Density cutoff [a.u.]:                                                300.0
 QS| Multi grid cutoff [a.u.]: 1) grid level                               300.0
 QS|                           2) grid level                               100.0
 QS|                           3) grid level                                33.3
 QS|                           4) grid level                                11.1
 QS| Grid level progression factor:                                          3.0
 QS| Relative density cutoff [a.u.]:                                        30.0
 QS| Interaction thresholds: eps_pgf_orb:                                1.0E-05
 QS|                         eps_filter_matrix:                          0.0E+00
 QS|                         eps_core_charge:                            1.0E-12
 QS|                         eps_rho_gspace:                             1.0E-10
 QS|                         eps_rho_rspace:                             1.0E-10
 QS|                         eps_gvg_rspace:                             1.0E-05
 QS|                         eps_ppl:                                    1.0E-02
 QS|                         eps_ppnl:                                   1.0E-07


 ATOMIC KIND INFORMATION

  1. Atomic kind: Cu_bulk                               Number of atoms:     120

     Orbital Basis Set                                     SZV-MOLOPT-SR-GTH-q11

       Number of orbital shell sets:                                           1
       Number of orbital shells:                                               3
       Number of primitive Cartesian functions:                                6
       Number of Cartesian basis functions:                                   10
       Number of spherical basis functions:                                    9
       Norm type:                                                              2

       Normalised Cartesian orbitals:

                        Set   Shell   Orbital            Exponent    Coefficient

                          1       1    2s                5.804051       0.045596
                                                         2.947778      -0.139279
                                                         1.271621       0.214572
                                                         0.517174       0.085605
                                                         0.198007      -0.138200
                                                         0.061684      -0.053295

                          1       2    3px               5.804051      -0.066551
                                                         2.947778       0.111915
                                                         1.271621      -0.204459
                                                         0.517174       0.040237
                                                         0.198007       0.099394
                                                         0.061684       0.024283
                          1       2    3py               5.804051      -0.066551
                                                         2.947778       0.111915
                                                         1.271621      -0.204459
                                                         0.517174       0.040237
                                                         0.198007       0.099394
                                                         0.061684       0.024283
                          1       2    3pz               5.804051      -0.066551
                                                         2.947778       0.111915
                                                         1.271621      -0.204459
                                                         0.517174       0.040237
                                                         0.198007       0.099394
                                                         0.061684       0.024283

                          1       3    4dx2              5.804051       9.381621
                                                         2.947778       3.660256
                                                         1.271621       0.792510
                                                         0.517174       0.128389
                                                         0.198007       0.013938
                                                         0.061684       0.000367
                          1       3    4dxy              5.804051      16.249444
                                                         2.947778       6.339749
                                                         1.271621       1.372667
                                                         0.517174       0.222377
                                                         0.198007       0.024141
                                                         0.061684       0.000636
                          1       3    4dxz              5.804051      16.249444
                                                         2.947778       6.339749
                                                         1.271621       1.372667
                                                         0.517174       0.222377
                                                         0.198007       0.024141
                                                         0.061684       0.000636
                          1       3    4dy2              5.804051       9.381621
                                                         2.947778       3.660256
                                                         1.271621       0.792510
                                                         0.517174       0.128389
                                                         0.198007       0.013938
                                                         0.061684       0.000367
                          1       3    4dyz              5.804051      16.249444
                                                         2.947778       6.339749
                                                         1.271621       1.372667
                                                         0.517174       0.222377
                                                         0.198007       0.024141
                                                         0.061684       0.000636
                          1       3    4dz2              5.804051       9.381621
                                                         2.947778       3.660256
                                                         1.271621       0.792510
                                                         0.517174       0.128389
                                                         0.198007       0.013938
                                                         0.061684       0.000367

       Atomic covalent radius [Angstrom]:                                  1.170

       Atomic van der Waals radius [Angstrom]:                             1.400

     GTH Potential information for                                   GTH-PBE-q11

       Description:                       Goedecker-Teter-Hutter pseudopotential
                                           Goedecker et al., PRB 54, 1703 (1996)
                                          Hartwigsen et al., PRB 58, 3641 (1998)
                                                      Krack, TCA 114, 145 (2005)

       Gaussian exponent of the core charge distribution:               1.779993
       Electronic configuration (s p d ...):                           1   0  10

       Parameters of the local part of the GTH pseudopotential:

                          rloc        C1          C2          C3          C4
                        0.530000

       Parameters of the non-local part of the GTH pseudopotential:

                   l      r(l)      h(i,j,l)

                   0    0.431355    9.693805   -6.470165    1.935952
                                   -6.470165   11.501774   -4.998607
                                    1.935952   -4.998607    3.967521
                   1    0.561392    2.545473   -0.784636
                                   -0.784636    0.928394
                   2    0.264555  -12.828614

  2. Atomic kind: Cu                                    Number of atoms:      30

     Orbital Basis Set                                     SZV-MOLOPT-SR-GTH-q11

       Number of orbital shell sets:                                           1
       Number of orbital shells:                                               3
       Number of primitive Cartesian functions:                                6
       Number of Cartesian basis functions:                                   10
       Number of spherical basis functions:                                    9
       Norm type:                                                              2

       Normalised Cartesian orbitals:

                        Set   Shell   Orbital            Exponent    Coefficient

                          1       1    2s                5.804051       0.045596
                                                         2.947778      -0.139279
                                                         1.271621       0.214572
                                                         0.517174       0.085605
                                                         0.198007      -0.138200
                                                         0.061684      -0.053295

                          1       2    3px               5.804051      -0.066551
                                                         2.947778       0.111915
                                                         1.271621      -0.204459
                                                         0.517174       0.040237
                                                         0.198007       0.099394
                                                         0.061684       0.024283
                          1       2    3py               5.804051      -0.066551
                                                         2.947778       0.111915
                                                         1.271621      -0.204459
                                                         0.517174       0.040237
                                                         0.198007       0.099394
                                                         0.061684       0.024283
                          1       2    3pz               5.804051      -0.066551
                                                         2.947778       0.111915
                                                         1.271621      -0.204459
                                                         0.517174       0.040237
                                                         0.198007       0.099394
                                                         0.061684       0.024283

                          1       3    4dx2              5.804051       9.381621
                                                         2.947778       3.660256
                                                         1.271621       0.792510
                                                         0.517174       0.128389
                                                         0.198007       0.013938
                                                         0.061684       0.000367
                          1       3    4dxy              5.804051      16.249444
                                                         2.947778       6.339749
                                                         1.271621       1.372667
                                                         0.517174       0.222377
                                                         0.198007       0.024141
                                                         0.061684       0.000636
                          1       3    4dxz              5.804051      16.249444
                                                         2.947778       6.339749
                                                         1.271621       1.372667
                                                         0.517174       0.222377
                                                         0.198007       0.024141
                                                         0.061684       0.000636
                          1       3    4dy2              5.804051       9.381621
                                                         2.947778       3.660256
                                                         1.271621       0.792510
                                                         0.517174       0.128389
                                                         0.198007       0.013938
                                                         0.061684       0.000367
                          1       3    4dyz              5.804051      16.249444
                                                         2.947778       6.339749
                                                         1.271621       1.372667
                                                         0.517174       0.222377
                                                         0.198007       0.024141
                                                         0.061684       0.000636
                          1       3    4dz2              5.804051       9.381621
                                                         2.947778       3.660256
                                                         1.271621       0.792510
                                                         0.517174       0.128389
                                                         0.198007       0.013938
                                                         0.061684       0.000367

       Atomic covalent radius [Angstrom]:                                  1.170

       Atomic van der Waals radius [Angstrom]:                             1.400

     GTH Potential information for                                   GTH-PBE-q11

       Description:                       Goedecker-Teter-Hutter pseudopotential
                                           Goedecker et al., PRB 54, 1703 (1996)
                                          Hartwigsen et al., PRB 58, 3641 (1998)
                                                      Krack, TCA 114, 145 (2005)

       Gaussian exponent of the core charge distribution:               1.779993
       Electronic configuration (s p d ...):                           1   0  10

       Parameters of the local part of the GTH pseudopotential:

                          rloc        C1          C2          C3          C4
                        0.530000

       Parameters of the non-local part of the GTH pseudopotential:

                   l      r(l)      h(i,j,l)

                   0    0.431355    9.693805   -6.470165    1.935952
                                   -6.470165   11.501774   -4.998607
                                    1.935952   -4.998607    3.967521
                   1    0.561392    2.545473   -0.784636
                                   -0.784636    0.928394
                   2    0.264555  -12.828614

  3. Atomic kind: Cu_surf                               Number of atoms:      15

     Orbital Basis Set                                    DZVP-MOLOPT-SR-GTH-q11

       Number of orbital shell sets:                                           1
       Number of orbital shells:                                               7
       Number of primitive Cartesian functions:                                6
       Number of Cartesian basis functions:                                   30
       Number of spherical basis functions:                                   25
       Norm type:                                                              2

       Normalised Cartesian orbitals:

                        Set   Shell   Orbital            Exponent    Coefficient

                          1       1    2s                5.804051       0.045596
                                                         2.947778      -0.139279
                                                         1.271621       0.214572
                                                         0.517174       0.085605
                                                         0.198007      -0.138200
                                                         0.061684      -0.053295

                          1       2    3s                5.804051       0.130403
                                                         2.947778      -0.161341
                                                         1.271621      -0.101039
                                                         0.517174      -0.345250
                                                         0.198007       0.499925
                                                         0.061684      -0.162382

                          1       3    3px               5.804051      -0.066551
                                                         2.947778       0.111915
                                                         1.271621      -0.204459
                                                         0.517174       0.040237
                                                         0.198007       0.099394
                                                         0.061684       0.024283
                          1       3    3py               5.804051      -0.066551
                                                         2.947778       0.111915
                                                         1.271621      -0.204459
                                                         0.517174       0.040237
                                                         0.198007       0.099394
                                                         0.061684       0.024283
                          1       3    3pz               5.804051      -0.066551
                                                         2.947778       0.111915
                                                         1.271621      -0.204459
                                                         0.517174       0.040237
                                                         0.198007       0.099394
                                                         0.061684       0.024283

                          1       4    4px               5.804051      -0.329266
                                                         2.947778       0.140173
                                                         1.271621       0.545791
                                                         0.517174       0.280404
                                                         0.198007      -0.321326
                                                         0.061684       0.055470
                          1       4    4py               5.804051      -0.329266
                                                         2.947778       0.140173
                                                         1.271621       0.545791
                                                         0.517174       0.280404
                                                         0.198007      -0.321326
                                                         0.061684       0.055470
                          1       4    4pz               5.804051      -0.329266
                                                         2.947778       0.140173
                                                         1.271621       0.545791
                                                         0.517174       0.280404
                                                         0.198007      -0.321326
                                                         0.061684       0.055470

                          1       5    4dx2              5.804051       9.381621
                                                         2.947778       3.660256
                                                         1.271621       0.792510
                                                         0.517174       0.128389
                                                         0.198007       0.013938
                                                         0.061684       0.000367
                          1       5    4dxy              5.804051      16.249444
                                                         2.947778       6.339749
                                                         1.271621       1.372667
                                                         0.517174       0.222377
                                                         0.198007       0.024141
                                                         0.061684       0.000636
                          1       5    4dxz              5.804051      16.249444
                                                         2.947778       6.339749
                                                         1.271621       1.372667
                                                         0.517174       0.222377
                                                         0.198007       0.024141
                                                         0.061684       0.000636
                          1       5    4dy2              5.804051       9.381621
                                                         2.947778       3.660256
                                                         1.271621       0.792510
                                                         0.517174       0.128389
                                                         0.198007       0.013938
                                                         0.061684       0.000367
                          1       5    4dyz              5.804051      16.249444
                                                         2.947778       6.339749
                                                         1.271621       1.372667
                                                         0.517174       0.222377
                                                         0.198007       0.024141
                                                         0.061684       0.000636
                          1       5    4dz2              5.804051       9.381621
                                                         2.947778       3.660256
                                                         1.271621       0.792510
                                                         0.517174       0.128389
                                                         0.198007       0.013938
                                                         0.061684       0.000367

                          1       6    5dx2              5.804051      -3.189865
                                                         2.947778      -1.988097
                                                         1.271621      -0.492759
                                                         0.517174       0.080183
                                                         0.198007       0.017863
                                                         0.061684       0.009947
                          1       6    5dxy              5.804051      -5.525009
                                                         2.947778      -3.443486
                                                         1.271621      -0.853484
                                                         0.517174       0.138882
                                                         0.198007       0.030940
                                                         0.061684       0.017228
                          1       6    5dxz              5.804051      -5.525009
                                                         2.947778      -3.443486
                                                         1.271621      -0.853484
                                                         0.517174       0.138882
                                                         0.198007       0.030940
                                                         0.061684       0.017228
                          1       6    5dy2              5.804051      -3.189865
                                                         2.947778      -1.988097
                                                         1.271621      -0.492759
                                                         0.517174       0.080183
                                                         0.198007       0.017863
                                                         0.061684       0.009947
                          1       6    5dyz              5.804051      -5.525009
                                                         2.947778      -3.443486
                                                         1.271621      -0.853484
                                                         0.517174       0.138882
                                                         0.198007       0.030940
                                                         0.061684       0.017228
                          1       6    5dz2              5.804051      -3.189865
                                                         2.947778      -1.988097
                                                         1.271621      -0.492759
                                                         0.517174       0.080183
                                                         0.198007       0.017863
                                                         0.061684       0.009947

                          1       7    5fx3              5.804051      -1.183361
                                                         2.947778       0.859927
                                                         1.271621      -0.674185
                                                         0.517174      -0.156063
                                                         0.198007      -0.018231
                                                         0.061684       0.001772
                          1       7    5fx2y             5.804051      -2.646075
                                                         2.947778       1.922855
                                                         1.271621      -1.507524
                                                         0.517174      -0.348968
                                                         0.198007      -0.040766
                                                         0.061684       0.003961
                          1       7    5fx2z             5.804051      -2.646075
                                                         2.947778       1.922855
                                                         1.271621      -1.507524
                                                         0.517174      -0.348968
                                                         0.198007      -0.040766
                                                         0.061684       0.003961
                          1       7    5fxy2             5.804051      -2.646075
                                                         2.947778       1.922855
                                                         1.271621      -1.507524
                                                         0.517174      -0.348968
                                                         0.198007      -0.040766
                                                         0.061684       0.003961
                          1       7    5fxyz             5.804051      -4.583137
                                                         2.947778       3.330483
                                                         1.271621      -2.611108
                                                         0.517174      -0.604431
                                                         0.198007      -0.070608
                                                         0.061684       0.006861
                          1       7    5fxz2             5.804051      -2.646075
                                                         2.947778       1.922855
                                                         1.271621      -1.507524
                                                         0.517174      -0.348968
                                                         0.198007      -0.040766
                                                         0.061684       0.003961
                          1       7    5fy3              5.804051      -1.183361
                                                         2.947778       0.859927
                                                         1.271621      -0.674185
                                                         0.517174      -0.156063
                                                         0.198007      -0.018231
                                                         0.061684       0.001772
                          1       7    5fy2z             5.804051      -2.646075
                                                         2.947778       1.922855
                                                         1.271621      -1.507524
                                                         0.517174      -0.348968
                                                         0.198007      -0.040766
                                                         0.061684       0.003961
                          1       7    5fyz2             5.804051      -2.646075
                                                         2.947778       1.922855
                                                         1.271621      -1.507524
                                                         0.517174      -0.348968
                                                         0.198007      -0.040766
                                                         0.061684       0.003961
                          1       7    5fz3              5.804051      -1.183361
                                                         2.947778       0.859927
                                                         1.271621      -0.674185
                                                         0.517174      -0.156063
                                                         0.198007      -0.018231
                                                         0.061684       0.001772

       Atomic covalent radius [Angstrom]:                                  1.170

       Atomic van der Waals radius [Angstrom]:                             1.400

     GTH Potential information for                                   GTH-PBE-q11

       Description:                       Goedecker-Teter-Hutter pseudopotential
                                           Goedecker et al., PRB 54, 1703 (1996)
                                          Hartwigsen et al., PRB 58, 3641 (1998)
                                                      Krack, TCA 114, 145 (2005)

       Gaussian exponent of the core charge distribution:               1.779993
       Electronic configuration (s p d ...):                           1   0  10

       Parameters of the local part of the GTH pseudopotential:

                          rloc        C1          C2          C3          C4
                        0.530000

       Parameters of the non-local part of the GTH pseudopotential:

                   l      r(l)      h(i,j,l)

                   0    0.431355    9.693805   -6.470165    1.935952
                                   -6.470165   11.501774   -4.998607
                                    1.935952   -4.998607    3.967521
                   1    0.561392    2.545473   -0.784636
                                   -0.784636    0.928394
                   2    0.264555  -12.828614


 MOLECULE KIND INFORMATION


 All atoms are their own molecule, skipping detailed information


 TOTAL NUMBERS AND MAXIMUM NUMBERS

  Total number of            - Atomic kinds:                                   3
                             - Atoms:                                        165
                             - Shell sets:                                   165
                             - Shells:                                       555
                             - Primitive Cartesian functions:                990
                             - Cartesian basis functions:                   1950
                             - Spherical basis functions:                   1725

  Maximum angular momentum of the orbital basis functions:                     3


 MODULE QUICKSTEP: ATOMIC COORDINATES IN ANGSTROM

   Atom Kind Element         X             Y             Z       Z(eff)     Mass
      1    1 Cu   29      0.000000      0.000000      0.000000  11.0000  63.5460
      2    1 Cu   29      0.000000      2.955000      0.000000  11.0000  63.5460
      3    1 Cu   29      0.000000      5.911000      0.000000  11.0000  63.5460
      4    1 Cu   29      2.956000      0.000000      0.000000  11.0000  63.5460
      5    1 Cu   29      2.956000      2.955000      0.000000  11.0000  63.5460
      6    1 Cu   29      2.956000      5.911000      0.000000  11.0000  63.5460
      7    1 Cu   29      5.912000      0.000000      0.000000  11.0000  63.5460
      8    1 Cu   29      5.912000      2.955000      0.000000  11.0000  63.5460
      9    1 Cu   29      5.912000      5.911000      0.000000  11.0000  63.5460
     10    1 Cu   29      8.670000      0.000000      0.000000  11.0000  63.5460
     11    1 Cu   29      8.670000      2.955000      0.000000  11.0000  63.5460
     12    1 Cu   29      8.670000      5.911000      0.000000  11.0000  63.5460
     13    1 Cu   29     11.626000      0.000000      0.000000  11.0000  63.5460
     14    1 Cu   29     11.626000      2.955000      0.000000  11.0000  63.5460
     15    1 Cu   29     11.626000      5.911000      0.000000  11.0000  63.5460
     16    1 Cu   29      1.478000      1.478000      2.090000  11.0000  63.5460
     17    1 Cu   29      1.478000      4.433000      2.090000  11.0000  63.5460
     18    1 Cu   29      1.478000      7.389000      2.090000  11.0000  63.5460
     19    1 Cu   29      4.434000      1.478000      2.090000  11.0000  63.5460
     20    1 Cu   29      4.434000      4.433000      2.090000  11.0000  63.5460
     21    1 Cu   29      4.434000      7.389000      2.090000  11.0000  63.5460
     22    1 Cu   29      7.192000      1.478000      2.090000  11.0000  63.5460
     23    1 Cu   29      7.192000      4.433000      2.090000  11.0000  63.5460
     24    1 Cu   29      7.192000      7.389000      2.090000  11.0000  63.5460
     25    1 Cu   29     10.148000      1.478000      2.090000  11.0000  63.5460
     26    1 Cu   29     10.148000      4.433000      2.090000  11.0000  63.5460
     27    1 Cu   29     10.148000      7.389000      2.090000  11.0000  63.5460
     28    1 Cu   29     13.104000      1.478000      2.090000  11.0000  63.5460
     29    1 Cu   29     13.104000      4.433000      2.090000  11.0000  63.5460
     30    1 Cu   29     13.104000      7.389000      2.090000  11.0000  63.5460
     31    1 Cu   29      0.000000      0.000000      4.180000  11.0000  63.5460
     32    1 Cu   29      0.000000      2.955000      4.180000  11.0000  63.5460
     33    1 Cu   29      0.000000      5.911000      4.180000  11.0000  63.5460
     34    1 Cu   29      2.956000      0.000000      4.180000  11.0000  63.5460
     35    1 Cu   29      2.956000      2.955000      4.180000  11.0000  63.5460
     36    1 Cu   29      2.956000      5.911000      4.180000  11.0000  63.5460
     37    1 Cu   29      5.912000      0.000000      4.180000  11.0000  63.5460
     38    1 Cu   29      5.912000      2.955000      4.180000  11.0000  63.5460
     39    1 Cu   29      5.912000      5.911000      4.180000  11.0000  63.5460
     40    1 Cu   29      8.670000      0.000000      4.180000  11.0000  63.5460
     41    1 Cu   29      8.670000      2.955000      4.180000  11.0000  63.5460
     42    1 Cu   29      8.670000      5.911000      4.180000  11.0000  63.5460
     43    1 Cu   29     11.626000      0.000000      4.180000  11.0000  63.5460
     44    1 Cu   29     11.626000      2.955000      4.180000  11.0000  63.5460
     45    1 Cu   29     11.626000      5.911000      4.180000  11.0000  63.5460
     46    1 Cu   29      1.478000      1.478000      6.270000  11.0000  63.5460
     47    1 Cu   29      1.478000      4.433000      6.270000  11.0000  63.5460
     48    1 Cu   29      1.478000      7.389000      6.270000  11.0000  63.5460
     49    1 Cu   29      4.434000      1.478000      6.270000  11.0000  63.5460
     50    1 Cu   29      4.434000      4.433000      6.270000  11.0000  63.5460
     51    1 Cu   29      4.434000      7.389000      6.270000  11.0000  63.5460
     52    1 Cu   29      7.192000      1.478000      6.270000  11.0000  63.5460
     53    1 Cu   29      7.192000      4.433000      6.270000  11.0000  63.5460
     54    1 Cu   29      7.192000      7.389000      6.270000  11.0000  63.5460
     55    1 Cu   29     10.148000      1.478000      6.270000  11.0000  63.5460
     56    1 Cu   29     10.148000      4.433000      6.270000  11.0000  63.5460
     57    1 Cu   29     10.148000      7.389000      6.270000  11.0000  63.5460
     58    1 Cu   29     13.104000      1.478000      6.270000  11.0000  63.5460
     59    1 Cu   29     13.104000      4.433000      6.270000  11.0000  63.5460
     60    1 Cu   29     13.104000      7.389000      6.270000  11.0000  63.5460
     61    2 Cu   29      0.000000      0.000000      8.360000  11.0000  63.5460
     62    2 Cu   29      0.000000      2.955000      8.360000  11.0000  63.5460
     63    2 Cu   29      0.000000      5.911000      8.360000  11.0000  63.5460
     64    2 Cu   29      2.956000      0.000000      8.360000  11.0000  63.5460
     65    2 Cu   29      2.956000      2.955000      8.360000  11.0000  63.5460
     66    2 Cu   29      2.956000      5.911000      8.360000  11.0000  63.5460
     67    2 Cu   29      5.912000      0.000000      8.360000  11.0000  63.5460
     68    2 Cu   29      5.912000      2.955000      8.360000  11.0000  63.5460
     69    2 Cu   29      5.912000      5.911000      8.360000  11.0000  63.5460
     70    2 Cu   29      8.670000      0.000000      8.360000  11.0000  63.5460
     71    2 Cu   29      8.670000      2.955000      8.360000  11.0000  63.5460
     72    2 Cu   29      8.670000      5.911000      8.360000  11.0000  63.5460
     73    2 Cu   29     11.626000      0.000000      8.360000  11.0000  63.5460
     74    2 Cu   29     11.626000      2.955000      8.360000  11.0000  63.5460
     75    2 Cu   29     11.626000      5.911000      8.360000  11.0000  63.5460
     76    3 Cu   29      1.478000      1.478000     10.450000  11.0000  63.5460
     77    3 Cu   29      1.478000      4.433000     10.450000  11.0000  63.5460
     78    3 Cu   29      1.478000      7.389000     10.450000  11.0000  63.5460
     79    3 Cu   29      4.434000      1.478000     10.450000  11.0000  63.5460
     80    3 Cu   29      4.434000      4.433000     10.450000  11.0000  63.5460
     81    3 Cu   29      4.434000      7.389000     10.450000  11.0000  63.5460
     82    3 Cu   29      7.192000      1.478000     10.450000  11.0000  63.5460
     83    3 Cu   29      7.192000      4.433000     10.450000  11.0000  63.5460
     84    3 Cu   29      7.192000      7.389000     10.450000  11.0000  63.5460
     85    3 Cu   29     10.148000      1.478000     10.450000  11.0000  63.5460
     86    3 Cu   29     10.148000      4.433000     10.450000  11.0000  63.5460
     87    3 Cu   29     10.148000      7.389000     10.450000  11.0000  63.5460
     88    3 Cu   29     13.104000      1.478000     10.450000  11.0000  63.5460
     89    3 Cu   29     13.104000      4.433000     10.450000  11.0000  63.5460
     90    3 Cu   29     13.104000      7.389000     10.450000  11.0000  63.5460
     91    2 Cu   29      1.478000      1.478000     25.082000  11.0000  63.5460
     92    2 Cu   29      1.478000      4.433000     25.082000  11.0000  63.5460
     93    2 Cu   29      1.478000      7.389000     25.082000  11.0000  63.5460
     94    2 Cu   29      4.434000      1.478000     25.082000  11.0000  63.5460
     95    2 Cu   29      4.434000      4.433000     25.082000  11.0000  63.5460
     96    2 Cu   29      4.434000      7.389000     25.082000  11.0000  63.5460
     97    2 Cu   29      7.192000      1.478000     25.082000  11.0000  63.5460
     98    2 Cu   29      7.192000      4.433000     25.082000  11.0000  63.5460
     99    2 Cu   29      7.192000      7.389000     25.082000  11.0000  63.5460
    100    2 Cu   29     10.148000      1.478000     25.082000  11.0000  63.5460
    101    2 Cu   29     10.148000      4.433000     25.082000  11.0000  63.5460
    102    2 Cu   29     10.148000      7.389000     25.082000  11.0000  63.5460
    103    2 Cu   29     13.104000      1.478000     25.082000  11.0000  63.5460
    104    2 Cu   29     13.104000      4.433000     25.082000  11.0000  63.5460
    105    2 Cu   29     13.104000      7.389000     25.082000  11.0000  63.5460
    106    1 Cu   29      0.000000      0.000000     27.172000  11.0000  63.5460
    107    1 Cu   29      0.000000      2.955000     27.172000  11.0000  63.5460
    108    1 Cu   29      0.000000      5.911000     27.172000  11.0000  63.5460
    109    1 Cu   29      2.956000      0.000000     27.172000  11.0000  63.5460
    110    1 Cu   29      2.956000      2.955000     27.172000  11.0000  63.5460
    111    1 Cu   29      2.956000      5.911000     27.172000  11.0000  63.5460
    112    1 Cu   29      5.912000      0.000000     27.172000  11.0000  63.5460
    113    1 Cu   29      5.912000      2.955000     27.172000  11.0000  63.5460
    114    1 Cu   29      5.912000      5.911000     27.172000  11.0000  63.5460
    115    1 Cu   29      8.670000      0.000000     27.172000  11.0000  63.5460
    116    1 Cu   29      8.670000      2.955000     27.172000  11.0000  63.5460
    117    1 Cu   29      8.670000      5.911000     27.172000  11.0000  63.5460
    118    1 Cu   29     11.626000      0.000000     27.172000  11.0000  63.5460
    119    1 Cu   29     11.626000      2.955000     27.172000  11.0000  63.5460
    120    1 Cu   29     11.626000      5.911000     27.172000  11.0000  63.5460
    121    1 Cu   29      1.478000      1.478000     29.262000  11.0000  63.5460
    122    1 Cu   29      1.478000      4.433000     29.262000  11.0000  63.5460
    123    1 Cu   29      1.478000      7.389000     29.262000  11.0000  63.5460
    124    1 Cu   29      4.434000      1.478000     29.262000  11.0000  63.5460
    125    1 Cu   29      4.434000      4.433000     29.262000  11.0000  63.5460
    126    1 Cu   29      4.434000      7.389000     29.262000  11.0000  63.5460
    127    1 Cu   29      7.192000      1.478000     29.262000  11.0000  63.5460
    128    1 Cu   29      7.192000      4.433000     29.262000  11.0000  63.5460
    129    1 Cu   29      7.192000      7.389000     29.262000  11.0000  63.5460
    130    1 Cu   29     10.148000      1.478000     29.262000  11.0000  63.5460
    131    1 Cu   29     10.148000      4.433000     29.262000  11.0000  63.5460
    132    1 Cu   29     10.148000      7.389000     29.262000  11.0000  63.5460
    133    1 Cu   29     13.104000      1.478000     29.262000  11.0000  63.5460
    134    1 Cu   29     13.104000      4.433000     29.262000  11.0000  63.5460
    135    1 Cu   29     13.104000      7.389000     29.262000  11.0000  63.5460
    136    1 Cu   29      0.000000      0.000000     31.352000  11.0000  63.5460
    137    1 Cu   29      0.000000      2.955000     31.352000  11.0000  63.5460
    138    1 Cu   29      0.000000      5.911000     31.352000  11.0000  63.5460
    139    1 Cu   29      2.956000      0.000000     31.352000  11.0000  63.5460
    140    1 Cu   29      2.956000      2.955000     31.352000  11.0000  63.5460
    141    1 Cu   29      2.956000      5.911000     31.352000  11.0000  63.5460
    142    1 Cu   29      5.912000      0.000000     31.352000  11.0000  63.5460
    143    1 Cu   29      5.912000      2.955000     31.352000  11.0000  63.5460
    144    1 Cu   29      5.912000      5.911000     31.352000  11.0000  63.5460
    145    1 Cu   29      8.670000      0.000000     31.352000  11.0000  63.5460
    146    1 Cu   29      8.670000      2.955000     31.352000  11.0000  63.5460
    147    1 Cu   29      8.670000      5.911000     31.352000  11.0000  63.5460
    148    1 Cu   29     11.626000      0.000000     31.352000  11.0000  63.5460
    149    1 Cu   29     11.626000      2.955000     31.352000  11.0000  63.5460
    150    1 Cu   29     11.626000      5.911000     31.352000  11.0000  63.5460
    151    1 Cu   29      1.478000      1.478000     33.442000  11.0000  63.5460
    152    1 Cu   29      1.478000      4.433000     33.442000  11.0000  63.5460
    153    1 Cu   29      1.478000      7.389000     33.442000  11.0000  63.5460
    154    1 Cu   29      4.434000      1.478000     33.442000  11.0000  63.5460
    155    1 Cu   29      4.434000      4.433000     33.442000  11.0000  63.5460
    156    1 Cu   29      4.434000      7.389000     33.442000  11.0000  63.5460
    157    1 Cu   29      7.192000      1.478000     33.442000  11.0000  63.5460
    158    1 Cu   29      7.192000      4.433000     33.442000  11.0000  63.5460
    159    1 Cu   29      7.192000      7.389000     33.442000  11.0000  63.5460
    160    1 Cu   29     10.148000      1.478000     33.442000  11.0000  63.5460
    161    1 Cu   29     10.148000      4.433000     33.442000  11.0000  63.5460
    162    1 Cu   29     10.148000      7.389000     33.442000  11.0000  63.5460
    163    1 Cu   29     13.104000      1.478000     33.442000  11.0000  63.5460
    164    1 Cu   29     13.104000      4.433000     33.442000  11.0000  63.5460
    165    1 Cu   29     13.104000      7.389000     33.442000  11.0000  63.5460



 SCF PARAMETERS         Density guess:                                   RESTART
                        --------------------------------------------------------
                        max_scf:                                             500
                        max_scf_history:                                       0
                        max_diis:                                              4
                        --------------------------------------------------------
                        eps_scf:                                        1.00E-06
                        eps_scf_history:                                0.00E+00
                        eps_diis:                                       1.00E-01
                        eps_eigval:                                     1.00E-05
                        --------------------------------------------------------
                        level_shift [a.u.]:                             0.000000
                        added MOs                                       100    0
                        --------------------------------------------------------
                        Mixing method:                            BROYDEN_MIXING
                                                charge density mixing in g-space
                        --------------------------------------------------------
                        Smear method:                                FERMI_DIRAC
                        Electronic temperature [K]:                        300.0
                        Electronic temperature [a.u.]:                  9.50E-04
                        Accuracy threshold:                             1.00E-10
                        --------------------------------------------------------
                        No outer SCF

 PW_GRID| Information for grid number                                          1
 PW_GRID| Grid distributed over                                    64 processors
 PW_GRID| Real space group dimensions                                    64    1
 PW_GRID| the grid is blocked:                                                NO
 PW_GRID| Cutoff [a.u.]                                                    300.0
 PW_GRID| spherical cutoff:                                                   NO
 PW_GRID|   Bounds   1           -108     107                Points:         216
 PW_GRID|   Bounds   2            -66      65                Points:         132
 PW_GRID|   Bounds   3           -262     262                Points:         525
 PW_GRID| Volume element (a.u.^3)  0.2071E-02     Volume (a.u.^3)     30999.9563
 PW_GRID| Grid span                                                    FULLSPACE
 PW_GRID|   Distribution                         Average         Max         Min
 PW_GRID|   G-Vectors                           233887.5      233928      233712
 PW_GRID|   G-Rays                                1082.8        1083        1082
 PW_GRID|   Real Space Points                   233887.5      277200      207900

 PW_GRID| Information for grid number                                          2
 PW_GRID| Number of the reference grid                                         1
 PW_GRID| Grid distributed over                                    64 processors
 PW_GRID| Real space group dimensions                                    64    1
 PW_GRID| the grid is blocked:                                                NO
 PW_GRID| Cutoff [a.u.]                                                    100.0
 PW_GRID| spherical cutoff:                                                   NO
 PW_GRID|   Bounds   1            -63      62                Points:         126
 PW_GRID|   Bounds   2            -37      37                Points:          75
 PW_GRID|   Bounds   3           -154     153                Points:         308
 PW_GRID| Volume element (a.u.^3)  0.1065E-01     Volume (a.u.^3)     30999.9563
 PW_GRID| Grid span                                                    FULLSPACE
 PW_GRID|   Distribution                         Average         Max         Min
 PW_GRID|   G-Vectors                            45478.1       46746       44100
 PW_GRID|   G-Rays                                 360.9         371         350
 PW_GRID|   Real Space Points                    45478.1       46200       23100

 PW_GRID| Information for grid number                                          3
 PW_GRID| Number of the reference grid                                         1
 PW_GRID| Grid distributed over                                    64 processors
 PW_GRID| Real space group dimensions                                    64    1
 PW_GRID| the grid is blocked:                                                NO
 PW_GRID| Cutoff [a.u.]                                                     33.3
 PW_GRID| spherical cutoff:                                                   NO
 PW_GRID|   Bounds   1            -36      35                Points:          72
 PW_GRID|   Bounds   2            -22      21                Points:          44
 PW_GRID|   Bounds   3            -87      87                Points:         175
 PW_GRID| Volume element (a.u.^3)  0.5592E-01     Volume (a.u.^3)     30999.9563
 PW_GRID| Grid span                                                    FULLSPACE
 PW_GRID|   Distribution                         Average         Max         Min
 PW_GRID|   G-Vectors                             8662.5        9504        7992
 PW_GRID|   G-Rays                                 120.3         132         111
 PW_GRID|   Real Space Points                     8662.5       15400        7700

 PW_GRID| Information for grid number                                          4
 PW_GRID| Number of the reference grid                                         1
 PW_GRID| Grid distributed over                                    64 processors
 PW_GRID| Real space group dimensions                                     8    8
 PW_GRID| the grid is blocked:                                                NO
 PW_GRID| Cutoff [a.u.]                                                     11.1
 PW_GRID| spherical cutoff:                                                   NO
 PW_GRID|   Bounds   1            -21      20                Points:          42
 PW_GRID|   Bounds   2            -12      12                Points:          25
 PW_GRID|   Bounds   3            -52      52                Points:         105
 PW_GRID| Volume element (a.u.^3)  0.2812         Volume (a.u.^3)     30999.9563
 PW_GRID| Grid span                                                    FULLSPACE
 PW_GRID|   Distribution                         Average         Max         Min
 PW_GRID|   G-Vectors                             1722.7        2226        1134
 PW_GRID|   G-Rays                                  41.0          53          27
 PW_GRID|   Real Space Points                     1722.7        2520        1575

 POISSON| Solver                                                        PERIODIC
 POISSON| Periodicity                                                        XYZ

 RS_GRID| Information for grid number                                          1
 RS_GRID|   Bounds   1           -108     107                Points:         216
 RS_GRID|   Bounds   2            -66      65                Points:         132
 RS_GRID|   Bounds   3           -262     262                Points:         525
 RS_GRID| Real space distribution over                                  4 groups
 RS_GRID| Real space distribution along direction                              1
 RS_GRID| Border size                                                         32
 RS_GRID| Real space distribution over                                 16 groups
 RS_GRID| Real space distribution along direction                              3
 RS_GRID| Border size                                                         32
 RS_GRID|   Distribution                         Average         Max         Min
 RS_GRID|   Planes                                 118.0         118         118
 RS_GRID|   Distribution                         Average         Max         Min
 RS_GRID|   Planes                                  96.8          97          96

 RS_GRID| Information for grid number                                          2
 RS_GRID|   Bounds   1            -63      62                Points:         126
 RS_GRID|   Bounds   2            -37      37                Points:          75
 RS_GRID|   Bounds   3           -154     153                Points:         308
 RS_GRID| Real space distribution over                                  4 groups
 RS_GRID| Real space distribution along direction                              1
 RS_GRID| Border size                                                         25
 RS_GRID| Real space distribution over                                 16 groups
 RS_GRID| Real space distribution along direction                              3
 RS_GRID| Border size                                                         25
 RS_GRID|   Distribution                         Average         Max         Min
 RS_GRID|   Planes                                  81.5          82          81
 RS_GRID|   Distribution                         Average         Max         Min
 RS_GRID|   Planes                                  69.2          70          69

 RS_GRID| Information for grid number                                          3
 RS_GRID|   Bounds   1            -36      35                Points:          72
 RS_GRID|   Bounds   2            -22      21                Points:          44
 RS_GRID|   Bounds   3            -87      87                Points:         175
 RS_GRID| Real space fully replicated
 RS_GRID| Group size                                                           1

 RS_GRID| Information for grid number                                          4
 RS_GRID|   Bounds   1            -21      20                Points:          42
 RS_GRID|   Bounds   2            -12      12                Points:          25
 RS_GRID|   Bounds   3            -52      52                Points:         105
 RS_GRID| Real space fully replicated
 RS_GRID| Group size                                                           1

 KPOINTS| Number of kpoint groups                                              1
 KPOINTS| Size of each kpoint group                                           64
 KPOINTS| Number of kpoints per group                                          1

 Number of electrons:                                                       1815
 Number of occupied orbitals:                                                908
 Number of molecular orbitals:                                              1008

 Number of orbital functions:                                               1725
 Number of independent orbital functions:                                   1725

 Extrapolation method: initial_guess

 *** WARNING in qs_initial_guess.F:310 :: User requested to restart the   ***
 *** wavefunction from the file named: 2_dft_wfn-RESTART_0.kp. This file  ***
 *** does not exist. Please check the existence of the file or change     ***
 *** properly the value of the keyword WFN_RESTART_FILE_NAME. Calculation ***
 *** continues using ATOMIC GUESS.                                        ***


 Atomic guess: The first density matrix is obtained in terms of atomic orbitals
               and electronic configurations assigned to each atomic kind

 Guess for atomic kind: Cu_bulk

 Electronic structure
    Total number of core electrons                                         18.00
    Total number of valence electrons                                      11.00
    Total number of electrons                                              29.00
    Multiplicity                                                   not specified
    S   [  2.00  2.00  2.00] 1.00
    P   [  6.00  6.00]
    D     10.00


 *******************************************************************************
                  Iteration          Convergence                     Energy [au]
 *******************************************************************************
                          1         0.00000                     -47.683697334677

 Energy components [Hartree]           Total Energy ::          -47.683697334677
                                        Band Energy ::           14.731056708996
                                     Kinetic Energy ::           71.764095175825
                                   Potential Energy ::         -119.447792510502
                                      Virial (-V/T) ::            1.664450617232
                                        Core Energy ::          -89.141216275929
                                          XC Energy ::           -7.614783644628
                                     Coulomb Energy ::           49.072302585881
                       Total Pseudopotential Energy ::         -160.991070026009
                       Local Pseudopotential Energy ::         -111.515494653691
                    Nonlocal Pseudopotential Energy ::          -49.475575372317
                                        Confinement ::            0.857585742544

 Orbital energies  State     L     Occupation   Energy[a.u.]          Energy[eV]

                       1     0          1.000      -0.049826           -1.355827

                       1     2         10.000       1.478088           40.220827


 Total Electron Density at R=0:                                         0.000225

 Guess for atomic kind: Cu

 Electronic structure
    Total number of core electrons                                         18.00
    Total number of valence electrons                                      11.00
    Total number of electrons                                              29.00
    Multiplicity                                                   not specified
    S   [  2.00  2.00  2.00] 1.00
    P   [  6.00  6.00]
    D     10.00


 *******************************************************************************
                  Iteration          Convergence                     Energy [au]
 *******************************************************************************
                          1         0.00000                     -47.683697334677

 Energy components [Hartree]           Total Energy ::          -47.683697334677
                                        Band Energy ::           14.731056708996
                                     Kinetic Energy ::           71.764095175825
                                   Potential Energy ::         -119.447792510502
                                      Virial (-V/T) ::            1.664450617232
                                        Core Energy ::          -89.141216275929
                                          XC Energy ::           -7.614783644628
                                     Coulomb Energy ::           49.072302585881
                       Total Pseudopotential Energy ::         -160.991070026009
                       Local Pseudopotential Energy ::         -111.515494653691
                    Nonlocal Pseudopotential Energy ::          -49.475575372317
                                        Confinement ::            0.857585742544

 Orbital energies  State     L     Occupation   Energy[a.u.]          Energy[eV]

                       1     0          1.000      -0.049826           -1.355827

                       1     2         10.000       1.478088           40.220827


 Total Electron Density at R=0:                                         0.000225

 Guess for atomic kind: Cu_surf

 Electronic structure
    Total number of core electrons                                         18.00
    Total number of valence electrons                                      11.00
    Total number of electrons                                              29.00
    Multiplicity                                                   not specified
    S   [  2.00  2.00  2.00] 1.00
    P   [  6.00  6.00]
    D     10.00


 *******************************************************************************
                  Iteration          Convergence                     Energy [au]
 *******************************************************************************
                          1         8.71505                     -20.168431725172
                          2         1.34863                     -47.029846705101
                          3        0.818172                     -47.613326608586
                          4        0.860535                     -47.607473473694
                          5        0.864171                     -47.606157957192
                          6        0.865777                     -47.605667663595
                          7        0.790042                     -47.626123456192
                          8        0.293056                     -47.683511067524
                          9        0.747961E-01                 -47.690193205003
                         10        0.349749E-01                 -47.690530826048
                         11        0.229606E-01                 -47.690583915231
                         12        0.124650E-01                 -47.690612134272
                         13        0.255913E-03                 -47.690623870666
                         14        0.167134E-03                 -47.690623873493
                         15        0.181177E-04                 -47.690623875571
                         16        0.367695E-05                 -47.690623875595
                         17        0.307454E-06                 -47.690623875596

 Energy components [Hartree]           Total Energy ::          -47.690623875596
                                        Band Energy ::           -1.733904951157
                                     Kinetic Energy ::           70.782182583171
                                   Potential Energy ::         -118.472806458767
                                      Virial (-V/T) ::            1.673765941303
                                        Core Energy ::          -88.493778474700
                                          XC Energy ::           -7.514089188792
                                     Coulomb Energy ::           48.317243787896
                       Total Pseudopotential Energy ::         -159.367716978354
                       Local Pseudopotential Energy ::         -110.592891027464
                    Nonlocal Pseudopotential Energy ::          -48.774825950890
                                        Confinement ::            0.917559204831

 Orbital energies  State     L     Occupation   Energy[a.u.]          Energy[eV]

                       1     0          1.000      -0.138206           -3.760781

                       1     2         10.000      -0.159570           -4.342117


 Total Electron Density at R=0:                                         0.000061
 Re-scaling the density matrix to get the right number of electrons
                  # Electrons              Trace(P)               Scaling factor
[...]
      77     Cu       3         10.881748                              0.118252
      78     Cu       3         10.881639                              0.118361
      79     Cu       3         10.879332                              0.120668
      80     Cu       3         10.879460                              0.120540
      81     Cu       3         10.879353                              0.120647
      82     Cu       3         10.857630                              0.142370
      83     Cu       3         10.857766                              0.142234
      84     Cu       3         10.857648                              0.142352
      85     Cu       3         10.881130                              0.118870
      86     Cu       3         10.881269                              0.118731
      87     Cu       3         10.881160                              0.118840
      88     Cu       3         10.880886                              0.119114
      89     Cu       3         10.881019                              0.118981
      90     Cu       3         10.880911                              0.119089
      91     Cu       2         10.969207                              0.030793
      92     Cu       2         10.969210                              0.030790
      93     Cu       2         10.969211                              0.030789
      94     Cu       2         10.970755                              0.029245
      95     Cu       2         10.970763                              0.029237
      96     Cu       2         10.970762                              0.029238
      97     Cu       2         10.970352                              0.029648
      98     Cu       2         10.970360                              0.029640
      99     Cu       2         10.970360                              0.029640
     100     Cu       2         10.969343                              0.030657
     101     Cu       2         10.969346                              0.030654
     102     Cu       2         10.969346                              0.030654
     103     Cu       2         10.969290                              0.030710
     104     Cu       2         10.969294                              0.030706
     105     Cu       2         10.969295                              0.030705
     106     Cu       1         11.032805                             -0.032805
     107     Cu       1         11.032826                             -0.032826
     108     Cu       1         11.032793                             -0.032793
     109     Cu       1         11.030823                             -0.030823
     110     Cu       1         11.030842                             -0.030842
     111     Cu       1         11.030808                             -0.030808
     112     Cu       1         11.034044                             -0.034044
     113     Cu       1         11.034068                             -0.034068
     114     Cu       1         11.034037                             -0.034037
     115     Cu       1         11.028438                             -0.028438
     116     Cu       1         11.028461                             -0.028461
     117     Cu       1         11.028429                             -0.028429
     118     Cu       1         11.033398                             -0.033398
     119     Cu       1         11.033418                             -0.033418
     120     Cu       1         11.033385                             -0.033385
     121     Cu       1         10.998765                              0.001235
     122     Cu       1         10.998752                              0.001248
     123     Cu       1         10.998788                              0.001212
     124     Cu       1         10.995227                              0.004773
     125     Cu       1         10.995217                              0.004783
     126     Cu       1         10.995252                              0.004748
     127     Cu       1         11.000709                             -0.000709
     128     Cu       1         11.000700                             -0.000700
     129     Cu       1         11.000735                             -0.000735
     130     Cu       1         10.996897                              0.003103
     131     Cu       1         10.996882                              0.003118
     132     Cu       1         10.996920                              0.003080
     133     Cu       1         10.998445                              0.001555
     134     Cu       1         10.998433                              0.001567
     135     Cu       1         10.998468                              0.001532
     136     Cu       1         11.000464                             -0.000464
     137     Cu       1         11.000487                             -0.000487
     138     Cu       1         11.000454                             -0.000454
     139     Cu       1         10.999212                              0.000788
     140     Cu       1         10.999235                              0.000765
     141     Cu       1         10.999199                              0.000801
     142     Cu       1         11.002459                             -0.002459
     143     Cu       1         11.002485                             -0.002485
     144     Cu       1         11.002452                             -0.002452
     145     Cu       1         10.997393                              0.002607
     146     Cu       1         10.997419                              0.002581
     147     Cu       1         10.997386                              0.002614
     148     Cu       1         11.000953                             -0.000953
     149     Cu       1         11.000977                             -0.000977
     150     Cu       1         11.000943                             -0.000943
     151     Cu       1         11.000834                             -0.000834
     152     Cu       1         11.000824                             -0.000824
     153     Cu       1         11.000857                             -0.000857
     154     Cu       1         10.997288                              0.002712
     155     Cu       1         10.997281                              0.002719
     156     Cu       1         10.997314                              0.002686
     157     Cu       1         11.002347                             -0.002347
     158     Cu       1         11.002341                             -0.002341
     159     Cu       1         11.002374                             -0.002374
     160     Cu       1         10.999108                              0.000892
     161     Cu       1         10.999096                              0.000904
     162     Cu       1         10.999131                              0.000869
     163     Cu       1         11.000345                             -0.000345
     164     Cu       1         11.000335                             -0.000335
     165     Cu       1         11.000368                             -0.000368
 # Total charge                           1814.994659                  0.005341

 !-----------------------------------------------------------------------------!

 ENERGY| Total FORCE_EVAL ( QS ) energy [a.u.]:            -7936.712050199354962

 -------------------------------------------------------------------------------
 -                                                                             -
 -                                DBCSR STATISTICS                             -
 -                                                                             -
 -------------------------------------------------------------------------------
 COUNTER                                    TOTAL       BLAS       SMM       ACC
 flops inhomo. stacks                           0       0.0%      0.0%      0.0%
 flops total                         0.000000E+00       0.0%      0.0%      0.0%
 flops max/rank                      0.000000E+00       0.0%      0.0%      0.0%
 matmuls inhomo. stacks                         0       0.0%      0.0%      0.0%
 matmuls total                                  0       0.0%      0.0%      0.0%
 number of processed stacks                     0       0.0%      0.0%      0.0%
 average stack size                                     0.0       0.0       0.0
 marketing flops                     0.000000E+00
 -------------------------------------------------------------------------------
 -                                                                             -
 -                      DBCSR MESSAGE PASSING PERFORMANCE                      -
 -                                                                             -
 -------------------------------------------------------------------------------
 ROUTINE             CALLS      AVE VOLUME [Bytes]
 MP_Bcast                1                     12.
 MP_Allreduce         1826                      8.
 MP_Alltoall           756                 156982.
 -------------------------------------------------------------------------------

 -------------------------------------------------------------------------------
 -                                                                             -
 -                                DBM STATISTICS                               -
 -                                                                             -
 -------------------------------------------------------------------------------
    M  x    N  x    K                                          COUNT     PERCENT
 -------------------------------------------------------------------------------

 -------------------------------------------------------------------------------
 -                                                                             -
 -                                GRID STATISTICS                              -
 -                                                                             -
 -------------------------------------------------------------------------------
 LP    KERNEL             BACKEND                              COUNT     PERCENT
 4     collocate ortho    REF                                8507136      43.39%
 4     integrate ortho    REF                                8313792      42.40%
 5     collocate ortho    REF                                1055340       5.38%
 5     integrate ortho    REF                                1031355       5.26%
 6     collocate ortho    REF                                 263340       1.34%
 6     integrate ortho    REF                                 257355       1.31%
 0     collocate general  REF                                  95040       0.48%
 0     integrate general  REF                                  84480       0.43%
 -------------------------------------------------------------------------------

 MEMORY| Estimated peak process memory [MiB]                                1126

 -------------------------------------------------------------------------------
 ----                             MULTIGRID INFO                            ----
 -------------------------------------------------------------------------------
 count for grid        1:         721007          cutoff [a.u.]          300.00
 count for grid        2:         541552          cutoff [a.u.]          100.00
 count for grid        3:         317716          cutoff [a.u.]           33.33
 count for grid        4:         222083          cutoff [a.u.]           11.11
 total gridlevel count  :        1802358

 -------------------------------------------------------------------------------
 -                                                                             -
 -                         MESSAGE PASSING PERFORMANCE                         -
 -                                                                             -
 -------------------------------------------------------------------------------

 ROUTINE             CALLS      AVE VOLUME [Bytes]
 MP_Group                5
 MP_Bcast             2957                 199975.
 MP_Allreduce         1919                    878.
 MP_Sync                 4
 MP_Alltoall           968                8678253.
 MP_ISendRecv        10962                  71680.
 MP_Wait             15425
 MP_ISend             8463                 179002.
 MP_IRecv             9183                 166545.
 MP_Recv              3339                 441600.
 MP_Write_All            2                  57354.
 -------------------------------------------------------------------------------


 -------------------------------------------------------------------------------
 -                                                                             -
 -                           R E F E R E N C E S                               -
 -                                                                             -
 -------------------------------------------------------------------------------
 
 CP2K version 2022.1 (Development Version), the CP2K developers group (2022).
 CP2K is freely available from https://www.cp2k.org/ .

 Kuehne,Thomas D.; Iannuzzi,Marcella; Del Ben,Mauro;
 Rybkin,Vladimir V.; Seewald,Patrick; Stein,Frederick; Laino,Teodoro;
 Khaliullin,Rustam Z.; Schuett,Ole; Schiffmann,Florian; Golze,Dorothea;
 Wilhelm,Jan; Chulkov,Sergey; Bani-Hashemian,Mohammad Hossein;
 Weber,Valery; Borstnik,Urban; Taillefumier,Mathieu;
 Jakobovits,Alice Shoshana; Lazzaro,Alfio; Pabst,Hans; Mueller,Tiziano;
 Schade,Robert; Guidon,Manuel; Andermatt,Samuel; Holmberg,Nico;
 Schenter,Gregory K.; Hehn,Anna; Bussy,Augustin; Belleflamme,Fabian;
 Tabacchi,Gloria; Gloess,Andreas; Lass,Michael; Bethune,Iain;
 Mundy,Christopher J.; Plessl,Christian; Watkins,Matt;
 VandeVondele,Joost; Krack,Matthias; Hutter,Juerg. 
 The Journal of Chemical Physics, 152 (19), (2020). 
 CP2K: An electronic structure and molecular dynamics software package -
 Quickstep: Efficient and accurate electronic structure calculations.
 https://doi.org/10.1063/5.0007045

 Schuett, Ole; Messmer, Peter; Hutter, Juerg; VandeVondele, Joost. 
 Electronic Structure Calculations on Graphics Processing Units, John
 Wiley & Sons, Ltd, 173-190 (2016). 
 GPU-Accelerated Sparse Matrix-Matrix Multiplication for
 Linear Scaling Density Functional Theory.
 https://doi.org/10.1002/9781118670712.ch8

 Heinecke, A; Henry, G; Hutchinson, M; Pabst, H. 
 Proceedings of Intl. Supercomputing Conference, 981-991 (2016). 
 LIBXSMM: Accelerating Small Matrix Multiplications
 by Runtime Code Generation.
 https://doi.org/10.1109/SC.2016.83

 Borstnik, U; VandeVondele, J; Weber, V; Hutter, J. 
 PARALLEL COMPUTING, 40 (5-6), 47-58 (2014). 
 Sparse matrix multiplication: The distributed block-compressed sparse
 row library.
 https://doi.org/10.1016/j.parco.2014.03.012

 Hutter, J; Iannuzzi, M; Schiffmann, F; VandeVondele, J. 
 WIREs Comput Mol Sci., 4 (1), 15-25 (2014). 
 CP2K: atomistic simulations of condensed matter systems.
 https://doi.org/10.1002/wcms.1159

 VandeVondele, J; Hutter, J. 
 JOURNAL OF CHEMICAL PHYSICS, 127 (11), 114105 (2007). 
 Gaussian basis sets for accurate calculations on molecular systems in
 gas and condensed phases.
 https://doi.org/10.1063/1.2770708

 Krack, M. 
 THEORETICAL CHEMISTRY ACCOUNTS, 114 (1-3), 145-152 (2005). 
 Pseudopotentials for H to Kr optimized for gradient-corrected
 exchange-correlation functionals.
 https://doi.org/10.1007/s00214-005-0655-y

 VandeVondele, J; Krack, M; Mohamed, F; Parrinello, M; Chassaing, T;
 Hutter, J. COMPUTER PHYSICS COMMUNICATIONS, 167 (2), 103-128 (2005). 
 QUICKSTEP: Fast and accurate density functional calculations using a
 mixed Gaussian and plane waves approach.
 https://doi.org/10.1016/j.cpc.2004.12.014

 Frigo, M; Johnson, SG. 
 PROCEEDINGS OF THE IEEE, 93 (2), 216-231 (2005). 
 The design and implementation of FFTW3.
 https://doi.org/10.1109/JPROC.2004.840301

 Hartwigsen, C; Goedecker, S; Hutter, J. 
 PHYSICAL REVIEW B, 58 (7), 3641-3662 (1998). 
 Relativistic separable dual-space Gaussian pseudopotentials from H to Rn.
 https://doi.org/10.1103/PhysRevB.58.3641

 Lippert, G; Hutter, J; Parrinello, M. 
 MOLECULAR PHYSICS, 92 (3), 477-487 (1997). 
 A hybrid Gaussian and plane wave density functional scheme.
 https://doi.org/10.1080/002689797170220

 Perdew, JP; Burke, K; Ernzerhof, M. 
 PHYSICAL REVIEW LETTERS, 77 (18), 3865-3868 (1996). 
 Generalized gradient approximation made simple.
 https://doi.org/10.1103/PhysRevLett.77.3865

 Goedecker, S; Teter, M; Hutter, J. 
 PHYSICAL REVIEW B, 54 (3), 1703-1710 (1996). 
 Separable dual-space Gaussian pseudopotentials.
 https://doi.org/10.1103/PhysRevB.54.1703


 -------------------------------------------------------------------------------
 -                                                                             -
 -                                T I M I N G                                  -
 -                                                                             -
 -------------------------------------------------------------------------------
 SUBROUTINE                       CALLS  ASD         SELF TIME        TOTAL TIME
                                MAXIMUM       AVERAGE  MAXIMUM  AVERAGE  MAXIMUM
 CP2K                                 1  1.0    0.006    0.011  214.889  214.897
 qs_energies                          1  2.0    0.000    0.000  214.746  214.748
 scf_env_do_scf                       1  3.0    0.000    0.000  210.924  210.929
 scf_env_do_scf_inner_loop           43  4.0    0.002    0.014  210.924  210.929
 run_smeagol_emtrans                 44  5.9  178.070  179.099  180.508  180.584
 qs_scf_new_mos_kp                   43  5.0    0.000    0.000  178.408  178.484
 qs_ks_update_qs_env                 43  5.0    0.000    0.000   18.798   18.802
 rebuild_ks_matrix                   43  6.0    0.000    0.000   18.689   18.693
 qs_ks_build_kohn_sham_matrix        43  7.0    0.110    0.219   18.688   18.693
 qs_rho_update_rho_low               44  5.0    0.000    0.000   10.530   10.541
 calculate_rho_elec                  44  6.0    0.051    0.060   10.529   10.541
 pw_transfer                        865  9.9    0.025    0.031   10.014   10.276
 fft_wrap_pw1pw2                    779 11.0    0.005    0.006    9.925   10.186
 fft_wrap_pw1pw2_300                518 12.3    0.601    0.663    9.447    9.701
 qs_vxc_create                       43  8.0    0.000    0.000    9.304    9.307
 xc_vxc_pw_create                    43  9.0    0.095    0.111    9.304    9.306
 fft3d_ps                           779 13.0    4.254    4.742    7.910    8.230
 sum_up_and_integrate                43  8.0    0.018    0.020    8.096    8.099
 integrate_v_rspace                  43  9.0    0.001    0.001    8.078    8.082
 grid_collocate_task_list            44  7.0    7.007    7.239    7.007    7.239
 xc_rho_set_and_dset_create          43 10.0    0.076    0.088    5.342    5.922
 grid_integrate_task_list            43 10.0    5.739    5.890    5.739    5.890
 xc_pw_derive                       258 11.0    0.002    0.002    5.462    5.803
 -------------------------------------------------------------------------------

 The number of warnings for this run is : 2
 
 -------------------------------------------------------------------------------
  **** **** ******  **  PROGRAM ENDED AT                 2024-01-09 19:58:26.972
 ***** ** ***  *** **   PROGRAM RAN ON                               hx1-c08-5-1
 **    ****   ******    PROGRAM RAN BY                                    cahart
 ***** **    ** ** **   PROGRAM PROCESS ID                               3045523
  **** **  *******  **  PROGRAM STOPPED IN /gpfs/home/cahart/transport/melamine/
                                           au_from-h2/capacitor/leads-sz_tip-dzv
                                           p_surf-dzvp_kpoints-1-1-20-cu
