 DBCSR| CPU Multiplication driver                                           XSMM
 DBCSR| Multrec recursion limit                                              512
 DBCSR| Multiplication stack size                                           1000
 DBCSR| Maximum elements for images                                    UNLIMITED
 DBCSR| Multiplicative factor virtual images                                   1
 DBCSR| Use multiplication densification                                       T
 DBCSR| Multiplication size stacks                                             3
 DBCSR| Use memory pool for CPU allocation                                     F
 DBCSR| Number of 3D layers                                               SINGLE
 DBCSR| Use MPI memory allocation                                              F
 DBCSR| Use RMA algorithm                                                      F
 DBCSR| Use Communication thread                                               T
 DBCSR| Communication thread load                                             83
 DBCSR| MPI: My node id                                                        0
 DBCSR| MPI: Number of nodes                                                 256
 DBCSR| OMP: Current number of threads                                         2
 DBCSR| OMP: Max number of threads                                             2
 DBCSR| Split modifier for TAS multiplication algorithm                  1.0E+00


  **** **** ******  **  PROGRAM STARTED AT               2024-01-17 20:37:02.563
 ***** ** ***  *** **   PROGRAM STARTED ON                           hx1-c06-3-1
 **    ****   ******    PROGRAM STARTED BY                                cahart
 ***** **    ** ** **   PROGRAM PROCESS ID                               3122381
  **** **  *******  **  PROGRAM STARTED IN /gpfs/home/cahart/transport/melamine/
                                           au_from-h2/iv-curve/single-point/c1-3
                                           A/iv_curve/V_-0.5

 CP2K| version string:                 CP2K version 2022.1 (Development Version)
 CP2K| source code revision number:                                  git:5518aa6
 CP2K| cp2kflags: omp libint fftw3 libxc parallel mpi3 scalapack xsmm plumed2   
 CP2K| is freely available from                            https://www.cp2k.org/
 CP2K| Program compiled at                          Thu 21 Sep 19:20:17 BST 2023
 CP2K| Program compiled on                                       hx1-c12-login-1
 CP2K| Program compiled for                                                local
 CP2K| Data directory path    /gpfs/easybuild/prod/software/CP2K/2022.1-foss-202
 CP2K| Input file name                                               4_-0.5V.inp

 GLOBAL| Force Environment number                                              1
 GLOBAL| Basis set file name                                        BASIS_MOLOPT
 GLOBAL| Potential file name                                      GTH_POTENTIALS
 GLOBAL| MM Potential file name                                     MM_POTENTIAL
 GLOBAL| Coordinate file name                                             em.xyz
 GLOBAL| Method name                                                        CP2K
 GLOBAL| Project name                                                      -0.5V
 GLOBAL| Run type                                                         ENERGY
 GLOBAL| FFT library                                                       FFTW3
 GLOBAL| Diagonalization library                                       ScaLAPACK
 GLOBAL| Orthonormality check for eigenvectors                          DISABLED
 GLOBAL| Matrix multiplication library                                 ScaLAPACK
 GLOBAL| All-to-all communication in single precision                          F
 GLOBAL| FFTs using library dependent lengths                                  T
 GLOBAL| Grid backend                                                       AUTO
 GLOBAL| Global print level                                               MEDIUM
 GLOBAL| MPI I/O enabled                                                       T
 GLOBAL| Total number of message passing processes                           256
 GLOBAL| Number of threads for this process                                    2
 GLOBAL| This output is from process                                           0
 GLOBAL| Stack size for threads created by OpenMP (OMP_STACKSIZE)        default
 GLOBAL| CPU model name             Intel(R) Xeon(R) Platinum 8358 CPU @ 2.60GHz
 GLOBAL| CPUID                                                              1003

 MEMORY| system memory details [Kb]
 MEMORY|                        rank 0           min           max       average
 MEMORY| MemTotal            527652788     527652768     527652792     527652786
 MEMORY| MemFree             507493716     507493716     509425500     508627072
 MEMORY| Buffers                  5480          5388          5480          5457
 MEMORY| Cached                2231984       1678572       2302484       2115086
 MEMORY| Slab                  1779664       1279040       1779664       1596199
 MEMORY| SReclaimable           842324        402484        842324        675346
 MEMORY| MemLikelyFree       510573504     510573504     511692024     511422962


 *** Fundamental physical constants (SI units) ***

 *** Literature: B. J. Mohr and B. N. Taylor,
 ***             CODATA recommended values of the fundamental physical
 ***             constants: 2006, Web Version 5.1
 ***             http://physics.nist.gov/constants

 Speed of light in vacuum [m/s]                             2.99792458000000E+08
 Magnetic constant or permeability of vacuum [N/A**2]       1.25663706143592E-06
 Electric constant or permittivity of vacuum [F/m]          8.85418781762039E-12
 Planck constant (h) [J*s]                                  6.62606896000000E-34
 Planck constant (h-bar) [J*s]                              1.05457162825177E-34
 Elementary charge [C]                                      1.60217648700000E-19
 Electron mass [kg]                                         9.10938215000000E-31
 Electron g factor [ ]                                     -2.00231930436220E+00
 Proton mass [kg]                                           1.67262163700000E-27
 Fine-structure constant                                    7.29735253760000E-03
 Rydberg constant [1/m]                                     1.09737315685270E+07
 Avogadro constant [1/mol]                                  6.02214179000000E+23
 Boltzmann constant [J/K]                                   1.38065040000000E-23
 Atomic mass unit [kg]                                      1.66053878200000E-27
 Bohr radius [m]                                            5.29177208590000E-11

 *** Conversion factors ***

 [u] -> [a.u.]                                              1.82288848426455E+03
 [Angstrom] -> [Bohr] = [a.u.]                              1.88972613288564E+00
 [a.u.] = [Bohr] -> [Angstrom]                              5.29177208590000E-01
 [a.u.] -> [s]                                              2.41888432650478E-17
 [a.u.] -> [fs]                                             2.41888432650478E-02
 [a.u.] -> [J]                                              4.35974393937059E-18
 [a.u.] -> [N]                                              8.23872205491840E-08
 [a.u.] -> [K]                                              3.15774647902944E+05
 [a.u.] -> [kJ/mol]                                         2.62549961709828E+03
 [a.u.] -> [kcal/mol]                                       6.27509468713739E+02
 [a.u.] -> [Pa]                                             2.94210107994716E+13
 [a.u.] -> [bar]                                            2.94210107994716E+08
 [a.u.] -> [atm]                                            2.90362800883016E+08
 [a.u.] -> [eV]                                             2.72113838565563E+01
 [a.u.] -> [Hz]                                             6.57968392072181E+15
 [a.u.] -> [1/cm] (wave numbers)                            2.19474631370540E+05
 [a.u./Bohr**2] -> [1/cm]                                   5.14048714338585E+03
 

 CELL_TOP| Volume [angstrom^3]:                                      4335.151490
 CELL_TOP| Vector a [angstrom    14.582     0.000     0.000   |a| =    14.582000
 CELL_TOP| Vector b [angstrom     0.000     8.866     0.000   |b| =     8.866000
 CELL_TOP| Vector c [angstrom     0.000     0.000    33.532   |c| =    33.532000
 CELL_TOP| Angle (b,c), alpha [degree]:                                90.000000
 CELL_TOP| Angle (a,c), beta  [degree]:                                90.000000
 CELL_TOP| Angle (a,b), gamma [degree]:                                90.000000
 CELL_TOP| Numerically orthorhombic:                                         YES
 CELL_TOP| Periodicity                                                       XYZ

 GENERATE|  Preliminary Number of Bonds generated:                             0
 GENERATE|  Achieved consistency in connectivity generation.

 CELL| Volume [angstrom^3]:                                          4335.151490
 CELL| Vector a [angstrom]:      14.582     0.000     0.000   |a| =    14.582000
 CELL| Vector b [angstrom]:       0.000     8.866     0.000   |b| =     8.866000
 CELL| Vector c [angstrom]:       0.000     0.000    33.532   |c| =    33.532000
 CELL| Angle (b,c), alpha [degree]:                                    90.000000
 CELL| Angle (a,c), beta  [degree]:                                    90.000000
 CELL| Angle (a,b), gamma [degree]:                                    90.000000
 CELL| Numerically orthorhombic:                                             YES
 CELL| Periodicity                                                           XYZ

 CELL_REF| Volume [angstrom^3]:                                      4335.151490
 CELL_REF| Vector a [angstrom    14.582     0.000     0.000   |a| =    14.582000
 CELL_REF| Vector b [angstrom     0.000     8.866     0.000   |b| =     8.866000
 CELL_REF| Vector c [angstrom     0.000     0.000    33.532   |c| =    33.532000
 CELL_REF| Angle (b,c), alpha [degree]:                                90.000000
 CELL_REF| Angle (a,c), beta  [degree]:                                90.000000
 CELL_REF| Angle (a,b), gamma [degree]:                                90.000000
 CELL_REF| Numerically orthorhombic:                                         YES
 CELL_REF| Periodicity                                                       XYZ

 *** WARNING in cryssym.F:165 :: Symmetry library SPGLIB not available ***


 *******************************************************************************
                                    Kpoints
 *******************************************************************************
 BRILLOUIN| K-point scheme                                        Monkhorst-Pack
 BRILLOUIN| K-Point grid                                             2    4    1
 BRILLOUIN| Accuracy in Symmetry determination                      0.100000E-07
 BRILLOUIN| K-Point point group symmetrization                               OFF
 BRILLOUIN| Wavefunction type                                            COMPLEX
 BRILLOUIN| Use full k-point grid     
 BRILLOUIN| List of Kpoints [2 Pi/Bohr]                                        8
 BRILLOUIN| Number           Weight            X              Y              Z
 BRILLOUIN|     1           0.12500       -0.25000       -0.37500        0.00000
 BRILLOUIN|     2           0.12500       -0.25000       -0.12500        0.00000
 BRILLOUIN|     3           0.12500       -0.25000        0.12500        0.00000
 BRILLOUIN|     4           0.12500       -0.25000        0.37500        0.00000
 BRILLOUIN|     5           0.12500        0.25000       -0.37500        0.00000
 BRILLOUIN|     6           0.12500        0.25000       -0.12500        0.00000
 BRILLOUIN|     7           0.12500        0.25000        0.12500        0.00000
 BRILLOUIN|     8           0.12500        0.25000        0.37500        0.00000
 *******************************************************************************

 *******************************************************************************
 *******************************************************************************
 **                                                                           **
 **     #####                         ##              ##                      **
 **    ##   ##            ##          ##              ##                      **
 **   ##     ##                       ##            ######                    **
 **   ##     ##  ##   ##  ##   #####  ##  ##   ####   ##    #####    #####    **
 **   ##     ##  ##   ##  ##  ##      ## ##   ##      ##   ##   ##  ##   ##   **
 **   ##  ## ##  ##   ##  ##  ##      ####     ###    ##   ######   ######    **
 **    ##  ###   ##   ##  ##  ##      ## ##      ##   ##   ##       ##        **
 **     #######   #####   ##   #####  ##  ##  ####    ##    #####   ##        **
 **           ##                                                    ##        **
 **                                                                           **
 **                                                ... make the atoms dance   **
 **                                                                           **
 **            Copyright (C) by CP2K developers group (2000-2022)             **
 **                      J. Chem. Phys. 152, 194103 (2020)                    **
 **                                                                           **
 *******************************************************************************

 DFT| Spin restricted Kohn-Sham (RKS) calculation                            RKS
 DFT| Multiplicity                                                             1
 DFT| Number of spin states                                                    1
 DFT| Charge                                                                   0
 DFT| Self-interaction correction (SIC)                                       NO
 DFT| Cutoffs: density                                              1.000000E-10
 DFT|          gradient                                             1.000000E-10
 DFT|          tau                                                  1.000000E-10
 DFT|          cutoff_smoothing_range                               0.000000E+00
 DFT| XC density smoothing                                                  NONE
 DFT| XC derivatives                                                          PW

 FUNCTIONAL| PBE:
 FUNCTIONAL| J.P.Perdew, K.Burke, M.Ernzerhof, Phys. Rev. Letter, vol. 77, n 18,
 FUNCTIONAL|  pp. 3865-3868, (1996){spin unpolarized}                           


 QS| Method:                                                                 GPW
 QS| Density plane wave grid type                        NON-SPHERICAL FULLSPACE
 QS| Number of grid levels:                                                    4
 QS| Density cutoff [a.u.]:                                                300.0
 QS| Multi grid cutoff [a.u.]: 1) grid level                               300.0
 QS|                           2) grid level                               100.0
 QS|                           3) grid level                                33.3
 QS|                           4) grid level                                11.1
 QS| Grid level progression factor:                                          3.0
 QS| Relative density cutoff [a.u.]:                                        30.0
 QS| Interaction thresholds: eps_pgf_orb:                                1.0E-05
 QS|                         eps_filter_matrix:                          0.0E+00
 QS|                         eps_core_charge:                            1.0E-12
 QS|                         eps_rho_gspace:                             1.0E-10
 QS|                         eps_rho_rspace:                             1.0E-10
 QS|                         eps_gvg_rspace:                             1.0E-05
 QS|                         eps_ppl:                                    1.0E-02
 QS|                         eps_ppnl:                                   1.0E-07


 ATOMIC KIND INFORMATION

  1. Atomic kind: Au_bulk                               Number of atoms:     120

     Orbital Basis Set                                     SZV-MOLOPT-SR-GTH-q11

       Number of orbital shell sets:                                           1
       Number of orbital shells:                                               3
       Number of primitive Cartesian functions:                                5
       Number of Cartesian basis functions:                                   10
       Number of spherical basis functions:                                    9
       Norm type:                                                              2

       Normalised Cartesian orbitals:

                        Set   Shell   Orbital            Exponent    Coefficient

                          1       1    2s                2.950008       0.074626
                                                         1.563057      -0.007898
                                                         0.666664      -0.297688
                                                         0.251083       0.136809
                                                         0.081714       0.088198

                          1       2    3px               2.950008       0.148824
                                                         1.563057       0.025430
                                                         0.666664      -0.123003
                                                         0.251083       0.033648
                                                         0.081714       0.059008
                          1       2    3py               2.950008       0.148824
                                                         1.563057       0.025430
                                                         0.666664      -0.123003
                                                         0.251083       0.033648
                                                         0.081714       0.059008
                          1       2    3pz               2.950008       0.148824
                                                         1.563057       0.025430
                                                         0.666664      -0.123003
                                                         0.251083       0.033648
                                                         0.081714       0.059008

                          1       3    4dx2              2.950008      -0.139595
                                                         1.563057       1.319655
                                                         0.666664       0.377081
                                                         0.251083       0.046872
                                                         0.081714       0.001393
                          1       3    4dxy              2.950008      -0.241786
                                                         1.563057       2.285709
                                                         0.666664       0.653124
                                                         0.251083       0.081185
                                                         0.081714       0.002412
                          1       3    4dxz              2.950008      -0.241786
                                                         1.563057       2.285709
                                                         0.666664       0.653124
                                                         0.251083       0.081185
                                                         0.081714       0.002412
                          1       3    4dy2              2.950008      -0.139595
                                                         1.563057       1.319655
                                                         0.666664       0.377081
                                                         0.251083       0.046872
                                                         0.081714       0.001393
                          1       3    4dyz              2.950008      -0.241786
                                                         1.563057       2.285709
                                                         0.666664       0.653124
                                                         0.251083       0.081185
                                                         0.081714       0.002412
                          1       3    4dz2              2.950008      -0.139595
                                                         1.563057       1.319655
                                                         0.666664       0.377081
                                                         0.251083       0.046872
                                                         0.081714       0.001393

       Atomic covalent radius [Angstrom]:                                  1.340

       Atomic van der Waals radius [Angstrom]:                             1.660

     GTH Potential information for                                   GTH-PBE-q11

       Description:                       Goedecker-Teter-Hutter pseudopotential
                                           Goedecker et al., PRB 54, 1703 (1996)
                                          Hartwigsen et al., PRB 58, 3641 (1998)
                                                      Krack, TCA 114, 145 (2005)

       Gaussian exponent of the core charge distribution:               1.436369
       Electronic configuration (s p d ...):                           1   0  10

       Parameters of the local part of the GTH pseudopotential:

                          rloc        C1          C2          C3          C4
                        0.590000   10.517179

       Parameters of the non-local part of the GTH pseudopotential:

                   l      r(l)      h(i,j,l)

                   0    0.543847    5.786811   -2.250680
                                   -2.250680    2.905615
                   1    0.609173    4.284049   -4.071285
                                   -4.071285    4.817210
                   2    0.437309   -7.403281    3.010193
                                    3.010193   -3.413238

  2. Atomic kind: Au                                    Number of atoms:      30

     Orbital Basis Set                                     SZV-MOLOPT-SR-GTH-q11

       Number of orbital shell sets:                                           1
       Number of orbital shells:                                               3
       Number of primitive Cartesian functions:                                5
       Number of Cartesian basis functions:                                   10
       Number of spherical basis functions:                                    9
       Norm type:                                                              2

       Normalised Cartesian orbitals:

                        Set   Shell   Orbital            Exponent    Coefficient

                          1       1    2s                2.950008       0.074626
                                                         1.563057      -0.007898
                                                         0.666664      -0.297688
                                                         0.251083       0.136809
                                                         0.081714       0.088198

                          1       2    3px               2.950008       0.148824
                                                         1.563057       0.025430
                                                         0.666664      -0.123003
                                                         0.251083       0.033648
                                                         0.081714       0.059008
                          1       2    3py               2.950008       0.148824
                                                         1.563057       0.025430
                                                         0.666664      -0.123003
                                                         0.251083       0.033648
                                                         0.081714       0.059008
                          1       2    3pz               2.950008       0.148824
                                                         1.563057       0.025430
                                                         0.666664      -0.123003
                                                         0.251083       0.033648
                                                         0.081714       0.059008

                          1       3    4dx2              2.950008      -0.139595
                                                         1.563057       1.319655
                                                         0.666664       0.377081
                                                         0.251083       0.046872
                                                         0.081714       0.001393
                          1       3    4dxy              2.950008      -0.241786
                                                         1.563057       2.285709
                                                         0.666664       0.653124
                                                         0.251083       0.081185
                                                         0.081714       0.002412
                          1       3    4dxz              2.950008      -0.241786
                                                         1.563057       2.285709
                                                         0.666664       0.653124
                                                         0.251083       0.081185
                                                         0.081714       0.002412
                          1       3    4dy2              2.950008      -0.139595
                                                         1.563057       1.319655
                                                         0.666664       0.377081
                                                         0.251083       0.046872
                                                         0.081714       0.001393
                          1       3    4dyz              2.950008      -0.241786
                                                         1.563057       2.285709
                                                         0.666664       0.653124
                                                         0.251083       0.081185
                                                         0.081714       0.002412
                          1       3    4dz2              2.950008      -0.139595
                                                         1.563057       1.319655
                                                         0.666664       0.377081
                                                         0.251083       0.046872
                                                         0.081714       0.001393

       Atomic covalent radius [Angstrom]:                                  1.340

       Atomic van der Waals radius [Angstrom]:                             1.660

     GTH Potential information for                                   GTH-PBE-q11

       Description:                       Goedecker-Teter-Hutter pseudopotential
                                           Goedecker et al., PRB 54, 1703 (1996)
                                          Hartwigsen et al., PRB 58, 3641 (1998)
                                                      Krack, TCA 114, 145 (2005)

       Gaussian exponent of the core charge distribution:               1.436369
       Electronic configuration (s p d ...):                           1   0  10

       Parameters of the local part of the GTH pseudopotential:

                          rloc        C1          C2          C3          C4
                        0.590000   10.517179

       Parameters of the non-local part of the GTH pseudopotential:

                   l      r(l)      h(i,j,l)

                   0    0.543847    5.786811   -2.250680
                                   -2.250680    2.905615
                   1    0.609173    4.284049   -4.071285
                                   -4.071285    4.817210
                   2    0.437309   -7.403281    3.010193
                                    3.010193   -3.413238

  3. Atomic kind: Au_surf                               Number of atoms:      15

     Orbital Basis Set                                    DZVP-MOLOPT-SR-GTH-q11

       Number of orbital shell sets:                                           1
       Number of orbital shells:                                               7
       Number of primitive Cartesian functions:                                5
       Number of Cartesian basis functions:                                   30
       Number of spherical basis functions:                                   25
       Norm type:                                                              2

       Normalised Cartesian orbitals:

                        Set   Shell   Orbital            Exponent    Coefficient

                          1       1    2s                2.950008       0.074626
                                                         1.563057      -0.007898
                                                         0.666664      -0.297688
                                                         0.251083       0.136809
                                                         0.081714       0.088198

                          1       2    3s                2.950008       0.228793
                                                         1.563057      -0.295041
                                                         0.666664       0.955676
                                                         0.251083      -0.809517
                                                         0.081714       0.207484

                          1       3    3px               2.950008       0.148824
                                                         1.563057       0.025430
                                                         0.666664      -0.123003
                                                         0.251083       0.033648
                                                         0.081714       0.059008
                          1       3    3py               2.950008       0.148824
                                                         1.563057       0.025430
                                                         0.666664      -0.123003
                                                         0.251083       0.033648
                                                         0.081714       0.059008
                          1       3    3pz               2.950008       0.148824
                                                         1.563057       0.025430
                                                         0.666664      -0.123003
                                                         0.251083       0.033648
                                                         0.081714       0.059008

                          1       4    4px               2.950008       0.169603
                                                         1.563057      -0.791540
                                                         0.666664       0.759522
                                                         0.251083      -0.513201
                                                         0.081714       0.071875
                          1       4    4py               2.950008       0.169603
                                                         1.563057      -0.791540
                                                         0.666664       0.759522
                                                         0.251083      -0.513201
                                                         0.081714       0.071875
                          1       4    4pz               2.950008       0.169603
                                                         1.563057      -0.791540
                                                         0.666664       0.759522
                                                         0.251083      -0.513201
                                                         0.081714       0.071875

                          1       5    4dx2              2.950008      -0.139595
                                                         1.563057       1.319655
                                                         0.666664       0.377081
                                                         0.251083       0.046872
                                                         0.081714       0.001393
                          1       5    4dxy              2.950008      -0.241786
                                                         1.563057       2.285709
                                                         0.666664       0.653124
                                                         0.251083       0.081185
                                                         0.081714       0.002412
                          1       5    4dxz              2.950008      -0.241786
                                                         1.563057       2.285709
                                                         0.666664       0.653124
                                                         0.251083       0.081185
                                                         0.081714       0.002412
                          1       5    4dy2              2.950008      -0.139595
                                                         1.563057       1.319655
                                                         0.666664       0.377081
                                                         0.251083       0.046872
                                                         0.081714       0.001393
                          1       5    4dyz              2.950008      -0.241786
                                                         1.563057       2.285709
                                                         0.666664       0.653124
                                                         0.251083       0.081185
                                                         0.081714       0.002412
                          1       5    4dz2              2.950008      -0.139595
                                                         1.563057       1.319655
                                                         0.666664       0.377081
                                                         0.251083       0.046872
                                                         0.081714       0.001393

                          1       6    5dx2              2.950008      -0.047309
                                                         1.563057      -0.613535
                                                         0.666664      -0.083031
                                                         0.251083      -0.023136
                                                         0.081714       0.021870
                          1       6    5dxy              2.950008      -0.081942
                                                         1.563057      -1.062673
                                                         0.666664      -0.143813
                                                         0.251083      -0.040072
                                                         0.081714       0.037880
                          1       6    5dxz              2.950008      -0.081942
                                                         1.563057      -1.062673
                                                         0.666664      -0.143813
                                                         0.251083      -0.040072
                                                         0.081714       0.037880
                          1       6    5dy2              2.950008      -0.047309
                                                         1.563057      -0.613535
                                                         0.666664      -0.083031
                                                         0.251083      -0.023136
                                                         0.081714       0.021870
                          1       6    5dyz              2.950008      -0.081942
                                                         1.563057      -1.062673
                                                         0.666664      -0.143813
                                                         0.251083      -0.040072
                                                         0.081714       0.037880
                          1       6    5dz2              2.950008      -0.047309
                                                         1.563057      -0.613535
                                                         0.666664      -0.083031
                                                         0.251083      -0.023136
                                                         0.081714       0.021870

                          1       7    5fx3              2.950008      -0.072925
                                                         1.563057      -0.623736
                                                         0.666664      -0.068759
                                                         0.251083      -0.019565
                                                         0.081714       0.005642
                          1       7    5fx2y             2.950008      -0.163065
                                                         1.563057      -1.394716
                                                         0.666664      -0.153751
                                                         0.251083      -0.043748
                                                         0.081714       0.012617
                          1       7    5fx2z             2.950008      -0.163065
                                                         1.563057      -1.394716
                                                         0.666664      -0.153751
                                                         0.251083      -0.043748
                                                         0.081714       0.012617
                          1       7    5fxy2             2.950008      -0.163065
                                                         1.563057      -1.394716
                                                         0.666664      -0.153751
                                                         0.251083      -0.043748
                                                         0.081714       0.012617
                          1       7    5fxyz             2.950008      -0.282436
                                                         1.563057      -2.415719
                                                         0.666664      -0.266304
                                                         0.251083      -0.075774
                                                         0.081714       0.021853
                          1       7    5fxz2             2.950008      -0.163065
                                                         1.563057      -1.394716
                                                         0.666664      -0.153751
                                                         0.251083      -0.043748
                                                         0.081714       0.012617
                          1       7    5fy3              2.950008      -0.072925
                                                         1.563057      -0.623736
                                                         0.666664      -0.068759
                                                         0.251083      -0.019565
                                                         0.081714       0.005642
                          1       7    5fy2z             2.950008      -0.163065
                                                         1.563057      -1.394716
                                                         0.666664      -0.153751
                                                         0.251083      -0.043748
                                                         0.081714       0.012617
                          1       7    5fyz2             2.950008      -0.163065
                                                         1.563057      -1.394716
                                                         0.666664      -0.153751
                                                         0.251083      -0.043748
                                                         0.081714       0.012617
                          1       7    5fz3              2.950008      -0.072925
                                                         1.563057      -0.623736
                                                         0.666664      -0.068759
                                                         0.251083      -0.019565
                                                         0.081714       0.005642

       Atomic covalent radius [Angstrom]:                                  1.340

       Atomic van der Waals radius [Angstrom]:                             1.660

     GTH Potential information for                                   GTH-PBE-q11

       Description:                       Goedecker-Teter-Hutter pseudopotential
                                           Goedecker et al., PRB 54, 1703 (1996)
                                          Hartwigsen et al., PRB 58, 3641 (1998)
                                                      Krack, TCA 114, 145 (2005)

       Gaussian exponent of the core charge distribution:               1.436369
       Electronic configuration (s p d ...):                           1   0  10

       Parameters of the local part of the GTH pseudopotential:

                          rloc        C1          C2          C3          C4
                        0.590000   10.517179

       Parameters of the non-local part of the GTH pseudopotential:

                   l      r(l)      h(i,j,l)

                   0    0.543847    5.786811   -2.250680
                                   -2.250680    2.905615
                   1    0.609173    4.284049   -4.071285
                                   -4.071285    4.817210
                   2    0.437309   -7.403281    3.010193
                                    3.010193   -3.413238

  4. Atomic kind: N                                     Number of atoms:       6

     Orbital Basis Set                                        DZVP-MOLOPT-GTH-q5

       Number of orbital shell sets:                                           1
       Number of orbital shells:                                               5
       Number of primitive Cartesian functions:                                7
       Number of Cartesian basis functions:                                   14
       Number of spherical basis functions:                                   13
       Norm type:                                                              2

       Normalised Cartesian orbitals:

                        Set   Shell   Orbital            Exponent    Coefficient

                          1       1    2s                9.042730      -0.237404
                                                         3.882225      -0.265910
                                                         1.512880       0.102064
                                                         0.586631       0.295369
                                                         0.222851       0.088647
                                                         0.084583       0.003860
                                                         0.039194       0.000722

                          1       2    3s                9.042730       0.259152
                                                         3.882225       0.251432
                                                         1.512880      -0.043896
                                                         0.586631      -0.328079
                                                         0.222851       0.175857
                                                         0.084583       0.069169
                                                         0.039194       0.004207

                          1       3    3px               9.042730       0.822162
                                                         3.882225       0.990771
                                                         1.512880       0.665657
                                                         0.586631       0.321705
                                                         0.222851       0.063706
                                                         0.084583       0.004155
                                                         0.039194      -0.000005
                          1       3    3py               9.042730       0.822162
                                                         3.882225       0.990771
                                                         1.512880       0.665657
                                                         0.586631       0.321705
                                                         0.222851       0.063706
                                                         0.084583       0.004155
                                                         0.039194      -0.000005
                          1       3    3pz               9.042730       0.822162
                                                         3.882225       0.990771
                                                         1.512880       0.665657
                                                         0.586631       0.321705
                                                         0.222851       0.063706
                                                         0.084583       0.004155
                                                         0.039194      -0.000005

                          1       4    4px               9.042730      -0.251449
                                                         3.882225      -0.215479
                                                         1.512880      -0.200519
                                                         0.586631      -0.125283
                                                         0.222851       0.136219
                                                         0.084583       0.034362
                                                         0.039194       0.000879
                          1       4    4py               9.042730      -0.251449
                                                         3.882225      -0.215479
                                                         1.512880      -0.200519
                                                         0.586631      -0.125283
                                                         0.222851       0.136219
                                                         0.084583       0.034362
                                                         0.039194       0.000879
                          1       4    4pz               9.042730      -0.251449
                                                         3.882225      -0.215479
                                                         1.512880      -0.200519
                                                         0.586631      -0.125283
                                                         0.222851       0.136219
                                                         0.084583       0.034362
                                                         0.039194       0.000879

                          1       5    4dx2              9.042730       1.099742
                                                         3.882225       0.532064
                                                         1.512880       0.873643
                                                         0.586631       0.456348
                                                         0.222851       0.017840
                                                         0.084583      -0.000857
                                                         0.039194      -0.000086
                          1       5    4dxy              9.042730       1.904809
                                                         3.882225       0.921562
                                                         1.512880       1.513195
                                                         0.586631       0.790419
                                                         0.222851       0.030900
                                                         0.084583      -0.001484
                                                         0.039194      -0.000150
                          1       5    4dxz              9.042730       1.904809
                                                         3.882225       0.921562
                                                         1.512880       1.513195
                                                         0.586631       0.790419
                                                         0.222851       0.030900
                                                         0.084583      -0.001484
                                                         0.039194      -0.000150
                          1       5    4dy2              9.042730       1.099742
                                                         3.882225       0.532064
                                                         1.512880       0.873643
                                                         0.586631       0.456348
                                                         0.222851       0.017840
                                                         0.084583      -0.000857
                                                         0.039194      -0.000086
                          1       5    4dyz              9.042730       1.904809
                                                         3.882225       0.921562
                                                         1.512880       1.513195
                                                         0.586631       0.790419
                                                         0.222851       0.030900
                                                         0.084583      -0.001484
                                                         0.039194      -0.000150
                          1       5    4dz2              9.042730       1.099742
                                                         3.882225       0.532064
                                                         1.512880       0.873643
                                                         0.586631       0.456348
                                                         0.222851       0.017840
                                                         0.084583      -0.000857
                                                         0.039194      -0.000086

       Atomic covalent radius [Angstrom]:                                  0.750

       Atomic van der Waals radius [Angstrom]:                             1.550

     GTH Potential information for                                    GTH-PBE-q5

       Description:                       Goedecker-Teter-Hutter pseudopotential
                                           Goedecker et al., PRB 54, 1703 (1996)
                                          Hartwigsen et al., PRB 58, 3641 (1998)
                                                      Krack, TCA 114, 145 (2005)

       Gaussian exponent of the core charge distribution:               6.208322
       Electronic configuration (s p d ...):                               2   3

       Parameters of the local part of the GTH pseudopotential:

                          rloc        C1          C2          C3          C4
                        0.283791  -12.415226    1.868096

       Parameters of the non-local part of the GTH pseudopotential:

                   l      r(l)      h(i,j,l)

                   0    0.255405   13.630263
                   1    0.245495

  5. Atomic kind: H                                     Number of atoms:       4

     Orbital Basis Set                                        DZVP-MOLOPT-SR-GTH

       Number of orbital shell sets:                                           1
       Number of orbital shells:                                               3
       Number of primitive Cartesian functions:                                5
       Number of Cartesian basis functions:                                    5
       Number of spherical basis functions:                                    5
       Norm type:                                                              2

       Normalised Cartesian orbitals:

                        Set   Shell   Orbital            Exponent    Coefficient

                          1       1    2s               10.068468      -0.133023
                                                         2.680223      -0.177618
                                                         0.791502      -0.258419
                                                         0.239116      -0.107525
                                                         0.082193      -0.014019

                          1       2    3s               10.068468       0.344673
                                                         2.680223       1.819821
                                                         0.791502      -0.999069
                                                         0.239116       0.017430
                                                         0.082193       0.082660

                          1       3    3px              10.068468       0.155326
                                                         2.680223       0.367157
                                                         0.791502       0.311480
                                                         0.239116       0.080105
                                                         0.082193       0.033440
                          1       3    3py              10.068468       0.155326
                                                         2.680223       0.367157
                                                         0.791502       0.311480
                                                         0.239116       0.080105
                                                         0.082193       0.033440
                          1       3    3pz              10.068468       0.155326
                                                         2.680223       0.367157
                                                         0.791502       0.311480
                                                         0.239116       0.080105
                                                         0.082193       0.033440

       Atomic covalent radius [Angstrom]:                                  0.320

       Atomic van der Waals radius [Angstrom]:                             1.090

     GTH Potential information for                                    GTH-PBE-q1

       Description:                       Goedecker-Teter-Hutter pseudopotential
                                           Goedecker et al., PRB 54, 1703 (1996)
                                          Hartwigsen et al., PRB 58, 3641 (1998)
                                                      Krack, TCA 114, 145 (2005)

       Gaussian exponent of the core charge distribution:              12.500000
       Electronic configuration (s p d ...):                                   1

       Parameters of the local part of the GTH pseudopotential:

                          rloc        C1          C2          C3          C4
                        0.200000   -4.178900    0.724463

  6. Atomic kind: C                                     Number of atoms:       3

     Orbital Basis Set                                        DZVP-MOLOPT-GTH-q4

       Number of orbital shell sets:                                           1
       Number of orbital shells:                                               5
       Number of primitive Cartesian functions:                                7
       Number of Cartesian basis functions:                                   14
       Number of spherical basis functions:                                   13
       Norm type:                                                              2

       Normalised Cartesian orbitals:

                        Set   Shell   Orbital            Exponent    Coefficient

                          1       1    2s                6.132625      -0.263661
                                                         2.625196      -0.231112
                                                         1.045457       0.042712
                                                         0.478316       0.306085
                                                         0.178617       0.065483
                                                         0.075145       0.000568
                                                         0.030287       0.000417

                          1       2    3s                6.132625       0.131937
                                                         2.625196       0.414269
                                                         1.045457      -0.593590
                                                         0.478316       0.644922
                                                         0.178617       0.069203
                                                         0.075145      -0.145101
                                                         0.030287       0.008247

                          1       3    3px               6.132625       0.562677
                                                         2.625196       0.633910
                                                         1.045457       0.379157
                                                         0.478316       0.235193
                                                         0.178617       0.052379
                                                         0.075145       0.003677
                                                         0.030287       0.000105
                          1       3    3py               6.132625       0.562677
                                                         2.625196       0.633910
                                                         1.045457       0.379157
                                                         0.478316       0.235193
                                                         0.178617       0.052379
                                                         0.075145       0.003677
                                                         0.030287       0.000105
                          1       3    3pz               6.132625       0.562677
                                                         2.625196       0.633910
                                                         1.045457       0.379157
                                                         0.478316       0.235193
                                                         0.178617       0.052379
                                                         0.075145       0.003677
                                                         0.030287       0.000105

                          1       4    4px               6.132625      -0.472364
                                                         2.625196      -0.221326
                                                         1.045457      -0.481781
                                                         0.478316       0.135466
                                                         0.178617       0.072281
                                                         0.075145       0.024920
                                                         0.030287       0.002706
                          1       4    4py               6.132625      -0.472364
                                                         2.625196      -0.221326
                                                         1.045457      -0.481781
                                                         0.478316       0.135466
                                                         0.178617       0.072281
                                                         0.075145       0.024920
                                                         0.030287       0.002706
                          1       4    4pz               6.132625      -0.472364
                                                         2.625196      -0.221326
                                                         1.045457      -0.481781
                                                         0.478316       0.135466
                                                         0.178617       0.072281
                                                         0.075145       0.024920
                                                         0.030287       0.002706

                          1       5    4dx2              6.132625       0.874783
                                                         2.625196       0.375772
                                                         1.045457       0.653959
                                                         0.478316       0.191007
                                                         0.178617       0.018656
                                                         0.075145       0.003649
                                                         0.030287      -0.000011
                          1       5    4dxy              6.132625       1.515169
                                                         2.625196       0.650856
                                                         1.045457       1.132690
                                                         0.478316       0.330834
                                                         0.178617       0.032314
                                                         0.075145       0.006321
                                                         0.030287      -0.000019
                          1       5    4dxz              6.132625       1.515169
                                                         2.625196       0.650856
                                                         1.045457       1.132690
                                                         0.478316       0.330834
                                                         0.178617       0.032314
                                                         0.075145       0.006321
                                                         0.030287      -0.000019
                          1       5    4dy2              6.132625       0.874783
                                                         2.625196       0.375772
                                                         1.045457       0.653959
                                                         0.478316       0.191007
                                                         0.178617       0.018656
                                                         0.075145       0.003649
                                                         0.030287      -0.000011
                          1       5    4dyz              6.132625       1.515169
                                                         2.625196       0.650856
                                                         1.045457       1.132690
                                                         0.478316       0.330834
                                                         0.178617       0.032314
                                                         0.075145       0.006321
                                                         0.030287      -0.000019
                          1       5    4dz2              6.132625       0.874783
                                                         2.625196       0.375772
                                                         1.045457       0.653959
                                                         0.478316       0.191007
                                                         0.178617       0.018656
                                                         0.075145       0.003649
                                                         0.030287      -0.000011

       Atomic covalent radius [Angstrom]:                                  0.770

       Atomic van der Waals radius [Angstrom]:                             1.700

     GTH Potential information for                                    GTH-PBE-q4

       Description:                       Goedecker-Teter-Hutter pseudopotential
                                           Goedecker et al., PRB 54, 1703 (1996)
                                          Hartwigsen et al., PRB 58, 3641 (1998)
                                                      Krack, TCA 114, 145 (2005)

       Gaussian exponent of the core charge distribution:               4.364419
       Electronic configuration (s p d ...):                               2   2

       Parameters of the local part of the GTH pseudopotential:

                          rloc        C1          C2          C3          C4
                        0.338471   -8.803674    1.339211

       Parameters of the non-local part of the GTH pseudopotential:

                   l      r(l)      h(i,j,l)

                   0    0.302576    9.622487
                   1    0.291507

  7. Atomic kind: Au_tip                                Number of atoms:       5

     Orbital Basis Set                                    DZVP-MOLOPT-SR-GTH-q11

       Number of orbital shell sets:                                           1
       Number of orbital shells:                                               7
       Number of primitive Cartesian functions:                                5
       Number of Cartesian basis functions:                                   30
       Number of spherical basis functions:                                   25
       Norm type:                                                              2

       Normalised Cartesian orbitals:

                        Set   Shell   Orbital            Exponent    Coefficient

                          1       1    2s                2.950008       0.074626
                                                         1.563057      -0.007898
                                                         0.666664      -0.297688
                                                         0.251083       0.136809
                                                         0.081714       0.088198

                          1       2    3s                2.950008       0.228793
                                                         1.563057      -0.295041
                                                         0.666664       0.955676
                                                         0.251083      -0.809517
                                                         0.081714       0.207484

                          1       3    3px               2.950008       0.148824
                                                         1.563057       0.025430
                                                         0.666664      -0.123003
                                                         0.251083       0.033648
                                                         0.081714       0.059008
                          1       3    3py               2.950008       0.148824
                                                         1.563057       0.025430
                                                         0.666664      -0.123003
                                                         0.251083       0.033648
                                                         0.081714       0.059008
                          1       3    3pz               2.950008       0.148824
                                                         1.563057       0.025430
                                                         0.666664      -0.123003
                                                         0.251083       0.033648
                                                         0.081714       0.059008

                          1       4    4px               2.950008       0.169603
                                                         1.563057      -0.791540
                                                         0.666664       0.759522
                                                         0.251083      -0.513201
                                                         0.081714       0.071875
                          1       4    4py               2.950008       0.169603
                                                         1.563057      -0.791540
                                                         0.666664       0.759522
                                                         0.251083      -0.513201
                                                         0.081714       0.071875
                          1       4    4pz               2.950008       0.169603
                                                         1.563057      -0.791540
                                                         0.666664       0.759522
                                                         0.251083      -0.513201
                                                         0.081714       0.071875

                          1       5    4dx2              2.950008      -0.139595
                                                         1.563057       1.319655
                                                         0.666664       0.377081
                                                         0.251083       0.046872
                                                         0.081714       0.001393
                          1       5    4dxy              2.950008      -0.241786
                                                         1.563057       2.285709
                                                         0.666664       0.653124
                                                         0.251083       0.081185
                                                         0.081714       0.002412
                          1       5    4dxz              2.950008      -0.241786
                                                         1.563057       2.285709
                                                         0.666664       0.653124
                                                         0.251083       0.081185
                                                         0.081714       0.002412
                          1       5    4dy2              2.950008      -0.139595
                                                         1.563057       1.319655
                                                         0.666664       0.377081
                                                         0.251083       0.046872
                                                         0.081714       0.001393
                          1       5    4dyz              2.950008      -0.241786
                                                         1.563057       2.285709
                                                         0.666664       0.653124
                                                         0.251083       0.081185
                                                         0.081714       0.002412
                          1       5    4dz2              2.950008      -0.139595
                                                         1.563057       1.319655
                                                         0.666664       0.377081
                                                         0.251083       0.046872
                                                         0.081714       0.001393

                          1       6    5dx2              2.950008      -0.047309
                                                         1.563057      -0.613535
                                                         0.666664      -0.083031
                                                         0.251083      -0.023136
                                                         0.081714       0.021870
                          1       6    5dxy              2.950008      -0.081942
                                                         1.563057      -1.062673
                                                         0.666664      -0.143813
                                                         0.251083      -0.040072
                                                         0.081714       0.037880
                          1       6    5dxz              2.950008      -0.081942
                                                         1.563057      -1.062673
                                                         0.666664      -0.143813
                                                         0.251083      -0.040072
                                                         0.081714       0.037880
                          1       6    5dy2              2.950008      -0.047309
                                                         1.563057      -0.613535
                                                         0.666664      -0.083031
                                                         0.251083      -0.023136
                                                         0.081714       0.021870
                          1       6    5dyz              2.950008      -0.081942
                                                         1.563057      -1.062673
                                                         0.666664      -0.143813
                                                         0.251083      -0.040072
                                                         0.081714       0.037880
                          1       6    5dz2              2.950008      -0.047309
                                                         1.563057      -0.613535
                                                         0.666664      -0.083031
                                                         0.251083      -0.023136
                                                         0.081714       0.021870

                          1       7    5fx3              2.950008      -0.072925
                                                         1.563057      -0.623736
                                                         0.666664      -0.068759
                                                         0.251083      -0.019565
                                                         0.081714       0.005642
                          1       7    5fx2y             2.950008      -0.163065
                                                         1.563057      -1.394716
                                                         0.666664      -0.153751
                                                         0.251083      -0.043748
                                                         0.081714       0.012617
                          1       7    5fx2z             2.950008      -0.163065
                                                         1.563057      -1.394716
                                                         0.666664      -0.153751
                                                         0.251083      -0.043748
                                                         0.081714       0.012617
                          1       7    5fxy2             2.950008      -0.163065
                                                         1.563057      -1.394716
                                                         0.666664      -0.153751
                                                         0.251083      -0.043748
                                                         0.081714       0.012617
                          1       7    5fxyz             2.950008      -0.282436
                                                         1.563057      -2.415719
                                                         0.666664      -0.266304
                                                         0.251083      -0.075774
                                                         0.081714       0.021853
                          1       7    5fxz2             2.950008      -0.163065
                                                         1.563057      -1.394716
                                                         0.666664      -0.153751
                                                         0.251083      -0.043748
                                                         0.081714       0.012617
                          1       7    5fy3              2.950008      -0.072925
                                                         1.563057      -0.623736
                                                         0.666664      -0.068759
                                                         0.251083      -0.019565
                                                         0.081714       0.005642
                          1       7    5fy2z             2.950008      -0.163065
                                                         1.563057      -1.394716
                                                         0.666664      -0.153751
                                                         0.251083      -0.043748
                                                         0.081714       0.012617
                          1       7    5fyz2             2.950008      -0.163065
                                                         1.563057      -1.394716
                                                         0.666664      -0.153751
                                                         0.251083      -0.043748
                                                         0.081714       0.012617
                          1       7    5fz3              2.950008      -0.072925
                                                         1.563057      -0.623736
                                                         0.666664      -0.068759
                                                         0.251083      -0.019565
                                                         0.081714       0.005642

       Atomic covalent radius [Angstrom]:                                  1.340

       Atomic van der Waals radius [Angstrom]:                             1.660

     GTH Potential information for                                   GTH-PBE-q11

       Description:                       Goedecker-Teter-Hutter pseudopotential
                                           Goedecker et al., PRB 54, 1703 (1996)
                                          Hartwigsen et al., PRB 58, 3641 (1998)
                                                      Krack, TCA 114, 145 (2005)

       Gaussian exponent of the core charge distribution:               1.436369
[...]
      82     Au       3         10.691454                              0.308546
      83     Au       3         10.591932                              0.408068
      84     Au       3         10.591749                              0.408251
      85     Au       3         10.719594                              0.280406
      86     Au       3         10.644842                              0.355158
      87     Au       3         10.643289                              0.356711
      88     Au       3         10.727728                              0.272272
      89     Au       3         10.732877                              0.267123
      90     Au       3         10.732168                              0.267832
      91     N        4          5.307234                             -0.307234
      92     N        4          5.311717                             -0.311717
      93     N        4          5.275691                             -0.275691
      94     H        5          0.868204                              0.131796
      95     H        5          0.845572                              0.154428
      96     C        6          3.826646                              0.173354
      97     C        6          3.831744                              0.168256
      98     N        4          4.962712                              0.037288
      99     N        4          5.172639                             -0.172639
     100     H        5          0.847573                              0.152427
     101     C        6          3.916066                              0.083934
     102     N        4          5.273910                             -0.273910
     103     H        5          0.886598                              0.113402
     104     Au       7         10.974266                              0.025734
     105     Au       7         10.661358                              0.338642
     106     Au       7         10.660462                              0.339538
     107     Au       7         10.683311                              0.316689
     108     Au       7         10.683284                              0.316716
     109     Au       2         11.009656                             -0.009656
     110     Au       2         11.017693                             -0.017693
     111     Au       2         11.017684                             -0.017684
     112     Au       2         11.027238                             -0.027238
     113     Au       2         11.192602                             -0.192602
     114     Au       2         11.192666                             -0.192666
     115     Au       2         10.977813                              0.022187
     116     Au       2         11.153937                             -0.153937
     117     Au       2         11.152430                             -0.152430
     118     Au       2         11.037598                             -0.037598
     119     Au       2         11.183642                             -0.183642
     120     Au       2         11.183609                             -0.183609
     121     Au       2         11.001670                             -0.001670
     122     Au       2         11.015435                             -0.015435
     123     Au       2         11.015387                             -0.015387
     124     Au       1         11.010180                             -0.010180
     125     Au       1         11.010267                             -0.010267
     126     Au       1         11.011491                             -0.011491
     127     Au       1         11.033988                             -0.033988
     128     Au       1         11.034626                             -0.034626
     129     Au       1         11.044571                             -0.044571
     130     Au       1         10.973696                              0.026304
     131     Au       1         10.974709                              0.025291
     132     Au       1         10.994868                              0.005132
     133     Au       1         11.006974                             -0.006974
     134     Au       1         11.008065                             -0.008065
     135     Au       1         11.021778                             -0.021778
     136     Au       1         11.028971                             -0.028971
     137     Au       1         11.029607                             -0.029607
     138     Au       1         11.037368                             -0.037368
     139     Au       1         11.004996                             -0.004996
     140     Au       1         11.005183                             -0.005183
     141     Au       1         11.004952                             -0.004952
     142     Au       1         11.004400                             -0.004400
     143     Au       1         11.005276                             -0.005276
     144     Au       1         11.005028                             -0.005028
     145     Au       1         10.967784                              0.032216
     146     Au       1         10.967409                              0.032591
     147     Au       1         10.967032                              0.032968
     148     Au       1         11.012065                             -0.012065
     149     Au       1         11.013001                             -0.013001
     150     Au       1         11.012757                             -0.012757
     151     Au       1         10.998584                              0.001416
     152     Au       1         10.998605                              0.001395
     153     Au       1         10.998375                              0.001625
     154     Au       1         11.000827                             -0.000827
     155     Au       1         11.000896                             -0.000896
     156     Au       1         11.001100                             -0.001100
     157     Au       1         11.014202                             -0.014202
     158     Au       1         11.014274                             -0.014274
     159     Au       1         11.014413                             -0.014413
     160     Au       1         10.970034                              0.029966
     161     Au       1         10.970069                              0.029931
     162     Au       1         10.970315                              0.029685
     163     Au       1         11.006489                             -0.006489
     164     Au       1         11.006533                             -0.006533
     165     Au       1         11.006691                             -0.006691
     166     Au       1         11.007019                             -0.007019
     167     Au       1         11.007090                             -0.007090
     168     Au       1         11.007226                             -0.007226
     169     Au       1         11.007226                             -0.007226
     170     Au       1         11.007506                             -0.007506
     171     Au       1         11.007298                             -0.007298
     172     Au       1         11.006631                             -0.006631
     173     Au       1         11.006872                             -0.006872
     174     Au       1         11.006683                             -0.006683
     175     Au       1         10.970201                              0.029799
     176     Au       1         10.970536                              0.029464
     177     Au       1         10.970244                              0.029756
     178     Au       1         11.014402                             -0.014402
     179     Au       1         11.014670                             -0.014670
     180     Au       1         11.014474                             -0.014474
     181     Au       1         11.000968                             -0.000968
     182     Au       1         11.001247                             -0.001247
     183     Au       1         11.001037                             -0.001037
 # Total charge                           1915.955392                  0.044608

 !-----------------------------------------------------------------------------!

 ENERGY| Total FORCE_EVAL ( QS ) energy [a.u.]:            -5729.596931271972608

 -------------------------------------------------------------------------------
 -                                                                             -
 -                                DBCSR STATISTICS                             -
 -                                                                             -
 -------------------------------------------------------------------------------
 COUNTER                                    TOTAL       BLAS       SMM       ACC
 flops inhomo. stacks                           0       0.0%      0.0%      0.0%
 flops total                         0.000000E+00       0.0%      0.0%      0.0%
 flops max/rank                      0.000000E+00       0.0%      0.0%      0.0%
 matmuls inhomo. stacks                         0       0.0%      0.0%      0.0%
 matmuls total                                  0       0.0%      0.0%      0.0%
 number of processed stacks                     0       0.0%      0.0%      0.0%
 average stack size                                     0.0       0.0       0.0
 marketing flops                     0.000000E+00
 -------------------------------------------------------------------------------
 -                                                                             -
 -                      DBCSR MESSAGE PASSING PERFORMANCE                      -
 -                                                                             -
 -------------------------------------------------------------------------------
 ROUTINE             CALLS      AVE VOLUME [Bytes]
 MP_Bcast                1                     12.
 MP_Allreduce         3128                      8.
 MP_Alltoall          1332                 218414.
 -------------------------------------------------------------------------------

 -------------------------------------------------------------------------------
 -                                                                             -
 -                                DBM STATISTICS                               -
 -                                                                             -
 -------------------------------------------------------------------------------
    M  x    N  x    K                                          COUNT     PERCENT
 -------------------------------------------------------------------------------

 -------------------------------------------------------------------------------
 -                                                                             -
 -                                GRID STATISTICS                              -
 -                                                                             -
 -------------------------------------------------------------------------------
 LP    KERNEL             BACKEND                              COUNT     PERCENT
 4     collocate ortho    REF                                5983622      38.31%
 4     integrate ortho    REF                                5844468      37.42%
 5     collocate ortho    REF                                1176695       7.53%
 5     integrate ortho    REF                                1149330       7.36%
 0     collocate general  REF                                 421632       2.70%
 0     integrate general  REF                                 374784       2.40%
 6     collocate ortho    REF                                 206443       1.32%
 6     integrate ortho    REF                                 201642       1.29%
 3     collocate ortho    REF                                 122120       0.78%
 3     integrate ortho    REF                                 119280       0.76%
 2     collocate ortho    REF                                  10320       0.07%
 2     integrate ortho    REF                                  10080       0.06%
 -------------------------------------------------------------------------------

 MEMORY| Estimated peak process memory [MiB]                                 976

 -------------------------------------------------------------------------------
 ----                             MULTIGRID INFO                            ----
 -------------------------------------------------------------------------------
 count for grid        1:       10558124          cutoff [a.u.]          300.00
 count for grid        2:       13384752          cutoff [a.u.]          100.00
 count for grid        3:        6486060          cutoff [a.u.]           33.33
 count for grid        4:        4981312          cutoff [a.u.]           11.11
 total gridlevel count  :       35410248

 -------------------------------------------------------------------------------
 -                                                                             -
 -                         MESSAGE PASSING PERFORMANCE                         -
 -                                                                             -
 -------------------------------------------------------------------------------

 ROUTINE             CALLS      AVE VOLUME [Bytes]
 MP_Group                5
 MP_Bcast            11316                 137959.
 MP_Allreduce         2559                   1200.
 MP_Sync               514
 MP_Alltoall          1369              610569247.
 MP_ISendRecv        43350                  12204.
 MP_Wait             52292
 MP_ISend            18629                  56833.
 MP_IRecv            19093                  55591.
 MP_Recv              6882                 508672.
 MP_Write_All            2                  13064.
 -------------------------------------------------------------------------------


 -------------------------------------------------------------------------------
 -                                                                             -
 -                           R E F E R E N C E S                               -
 -                                                                             -
 -------------------------------------------------------------------------------
 
 CP2K version 2022.1 (Development Version), the CP2K developers group (2022).
 CP2K is freely available from https://www.cp2k.org/ .

 Kuehne,Thomas D.; Iannuzzi,Marcella; Del Ben,Mauro;
 Rybkin,Vladimir V.; Seewald,Patrick; Stein,Frederick; Laino,Teodoro;
 Khaliullin,Rustam Z.; Schuett,Ole; Schiffmann,Florian; Golze,Dorothea;
 Wilhelm,Jan; Chulkov,Sergey; Bani-Hashemian,Mohammad Hossein;
 Weber,Valery; Borstnik,Urban; Taillefumier,Mathieu;
 Jakobovits,Alice Shoshana; Lazzaro,Alfio; Pabst,Hans; Mueller,Tiziano;
 Schade,Robert; Guidon,Manuel; Andermatt,Samuel; Holmberg,Nico;
 Schenter,Gregory K.; Hehn,Anna; Bussy,Augustin; Belleflamme,Fabian;
 Tabacchi,Gloria; Gloess,Andreas; Lass,Michael; Bethune,Iain;
 Mundy,Christopher J.; Plessl,Christian; Watkins,Matt;
 VandeVondele,Joost; Krack,Matthias; Hutter,Juerg. 
 The Journal of Chemical Physics, 152 (19), (2020). 
 CP2K: An electronic structure and molecular dynamics software package -
 Quickstep: Efficient and accurate electronic structure calculations.
 https://doi.org/10.1063/5.0007045

 Schuett, Ole; Messmer, Peter; Hutter, Juerg; VandeVondele, Joost. 
 Electronic Structure Calculations on Graphics Processing Units, John
 Wiley & Sons, Ltd, 173-190 (2016). 
 GPU-Accelerated Sparse Matrix-Matrix Multiplication for
 Linear Scaling Density Functional Theory.
 https://doi.org/10.1002/9781118670712.ch8

 Heinecke, A; Henry, G; Hutchinson, M; Pabst, H. 
 Proceedings of Intl. Supercomputing Conference, 981-991 (2016). 
 LIBXSMM: Accelerating Small Matrix Multiplications
 by Runtime Code Generation.
 https://doi.org/10.1109/SC.2016.83

 Borstnik, U; VandeVondele, J; Weber, V; Hutter, J. 
 PARALLEL COMPUTING, 40 (5-6), 47-58 (2014). 
 Sparse matrix multiplication: The distributed block-compressed sparse
 row library.
 https://doi.org/10.1016/j.parco.2014.03.012

 Hutter, J; Iannuzzi, M; Schiffmann, F; VandeVondele, J. 
 WIREs Comput Mol Sci., 4 (1), 15-25 (2014). 
 CP2K: atomistic simulations of condensed matter systems.
 https://doi.org/10.1002/wcms.1159

 VandeVondele, J; Hutter, J. 
 JOURNAL OF CHEMICAL PHYSICS, 127 (11), 114105 (2007). 
 Gaussian basis sets for accurate calculations on molecular systems in
 gas and condensed phases.
 https://doi.org/10.1063/1.2770708

 Krack, M. 
 THEORETICAL CHEMISTRY ACCOUNTS, 114 (1-3), 145-152 (2005). 
 Pseudopotentials for H to Kr optimized for gradient-corrected
 exchange-correlation functionals.
 https://doi.org/10.1007/s00214-005-0655-y

 VandeVondele, J; Krack, M; Mohamed, F; Parrinello, M; Chassaing, T;
 Hutter, J. COMPUTER PHYSICS COMMUNICATIONS, 167 (2), 103-128 (2005). 
 QUICKSTEP: Fast and accurate density functional calculations using a
 mixed Gaussian and plane waves approach.
 https://doi.org/10.1016/j.cpc.2004.12.014

 Frigo, M; Johnson, SG. 
 PROCEEDINGS OF THE IEEE, 93 (2), 216-231 (2005). 
 The design and implementation of FFTW3.
 https://doi.org/10.1109/JPROC.2004.840301

 Hartwigsen, C; Goedecker, S; Hutter, J. 
 PHYSICAL REVIEW B, 58 (7), 3641-3662 (1998). 
 Relativistic separable dual-space Gaussian pseudopotentials from H to Rn.
 https://doi.org/10.1103/PhysRevB.58.3641

 Lippert, G; Hutter, J; Parrinello, M. 
 MOLECULAR PHYSICS, 92 (3), 477-487 (1997). 
 A hybrid Gaussian and plane wave density functional scheme.
 https://doi.org/10.1080/002689797170220

 Perdew, JP; Burke, K; Ernzerhof, M. 
 PHYSICAL REVIEW LETTERS, 77 (18), 3865-3868 (1996). 
 Generalized gradient approximation made simple.
 https://doi.org/10.1103/PhysRevLett.77.3865

 Goedecker, S; Teter, M; Hutter, J. 
 PHYSICAL REVIEW B, 54 (3), 1703-1710 (1996). 
 Separable dual-space Gaussian pseudopotentials.
 https://doi.org/10.1103/PhysRevB.54.1703


 -------------------------------------------------------------------------------
 -                                                                             -
 -                                T I M I N G                                  -
 -                                                                             -
 -------------------------------------------------------------------------------
 SUBROUTINE                       CALLS  ASD         SELF TIME        TOTAL TIME
                                MAXIMUM       AVERAGE  MAXIMUM  AVERAGE  MAXIMUM
 CP2K                                 1  1.0    0.051    0.055 1130.516 1130.539
 qs_energies                          1  2.0    0.000    0.000 1130.228 1130.240
 scf_env_do_scf                       1  3.0    0.000    0.000 1119.049 1119.070
 scf_env_do_scf_inner_loop           42  4.0    0.002    0.006 1119.049 1119.070
 run_smeagol_emtrans                 43  5.9 1110.619 1111.211 1112.391 1112.438
 qs_scf_new_mos_kp                   42  5.0    0.000    0.000 1104.816 1104.865
 -------------------------------------------------------------------------------

 The number of warnings for this run is : 2
 
 -------------------------------------------------------------------------------
  **** **** ******  **  PROGRAM ENDED AT                 2024-01-17 20:55:54.287
 ***** ** ***  *** **   PROGRAM RAN ON                               hx1-c06-3-1
 **    ****   ******    PROGRAM RAN BY                                    cahart
 ***** **    ** ** **   PROGRAM PROCESS ID                               3122381
  **** **  *******  **  PROGRAM STOPPED IN /gpfs/home/cahart/transport/melamine/
                                           au_from-h2/iv-curve/single-point/c1-3
                                           A/iv_curve/V_-0.5
