 DBCSR| CPU Multiplication driver                                           XSMM
 DBCSR| Multrec recursion limit                                              512
 DBCSR| Multiplication stack size                                           1000
 DBCSR| Maximum elements for images                                    UNLIMITED
 DBCSR| Multiplicative factor virtual images                                   1
 DBCSR| Use multiplication densification                                       T
 DBCSR| Multiplication size stacks                                             3
 DBCSR| Use memory pool for CPU allocation                                     F
 DBCSR| Number of 3D layers                                               SINGLE
 DBCSR| Use MPI memory allocation                                              F
 DBCSR| Use RMA algorithm                                                      F
 DBCSR| Use Communication thread                                               T
 DBCSR| Communication thread load                                             87
 DBCSR| MPI: My node id                                                        0
 DBCSR| MPI: Number of nodes                                                  96
 DBCSR| OMP: Current number of threads                                         1
 DBCSR| OMP: Max number of threads                                             1
 DBCSR| Split modifier for TAS multiplication algorithm                  1.0E+00


  **** **** ******  **  PROGRAM STARTED AT               2022-10-24 15:27:55.857
 ***** ** ***  *** **   PROGRAM STARTED ON                 cn1065.scarf.rl.ac.uk
 **    ****   ******    PROGRAM STARTED BY                             scarf1157
 ***** **    ** ** **   PROGRAM PROCESS ID                                 44535
  **** **  *******  **  PROGRAM STARTED IN /work4/scd/scarf1157/work/testing/cp2
                                           k-smeagol/bdt/cp2k/bulk/cell_opt/1

 CP2K| version string:                 CP2K version 2022.1 (Development Version)
 CP2K| source code revision number:                                  git:8c0411e
 CP2K| cp2kflags: omp libint fftw3 libxc parallel mpi3 scalapack cosma xsmm spgl
 CP2K|            ib sirius libvori libbqb libvdwxc
 CP2K| is freely available from                            https://www.cp2k.org/
 CP2K| Program compiled at                          Thu  6 Oct 11:48:07 BST 2022
 CP2K| Program compiled on                                 cn1065.scarf.rl.ac.uk
 CP2K| Program compiled for                                                local
 CP2K| Data directory path     /home/vol07/scarf1157/code/cp2k/scarf21/cp2k/data
 CP2K| Input file name                                                 input.inp

 GLOBAL| Force Environment number                                              1
 GLOBAL| Basis set file name                                        BASIS_MOLOPT
 GLOBAL| Potential file name                                      GTH_POTENTIALS
 GLOBAL| MM Potential file name                                     MM_POTENTIAL
 GLOBAL| Coordinate file name                                      unit_cell.xyz
 GLOBAL| Method name                                                        CP2K
 GLOBAL| Project name                                                    dft_wfn
 GLOBAL| Run type                                                       CELL_OPT
 GLOBAL| FFT library                                                       FFTW3
 GLOBAL| Diagonalization library                                       ScaLAPACK
 GLOBAL| DGEMM library                                                      BLAS
 GLOBAL| Orthonormality check for eigenvectors                          DISABLED
 GLOBAL| Matrix multiplication library                                     COSMA
 GLOBAL| All-to-all communication in single precision                          F
 GLOBAL| FFTs using library dependent lengths                                  T
 GLOBAL| Grid backend                                                       AUTO
 GLOBAL| Global print level                                               MEDIUM
 GLOBAL| MPI I/O enabled                                                       T
 GLOBAL| Total number of message passing processes                            96
 GLOBAL| Number of threads for this process                                    1
 GLOBAL| This output is from process                                           0
 GLOBAL| Stack size for threads created by OpenMP (OMP_STACKSIZE)        default
 GLOBAL| CPU model name                         AMD EPYC 7502P 32-Core Processor
 GLOBAL| CPUID                                                              1002
 GLOBAL| Compiled for CPUID                                                    0

 *** HINT in environment.F:884 :: The compiler target flags (generic) used ***
 *** to build this binary cannot exploit all extensions of this CPU model  ***
 *** (x86_avx2). Consider compiler target flags as part of FCFLAGS and     ***
 *** CFLAGS (ARCH file).                                                   ***


 MEMORY| system memory details [Kb]
 MEMORY|                        rank 0           min           max       average
 MEMORY| MemTotal            263897160     263897156     263897160     263897157
 MEMORY| MemFree             217141536     217141448     224167904     219927651
 MEMORY| Buffers                  2568          2560          2568          2565
 MEMORY| Cached               27201400      23485688      29044988      26577438
 MEMORY| Slab                  1337316       1271952       1344444       1317904
 MEMORY| SReclaimable           748480        719564        763868        743970
 MEMORY| MemLikelyFree       245093984     245093896     248420020     247251626


 *** Fundamental physical constants (SI units) ***

 *** Literature: B. J. Mohr and B. N. Taylor,
 ***             CODATA recommended values of the fundamental physical
 ***             constants: 2006, Web Version 5.1
 ***             http://physics.nist.gov/constants

 Speed of light in vacuum [m/s]                             2.99792458000000E+08
 Magnetic constant or permeability of vacuum [N/A**2]       1.25663706143592E-06
 Electric constant or permittivity of vacuum [F/m]          8.85418781762039E-12
 Planck constant (h) [J*s]                                  6.62606896000000E-34
 Planck constant (h-bar) [J*s]                              1.05457162825177E-34
 Elementary charge [C]                                      1.60217648700000E-19
 Electron mass [kg]                                         9.10938215000000E-31
 Electron g factor [ ]                                     -2.00231930436220E+00
 Proton mass [kg]                                           1.67262163700000E-27
 Fine-structure constant                                    7.29735253760000E-03
 Rydberg constant [1/m]                                     1.09737315685270E+07
 Avogadro constant [1/mol]                                  6.02214179000000E+23
 Boltzmann constant [J/K]                                   1.38065040000000E-23
 Atomic mass unit [kg]                                      1.66053878200000E-27
 Bohr radius [m]                                            5.29177208590000E-11

 *** Conversion factors ***

 [u] -> [a.u.]                                              1.82288848426455E+03
 [Angstrom] -> [Bohr] = [a.u.]                              1.88972613288564E+00
 [a.u.] = [Bohr] -> [Angstrom]                              5.29177208590000E-01
 [a.u.] -> [s]                                              2.41888432650478E-17
 [a.u.] -> [fs]                                             2.41888432650478E-02
 [a.u.] -> [J]                                              4.35974393937059E-18
 [a.u.] -> [N]                                              8.23872205491840E-08
 [a.u.] -> [K]                                              3.15774647902944E+05
 [a.u.] -> [kJ/mol]                                         2.62549961709828E+03
 [a.u.] -> [kcal/mol]                                       6.27509468713739E+02
 [a.u.] -> [Pa]                                             2.94210107994716E+13
 [a.u.] -> [bar]                                            2.94210107994716E+08
 [a.u.] -> [atm]                                            2.90362800883016E+08
 [a.u.] -> [eV]                                             2.72113838565563E+01
 [a.u.] -> [Hz]                                             6.57968392072181E+15
 [a.u.] -> [1/cm] (wave numbers)                            2.19474631370540E+05
 [a.u./Bohr**2] -> [1/cm]                                   5.14048714338585E+03
 

 CELL_TOP| Volume [angstrom^3]:                                        72.579029
 CELL_TOP| Vector a [angstrom     4.171     0.000     0.000   |a| =     4.171290
 CELL_TOP| Vector b [angstrom     0.000     4.171     0.000   |b| =     4.171290
 CELL_TOP| Vector c [angstrom     0.000     0.000     4.171   |c| =     4.171290
 CELL_TOP| Angle (b,c), alpha [degree]:                                90.000000
 CELL_TOP| Angle (a,c), beta  [degree]:                                90.000000
 CELL_TOP| Angle (a,b), gamma [degree]:                                90.000000
 CELL_TOP| Requested initial symmetry:                                     CUBIC
 CELL_TOP| Numerically orthorhombic:                                         YES
 CELL_TOP| Periodicity                                                       XYZ

 GENERATE|  Preliminary Number of Bonds generated:                             0
 GENERATE|  Achieved consistency in connectivity generation.

 CELL| Volume [angstrom^3]:                                            72.579029
 CELL| Vector a [angstrom]:       4.171     0.000     0.000   |a| =     4.171290
 CELL| Vector b [angstrom]:       0.000     4.171     0.000   |b| =     4.171290
 CELL| Vector c [angstrom]:       0.000     0.000     4.171   |c| =     4.171290
 CELL| Angle (b,c), alpha [degree]:                                    90.000000
 CELL| Angle (a,c), beta  [degree]:                                    90.000000
 CELL| Angle (a,b), gamma [degree]:                                    90.000000
 CELL| Requested initial symmetry:                                         CUBIC
 CELL| Numerically orthorhombic:                                             YES
 CELL| Periodicity                                                           XYZ

 CELL_REF| Volume [angstrom^3]:                                        72.579029
 CELL_REF| Vector a [angstrom     4.171     0.000     0.000   |a| =     4.171290
 CELL_REF| Vector b [angstrom     0.000     4.171     0.000   |b| =     4.171290
 CELL_REF| Vector c [angstrom     0.000     0.000     4.171   |c| =     4.171290
 CELL_REF| Angle (b,c), alpha [degree]:                                90.000000
 CELL_REF| Angle (a,c), beta  [degree]:                                90.000000
 CELL_REF| Angle (a,b), gamma [degree]:                                90.000000
 CELL_REF| Requested initial symmetry:                                     CUBIC
 CELL_REF| Numerically orthorhombic:                                         YES
 CELL_REF| Periodicity                                                       XYZ

 *******************************************************************************
                                    Kpoints
 *******************************************************************************
 BRILLOUIN| K-point scheme                                        Monkhorst-Pack
 BRILLOUIN| K-Point grid                                            10   10   10
 BRILLOUIN| Accuracy in Symmetry determination                      0.100000E-07
 BRILLOUIN| K-Point point group symmetrization                               OFF
 BRILLOUIN| Wavefunction type                                            COMPLEX
 BRILLOUIN| Use full k-point grid     
 BRILLOUIN| List of Kpoints [2 Pi/Bohr]                                     1000
 BRILLOUIN| Number           Weight            X              Y              Z
 BRILLOUIN|     1           0.00100       -0.45000       -0.45000       -0.45000
 BRILLOUIN|     2           0.00100       -0.45000       -0.45000       -0.35000
 BRILLOUIN|     3           0.00100       -0.45000       -0.45000       -0.25000
 BRILLOUIN|     4           0.00100       -0.45000       -0.45000       -0.15000
 BRILLOUIN|     5           0.00100       -0.45000       -0.45000       -0.05000
 BRILLOUIN|     6           0.00100       -0.45000       -0.45000        0.05000
 BRILLOUIN|     7           0.00100       -0.45000       -0.45000        0.15000
 BRILLOUIN|     8           0.00100       -0.45000       -0.45000        0.25000
 BRILLOUIN|     9           0.00100       -0.45000       -0.45000        0.35000
 BRILLOUIN|    10           0.00100       -0.45000       -0.45000        0.45000
 BRILLOUIN|    11           0.00100       -0.45000       -0.35000       -0.45000
 BRILLOUIN|    12           0.00100       -0.45000       -0.35000       -0.35000
 BRILLOUIN|    13           0.00100       -0.45000       -0.35000       -0.25000
 BRILLOUIN|    14           0.00100       -0.45000       -0.35000       -0.15000
 BRILLOUIN|    15           0.00100       -0.45000       -0.35000       -0.05000
 BRILLOUIN|    16           0.00100       -0.45000       -0.35000        0.05000
 BRILLOUIN|    17           0.00100       -0.45000       -0.35000        0.15000
 BRILLOUIN|    18           0.00100       -0.45000       -0.35000        0.25000
 BRILLOUIN|    19           0.00100       -0.45000       -0.35000        0.35000
 BRILLOUIN|    20           0.00100       -0.45000       -0.35000        0.45000
 BRILLOUIN|    21           0.00100       -0.45000       -0.25000       -0.45000
 BRILLOUIN|    22           0.00100       -0.45000       -0.25000       -0.35000
 BRILLOUIN|    23           0.00100       -0.45000       -0.25000       -0.25000
 BRILLOUIN|    24           0.00100       -0.45000       -0.25000       -0.15000
 BRILLOUIN|    25           0.00100       -0.45000       -0.25000       -0.05000
 BRILLOUIN|    26           0.00100       -0.45000       -0.25000        0.05000
 BRILLOUIN|    27           0.00100       -0.45000       -0.25000        0.15000
 BRILLOUIN|    28           0.00100       -0.45000       -0.25000        0.25000
 BRILLOUIN|    29           0.00100       -0.45000       -0.25000        0.35000
 BRILLOUIN|    30           0.00100       -0.45000       -0.25000        0.45000
 BRILLOUIN|    31           0.00100       -0.45000       -0.15000       -0.45000
 BRILLOUIN|    32           0.00100       -0.45000       -0.15000       -0.35000
 BRILLOUIN|    33           0.00100       -0.45000       -0.15000       -0.25000
 BRILLOUIN|    34           0.00100       -0.45000       -0.15000       -0.15000
 BRILLOUIN|    35           0.00100       -0.45000       -0.15000       -0.05000
 BRILLOUIN|    36           0.00100       -0.45000       -0.15000        0.05000
 BRILLOUIN|    37           0.00100       -0.45000       -0.15000        0.15000
 BRILLOUIN|    38           0.00100       -0.45000       -0.15000        0.25000
 BRILLOUIN|    39           0.00100       -0.45000       -0.15000        0.35000
 BRILLOUIN|    40           0.00100       -0.45000       -0.15000        0.45000
 BRILLOUIN|    41           0.00100       -0.45000       -0.05000       -0.45000
 BRILLOUIN|    42           0.00100       -0.45000       -0.05000       -0.35000
 BRILLOUIN|    43           0.00100       -0.45000       -0.05000       -0.25000
 BRILLOUIN|    44           0.00100       -0.45000       -0.05000       -0.15000
 BRILLOUIN|    45           0.00100       -0.45000       -0.05000       -0.05000
 BRILLOUIN|    46           0.00100       -0.45000       -0.05000        0.05000
 BRILLOUIN|    47           0.00100       -0.45000       -0.05000        0.15000
 BRILLOUIN|    48           0.00100       -0.45000       -0.05000        0.25000
 BRILLOUIN|    49           0.00100       -0.45000       -0.05000        0.35000
 BRILLOUIN|    50           0.00100       -0.45000       -0.05000        0.45000
 BRILLOUIN|    51           0.00100       -0.45000        0.05000       -0.45000
 BRILLOUIN|    52           0.00100       -0.45000        0.05000       -0.35000
 BRILLOUIN|    53           0.00100       -0.45000        0.05000       -0.25000
 BRILLOUIN|    54           0.00100       -0.45000        0.05000       -0.15000
 BRILLOUIN|    55           0.00100       -0.45000        0.05000       -0.05000
 BRILLOUIN|    56           0.00100       -0.45000        0.05000        0.05000
 BRILLOUIN|    57           0.00100       -0.45000        0.05000        0.15000
 BRILLOUIN|    58           0.00100       -0.45000        0.05000        0.25000
 BRILLOUIN|    59           0.00100       -0.45000        0.05000        0.35000
 BRILLOUIN|    60           0.00100       -0.45000        0.05000        0.45000
 BRILLOUIN|    61           0.00100       -0.45000        0.15000       -0.45000
 BRILLOUIN|    62           0.00100       -0.45000        0.15000       -0.35000
 BRILLOUIN|    63           0.00100       -0.45000        0.15000       -0.25000
 BRILLOUIN|    64           0.00100       -0.45000        0.15000       -0.15000
 BRILLOUIN|    65           0.00100       -0.45000        0.15000       -0.05000
 BRILLOUIN|    66           0.00100       -0.45000        0.15000        0.05000
 BRILLOUIN|    67           0.00100       -0.45000        0.15000        0.15000
 BRILLOUIN|    68           0.00100       -0.45000        0.15000        0.25000
 BRILLOUIN|    69           0.00100       -0.45000        0.15000        0.35000
 BRILLOUIN|    70           0.00100       -0.45000        0.15000        0.45000
 BRILLOUIN|    71           0.00100       -0.45000        0.25000       -0.45000
 BRILLOUIN|    72           0.00100       -0.45000        0.25000       -0.35000
 BRILLOUIN|    73           0.00100       -0.45000        0.25000       -0.25000
 BRILLOUIN|    74           0.00100       -0.45000        0.25000       -0.15000
 BRILLOUIN|    75           0.00100       -0.45000        0.25000       -0.05000
 BRILLOUIN|    76           0.00100       -0.45000        0.25000        0.05000
 BRILLOUIN|    77           0.00100       -0.45000        0.25000        0.15000
 BRILLOUIN|    78           0.00100       -0.45000        0.25000        0.25000
 BRILLOUIN|    79           0.00100       -0.45000        0.25000        0.35000
 BRILLOUIN|    80           0.00100       -0.45000        0.25000        0.45000
 BRILLOUIN|    81           0.00100       -0.45000        0.35000       -0.45000
 BRILLOUIN|    82           0.00100       -0.45000        0.35000       -0.35000
 BRILLOUIN|    83           0.00100       -0.45000        0.35000       -0.25000
 BRILLOUIN|    84           0.00100       -0.45000        0.35000       -0.15000
 BRILLOUIN|    85           0.00100       -0.45000        0.35000       -0.05000
 BRILLOUIN|    86           0.00100       -0.45000        0.35000        0.05000
 BRILLOUIN|    87           0.00100       -0.45000        0.35000        0.15000
 BRILLOUIN|    88           0.00100       -0.45000        0.35000        0.25000
 BRILLOUIN|    89           0.00100       -0.45000        0.35000        0.35000
 BRILLOUIN|    90           0.00100       -0.45000        0.35000        0.45000
 BRILLOUIN|    91           0.00100       -0.45000        0.45000       -0.45000
 BRILLOUIN|    92           0.00100       -0.45000        0.45000       -0.35000
 BRILLOUIN|    93           0.00100       -0.45000        0.45000       -0.25000
 BRILLOUIN|    94           0.00100       -0.45000        0.45000       -0.15000
 BRILLOUIN|    95           0.00100       -0.45000        0.45000       -0.05000
 BRILLOUIN|    96           0.00100       -0.45000        0.45000        0.05000
 BRILLOUIN|    97           0.00100       -0.45000        0.45000        0.15000
 BRILLOUIN|    98           0.00100       -0.45000        0.45000        0.25000
 BRILLOUIN|    99           0.00100       -0.45000        0.45000        0.35000
 BRILLOUIN|   100           0.00100       -0.45000        0.45000        0.45000
 BRILLOUIN|   101           0.00100       -0.35000       -0.45000       -0.45000
 BRILLOUIN|   102           0.00100       -0.35000       -0.45000       -0.35000
 BRILLOUIN|   103           0.00100       -0.35000       -0.45000       -0.25000
 BRILLOUIN|   104           0.00100       -0.35000       -0.45000       -0.15000
 BRILLOUIN|   105           0.00100       -0.35000       -0.45000       -0.05000
 BRILLOUIN|   106           0.00100       -0.35000       -0.45000        0.05000
 BRILLOUIN|   107           0.00100       -0.35000       -0.45000        0.15000
 BRILLOUIN|   108           0.00100       -0.35000       -0.45000        0.25000
 BRILLOUIN|   109           0.00100       -0.35000       -0.45000        0.35000
 BRILLOUIN|   110           0.00100       -0.35000       -0.45000        0.45000
 BRILLOUIN|   111           0.00100       -0.35000       -0.35000       -0.45000
 BRILLOUIN|   112           0.00100       -0.35000       -0.35000       -0.35000
 BRILLOUIN|   113           0.00100       -0.35000       -0.35000       -0.25000
 BRILLOUIN|   114           0.00100       -0.35000       -0.35000       -0.15000
 BRILLOUIN|   115           0.00100       -0.35000       -0.35000       -0.05000
 BRILLOUIN|   116           0.00100       -0.35000       -0.35000        0.05000
 BRILLOUIN|   117           0.00100       -0.35000       -0.35000        0.15000
 BRILLOUIN|   118           0.00100       -0.35000       -0.35000        0.25000
 BRILLOUIN|   119           0.00100       -0.35000       -0.35000        0.35000
 BRILLOUIN|   120           0.00100       -0.35000       -0.35000        0.45000
 BRILLOUIN|   121           0.00100       -0.35000       -0.25000       -0.45000
 BRILLOUIN|   122           0.00100       -0.35000       -0.25000       -0.35000
 BRILLOUIN|   123           0.00100       -0.35000       -0.25000       -0.25000
 BRILLOUIN|   124           0.00100       -0.35000       -0.25000       -0.15000
 BRILLOUIN|   125           0.00100       -0.35000       -0.25000       -0.05000
 BRILLOUIN|   126           0.00100       -0.35000       -0.25000        0.05000
 BRILLOUIN|   127           0.00100       -0.35000       -0.25000        0.15000
 BRILLOUIN|   128           0.00100       -0.35000       -0.25000        0.25000
 BRILLOUIN|   129           0.00100       -0.35000       -0.25000        0.35000
 BRILLOUIN|   130           0.00100       -0.35000       -0.25000        0.45000
 BRILLOUIN|   131           0.00100       -0.35000       -0.15000       -0.45000
 BRILLOUIN|   132           0.00100       -0.35000       -0.15000       -0.35000
 BRILLOUIN|   133           0.00100       -0.35000       -0.15000       -0.25000
 BRILLOUIN|   134           0.00100       -0.35000       -0.15000       -0.15000
 BRILLOUIN|   135           0.00100       -0.35000       -0.15000       -0.05000
 BRILLOUIN|   136           0.00100       -0.35000       -0.15000        0.05000
 BRILLOUIN|   137           0.00100       -0.35000       -0.15000        0.15000
 BRILLOUIN|   138           0.00100       -0.35000       -0.15000        0.25000
 BRILLOUIN|   139           0.00100       -0.35000       -0.15000        0.35000
 BRILLOUIN|   140           0.00100       -0.35000       -0.15000        0.45000
 BRILLOUIN|   141           0.00100       -0.35000       -0.05000       -0.45000
 BRILLOUIN|   142           0.00100       -0.35000       -0.05000       -0.35000
 BRILLOUIN|   143           0.00100       -0.35000       -0.05000       -0.25000
 BRILLOUIN|   144           0.00100       -0.35000       -0.05000       -0.15000
 BRILLOUIN|   145           0.00100       -0.35000       -0.05000       -0.05000
 BRILLOUIN|   146           0.00100       -0.35000       -0.05000        0.05000
 BRILLOUIN|   147           0.00100       -0.35000       -0.05000        0.15000
 BRILLOUIN|   148           0.00100       -0.35000       -0.05000        0.25000
 BRILLOUIN|   149           0.00100       -0.35000       -0.05000        0.35000
 BRILLOUIN|   150           0.00100       -0.35000       -0.05000        0.45000
 BRILLOUIN|   151           0.00100       -0.35000        0.05000       -0.45000
 BRILLOUIN|   152           0.00100       -0.35000        0.05000       -0.35000
 BRILLOUIN|   153           0.00100       -0.35000        0.05000       -0.25000
 BRILLOUIN|   154           0.00100       -0.35000        0.05000       -0.15000
 BRILLOUIN|   155           0.00100       -0.35000        0.05000       -0.05000
 BRILLOUIN|   156           0.00100       -0.35000        0.05000        0.05000
 BRILLOUIN|   157           0.00100       -0.35000        0.05000        0.15000
 BRILLOUIN|   158           0.00100       -0.35000        0.05000        0.25000
 BRILLOUIN|   159           0.00100       -0.35000        0.05000        0.35000
 BRILLOUIN|   160           0.00100       -0.35000        0.05000        0.45000
 BRILLOUIN|   161           0.00100       -0.35000        0.15000       -0.45000
 BRILLOUIN|   162           0.00100       -0.35000        0.15000       -0.35000
 BRILLOUIN|   163           0.00100       -0.35000        0.15000       -0.25000
 BRILLOUIN|   164           0.00100       -0.35000        0.15000       -0.15000
 BRILLOUIN|   165           0.00100       -0.35000        0.15000       -0.05000
 BRILLOUIN|   166           0.00100       -0.35000        0.15000        0.05000
 BRILLOUIN|   167           0.00100       -0.35000        0.15000        0.15000
 BRILLOUIN|   168           0.00100       -0.35000        0.15000        0.25000
 BRILLOUIN|   169           0.00100       -0.35000        0.15000        0.35000
 BRILLOUIN|   170           0.00100       -0.35000        0.15000        0.45000
 BRILLOUIN|   171           0.00100       -0.35000        0.25000       -0.45000
 BRILLOUIN|   172           0.00100       -0.35000        0.25000       -0.35000
 BRILLOUIN|   173           0.00100       -0.35000        0.25000       -0.25000
 BRILLOUIN|   174           0.00100       -0.35000        0.25000       -0.15000
 BRILLOUIN|   175           0.00100       -0.35000        0.25000       -0.05000
 BRILLOUIN|   176           0.00100       -0.35000        0.25000        0.05000
 BRILLOUIN|   177           0.00100       -0.35000        0.25000        0.15000
 BRILLOUIN|   178           0.00100       -0.35000        0.25000        0.25000
 BRILLOUIN|   179           0.00100       -0.35000        0.25000        0.35000
 BRILLOUIN|   180           0.00100       -0.35000        0.25000        0.45000
 BRILLOUIN|   181           0.00100       -0.35000        0.35000       -0.45000
 BRILLOUIN|   182           0.00100       -0.35000        0.35000       -0.35000
 BRILLOUIN|   183           0.00100       -0.35000        0.35000       -0.25000
 BRILLOUIN|   184           0.00100       -0.35000        0.35000       -0.15000
 BRILLOUIN|   185           0.00100       -0.35000        0.35000       -0.05000
 BRILLOUIN|   186           0.00100       -0.35000        0.35000        0.05000
 BRILLOUIN|   187           0.00100       -0.35000        0.35000        0.15000
 BRILLOUIN|   188           0.00100       -0.35000        0.35000        0.25000
 BRILLOUIN|   189           0.00100       -0.35000        0.35000        0.35000
 BRILLOUIN|   190           0.00100       -0.35000        0.35000        0.45000
 BRILLOUIN|   191           0.00100       -0.35000        0.45000       -0.45000
 BRILLOUIN|   192           0.00100       -0.35000        0.45000       -0.35000
 BRILLOUIN|   193           0.00100       -0.35000        0.45000       -0.25000
 BRILLOUIN|   194           0.00100       -0.35000        0.45000       -0.15000
 BRILLOUIN|   195           0.00100       -0.35000        0.45000       -0.05000
 BRILLOUIN|   196           0.00100       -0.35000        0.45000        0.05000
 BRILLOUIN|   197           0.00100       -0.35000        0.45000        0.15000
 BRILLOUIN|   198           0.00100       -0.35000        0.45000        0.25000
 BRILLOUIN|   199           0.00100       -0.35000        0.45000        0.35000
 BRILLOUIN|   200           0.00100       -0.35000        0.45000        0.45000
 BRILLOUIN|   201           0.00100       -0.25000       -0.45000       -0.45000
 BRILLOUIN|   202           0.00100       -0.25000       -0.45000       -0.35000
 BRILLOUIN|   203           0.00100       -0.25000       -0.45000       -0.25000
 BRILLOUIN|   204           0.00100       -0.25000       -0.45000       -0.15000
 BRILLOUIN|   205           0.00100       -0.25000       -0.45000       -0.05000
 BRILLOUIN|   206           0.00100       -0.25000       -0.45000        0.05000
 BRILLOUIN|   207           0.00100       -0.25000       -0.45000        0.15000
 BRILLOUIN|   208           0.00100       -0.25000       -0.45000        0.25000
 BRILLOUIN|   209           0.00100       -0.25000       -0.45000        0.35000
 BRILLOUIN|   210           0.00100       -0.25000       -0.45000        0.45000
 BRILLOUIN|   211           0.00100       -0.25000       -0.35000       -0.45000
 BRILLOUIN|   212           0.00100       -0.25000       -0.35000       -0.35000
 BRILLOUIN|   213           0.00100       -0.25000       -0.35000       -0.25000
 BRILLOUIN|   214           0.00100       -0.25000       -0.35000       -0.15000
 BRILLOUIN|   215           0.00100       -0.25000       -0.35000       -0.05000
 BRILLOUIN|   216           0.00100       -0.25000       -0.35000        0.05000
 BRILLOUIN|   217           0.00100       -0.25000       -0.35000        0.15000
 BRILLOUIN|   218           0.00100       -0.25000       -0.35000        0.25000
 BRILLOUIN|   219           0.00100       -0.25000       -0.35000        0.35000
 BRILLOUIN|   220           0.00100       -0.25000       -0.35000        0.45000
 BRILLOUIN|   221           0.00100       -0.25000       -0.25000       -0.45000
 BRILLOUIN|   222           0.00100       -0.25000       -0.25000       -0.35000
 BRILLOUIN|   223           0.00100       -0.25000       -0.25000       -0.25000
 BRILLOUIN|   224           0.00100       -0.25000       -0.25000       -0.15000
 BRILLOUIN|   225           0.00100       -0.25000       -0.25000       -0.05000
 BRILLOUIN|   226           0.00100       -0.25000       -0.25000        0.05000
 BRILLOUIN|   227           0.00100       -0.25000       -0.25000        0.15000
 BRILLOUIN|   228           0.00100       -0.25000       -0.25000        0.25000
 BRILLOUIN|   229           0.00100       -0.25000       -0.25000        0.35000
 BRILLOUIN|   230           0.00100       -0.25000       -0.25000        0.45000
 BRILLOUIN|   231           0.00100       -0.25000       -0.15000       -0.45000
 BRILLOUIN|   232           0.00100       -0.25000       -0.15000       -0.35000
 BRILLOUIN|   233           0.00100       -0.25000       -0.15000       -0.25000
 BRILLOUIN|   234           0.00100       -0.25000       -0.15000       -0.15000
 BRILLOUIN|   235           0.00100       -0.25000       -0.15000       -0.05000
 BRILLOUIN|   236           0.00100       -0.25000       -0.15000        0.05000
 BRILLOUIN|   237           0.00100       -0.25000       -0.15000        0.15000
 BRILLOUIN|   238           0.00100       -0.25000       -0.15000        0.25000
 BRILLOUIN|   239           0.00100       -0.25000       -0.15000        0.35000
 BRILLOUIN|   240           0.00100       -0.25000       -0.15000        0.45000
 BRILLOUIN|   241           0.00100       -0.25000       -0.05000       -0.45000
 BRILLOUIN|   242           0.00100       -0.25000       -0.05000       -0.35000
 BRILLOUIN|   243           0.00100       -0.25000       -0.05000       -0.25000
 BRILLOUIN|   244           0.00100       -0.25000       -0.05000       -0.15000
 BRILLOUIN|   245           0.00100       -0.25000       -0.05000       -0.05000
 BRILLOUIN|   246           0.00100       -0.25000       -0.05000        0.05000
 BRILLOUIN|   247           0.00100       -0.25000       -0.05000        0.15000
 BRILLOUIN|   248           0.00100       -0.25000       -0.05000        0.25000
 BRILLOUIN|   249           0.00100       -0.25000       -0.05000        0.35000
 BRILLOUIN|   250           0.00100       -0.25000       -0.05000        0.45000
 BRILLOUIN|   251           0.00100       -0.25000        0.05000       -0.45000
 BRILLOUIN|   252           0.00100       -0.25000        0.05000       -0.35000
 BRILLOUIN|   253           0.00100       -0.25000        0.05000       -0.25000
 BRILLOUIN|   254           0.00100       -0.25000        0.05000       -0.15000
 BRILLOUIN|   255           0.00100       -0.25000        0.05000       -0.05000
 BRILLOUIN|   256           0.00100       -0.25000        0.05000        0.05000
 BRILLOUIN|   257           0.00100       -0.25000        0.05000        0.15000
 BRILLOUIN|   258           0.00100       -0.25000        0.05000        0.25000
 BRILLOUIN|   259           0.00100       -0.25000        0.05000        0.35000
 BRILLOUIN|   260           0.00100       -0.25000        0.05000        0.45000
 BRILLOUIN|   261           0.00100       -0.25000        0.15000       -0.45000
 BRILLOUIN|   262           0.00100       -0.25000        0.15000       -0.35000
 BRILLOUIN|   263           0.00100       -0.25000        0.15000       -0.25000
 BRILLOUIN|   264           0.00100       -0.25000        0.15000       -0.15000
 BRILLOUIN|   265           0.00100       -0.25000        0.15000       -0.05000
 BRILLOUIN|   266           0.00100       -0.25000        0.15000        0.05000
 BRILLOUIN|   267           0.00100       -0.25000        0.15000        0.15000
 BRILLOUIN|   268           0.00100       -0.25000        0.15000        0.25000
 BRILLOUIN|   269           0.00100       -0.25000        0.15000        0.35000
 BRILLOUIN|   270           0.00100       -0.25000        0.15000        0.45000
 BRILLOUIN|   271           0.00100       -0.25000        0.25000       -0.45000
 BRILLOUIN|   272           0.00100       -0.25000        0.25000       -0.35000
 BRILLOUIN|   273           0.00100       -0.25000        0.25000       -0.25000
 BRILLOUIN|   274           0.00100       -0.25000        0.25000       -0.15000
 BRILLOUIN|   275           0.00100       -0.25000        0.25000       -0.05000
 BRILLOUIN|   276           0.00100       -0.25000        0.25000        0.05000
 BRILLOUIN|   277           0.00100       -0.25000        0.25000        0.15000
 BRILLOUIN|   278           0.00100       -0.25000        0.25000        0.25000
 BRILLOUIN|   279           0.00100       -0.25000        0.25000        0.35000
 BRILLOUIN|   280           0.00100       -0.25000        0.25000        0.45000
 BRILLOUIN|   281           0.00100       -0.25000        0.35000       -0.45000
 BRILLOUIN|   282           0.00100       -0.25000        0.35000       -0.35000
 BRILLOUIN|   283           0.00100       -0.25000        0.35000       -0.25000
 BRILLOUIN|   284           0.00100       -0.25000        0.35000       -0.15000
 BRILLOUIN|   285           0.00100       -0.25000        0.35000       -0.05000
 BRILLOUIN|   286           0.00100       -0.25000        0.35000        0.05000
 BRILLOUIN|   287           0.00100       -0.25000        0.35000        0.15000
 BRILLOUIN|   288           0.00100       -0.25000        0.35000        0.25000
 BRILLOUIN|   289           0.00100       -0.25000        0.35000        0.35000
 BRILLOUIN|   290           0.00100       -0.25000        0.35000        0.45000
 BRILLOUIN|   291           0.00100       -0.25000        0.45000       -0.45000
 BRILLOUIN|   292           0.00100       -0.25000        0.45000       -0.35000
 BRILLOUIN|   293           0.00100       -0.25000        0.45000       -0.25000
 BRILLOUIN|   294           0.00100       -0.25000        0.45000       -0.15000
 BRILLOUIN|   295           0.00100       -0.25000        0.45000       -0.05000
 BRILLOUIN|   296           0.00100       -0.25000        0.45000        0.05000
 BRILLOUIN|   297           0.00100       -0.25000        0.45000        0.15000
 BRILLOUIN|   298           0.00100       -0.25000        0.45000        0.25000
 BRILLOUIN|   299           0.00100       -0.25000        0.45000        0.35000
 BRILLOUIN|   300           0.00100       -0.25000        0.45000        0.45000
 BRILLOUIN|   301           0.00100       -0.15000       -0.45000       -0.45000
 BRILLOUIN|   302           0.00100       -0.15000       -0.45000       -0.35000
 BRILLOUIN|   303           0.00100       -0.15000       -0.45000       -0.25000
 BRILLOUIN|   304           0.00100       -0.15000       -0.45000       -0.15000
 BRILLOUIN|   305           0.00100       -0.15000       -0.45000       -0.05000
 BRILLOUIN|   306           0.00100       -0.15000       -0.45000        0.05000
 BRILLOUIN|   307           0.00100       -0.15000       -0.45000        0.15000
 BRILLOUIN|   308           0.00100       -0.15000       -0.45000        0.25000
 BRILLOUIN|   309           0.00100       -0.15000       -0.45000        0.35000
 BRILLOUIN|   310           0.00100       -0.15000       -0.45000        0.45000
 BRILLOUIN|   311           0.00100       -0.15000       -0.35000       -0.45000
 BRILLOUIN|   312           0.00100       -0.15000       -0.35000       -0.35000
 BRILLOUIN|   313           0.00100       -0.15000       -0.35000       -0.25000
 BRILLOUIN|   314           0.00100       -0.15000       -0.35000       -0.15000
 BRILLOUIN|   315           0.00100       -0.15000       -0.35000       -0.05000
 BRILLOUIN|   316           0.00100       -0.15000       -0.35000        0.05000
 BRILLOUIN|   317           0.00100       -0.15000       -0.35000        0.15000
 BRILLOUIN|   318           0.00100       -0.15000       -0.35000        0.25000
 BRILLOUIN|   319           0.00100       -0.15000       -0.35000        0.35000
 BRILLOUIN|   320           0.00100       -0.15000       -0.35000        0.45000
 BRILLOUIN|   321           0.00100       -0.15000       -0.25000       -0.45000
 BRILLOUIN|   322           0.00100       -0.15000       -0.25000       -0.35000
 BRILLOUIN|   323           0.00100       -0.15000       -0.25000       -0.25000
 BRILLOUIN|   324           0.00100       -0.15000       -0.25000       -0.15000
 BRILLOUIN|   325           0.00100       -0.15000       -0.25000       -0.05000
 BRILLOUIN|   326           0.00100       -0.15000       -0.25000        0.05000
 BRILLOUIN|   327           0.00100       -0.15000       -0.25000        0.15000
 BRILLOUIN|   328           0.00100       -0.15000       -0.25000        0.25000
 BRILLOUIN|   329           0.00100       -0.15000       -0.25000        0.35000
 BRILLOUIN|   330           0.00100       -0.15000       -0.25000        0.45000
 BRILLOUIN|   331           0.00100       -0.15000       -0.15000       -0.45000
 BRILLOUIN|   332           0.00100       -0.15000       -0.15000       -0.35000
 BRILLOUIN|   333           0.00100       -0.15000       -0.15000       -0.25000
 BRILLOUIN|   334           0.00100       -0.15000       -0.15000       -0.15000
 BRILLOUIN|   335           0.00100       -0.15000       -0.15000       -0.05000
 BRILLOUIN|   336           0.00100       -0.15000       -0.15000        0.05000
 BRILLOUIN|   337           0.00100       -0.15000       -0.15000        0.15000
 BRILLOUIN|   338           0.00100       -0.15000       -0.15000        0.25000
 BRILLOUIN|   339           0.00100       -0.15000       -0.15000        0.35000
 BRILLOUIN|   340           0.00100       -0.15000       -0.15000        0.45000
 BRILLOUIN|   341           0.00100       -0.15000       -0.05000       -0.45000
 BRILLOUIN|   342           0.00100       -0.15000       -0.05000       -0.35000
 BRILLOUIN|   343           0.00100       -0.15000       -0.05000       -0.25000
 BRILLOUIN|   344           0.00100       -0.15000       -0.05000       -0.15000
 BRILLOUIN|   345           0.00100       -0.15000       -0.05000       -0.05000
 BRILLOUIN|   346           0.00100       -0.15000       -0.05000        0.05000
 BRILLOUIN|   347           0.00100       -0.15000       -0.05000        0.15000
 BRILLOUIN|   348           0.00100       -0.15000       -0.05000        0.25000
 BRILLOUIN|   349           0.00100       -0.15000       -0.05000        0.35000
 BRILLOUIN|   350           0.00100       -0.15000       -0.05000        0.45000
 BRILLOUIN|   351           0.00100       -0.15000        0.05000       -0.45000
 BRILLOUIN|   352           0.00100       -0.15000        0.05000       -0.35000
 BRILLOUIN|   353           0.00100       -0.15000        0.05000       -0.25000
 BRILLOUIN|   354           0.00100       -0.15000        0.05000       -0.15000
 BRILLOUIN|   355           0.00100       -0.15000        0.05000       -0.05000
 BRILLOUIN|   356           0.00100       -0.15000        0.05000        0.05000
 BRILLOUIN|   357           0.00100       -0.15000        0.05000        0.15000
 BRILLOUIN|   358           0.00100       -0.15000        0.05000        0.25000
 BRILLOUIN|   359           0.00100       -0.15000        0.05000        0.35000
 BRILLOUIN|   360           0.00100       -0.15000        0.05000        0.45000
 BRILLOUIN|   361           0.00100       -0.15000        0.15000       -0.45000
 BRILLOUIN|   362           0.00100       -0.15000        0.15000       -0.35000
 BRILLOUIN|   363           0.00100       -0.15000        0.15000       -0.25000
 BRILLOUIN|   364           0.00100       -0.15000        0.15000       -0.15000
 BRILLOUIN|   365           0.00100       -0.15000        0.15000       -0.05000
 BRILLOUIN|   366           0.00100       -0.15000        0.15000        0.05000
 BRILLOUIN|   367           0.00100       -0.15000        0.15000        0.15000
 BRILLOUIN|   368           0.00100       -0.15000        0.15000        0.25000
 BRILLOUIN|   369           0.00100       -0.15000        0.15000        0.35000
 BRILLOUIN|   370           0.00100       -0.15000        0.15000        0.45000
 BRILLOUIN|   371           0.00100       -0.15000        0.25000       -0.45000
 BRILLOUIN|   372           0.00100       -0.15000        0.25000       -0.35000
 BRILLOUIN|   373           0.00100       -0.15000        0.25000       -0.25000
 BRILLOUIN|   374           0.00100       -0.15000        0.25000       -0.15000
 BRILLOUIN|   375           0.00100       -0.15000        0.25000       -0.05000
 BRILLOUIN|   376           0.00100       -0.15000        0.25000        0.05000
 BRILLOUIN|   377           0.00100       -0.15000        0.25000        0.15000
 BRILLOUIN|   378           0.00100       -0.15000        0.25000        0.25000
 BRILLOUIN|   379           0.00100       -0.15000        0.25000        0.35000
 BRILLOUIN|   380           0.00100       -0.15000        0.25000        0.45000
 BRILLOUIN|   381           0.00100       -0.15000        0.35000       -0.45000
 BRILLOUIN|   382           0.00100       -0.15000        0.35000       -0.35000
 BRILLOUIN|   383           0.00100       -0.15000        0.35000       -0.25000
 BRILLOUIN|   384           0.00100       -0.15000        0.35000       -0.15000
 BRILLOUIN|   385           0.00100       -0.15000        0.35000       -0.05000
 BRILLOUIN|   386           0.00100       -0.15000        0.35000        0.05000
 BRILLOUIN|   387           0.00100       -0.15000        0.35000        0.15000
 BRILLOUIN|   388           0.00100       -0.15000        0.35000        0.25000
 BRILLOUIN|   389           0.00100       -0.15000        0.35000        0.35000
 BRILLOUIN|   390           0.00100       -0.15000        0.35000        0.45000
 BRILLOUIN|   391           0.00100       -0.15000        0.45000       -0.45000
 BRILLOUIN|   392           0.00100       -0.15000        0.45000       -0.35000
 BRILLOUIN|   393           0.00100       -0.15000        0.45000       -0.25000
 BRILLOUIN|   394           0.00100       -0.15000        0.45000       -0.15000
 BRILLOUIN|   395           0.00100       -0.15000        0.45000       -0.05000
 BRILLOUIN|   396           0.00100       -0.15000        0.45000        0.05000
 BRILLOUIN|   397           0.00100       -0.15000        0.45000        0.15000
 BRILLOUIN|   398           0.00100       -0.15000        0.45000        0.25000
 BRILLOUIN|   399           0.00100       -0.15000        0.45000        0.35000
 BRILLOUIN|   400           0.00100       -0.15000        0.45000        0.45000
 BRILLOUIN|   401           0.00100       -0.05000       -0.45000       -0.45000
 BRILLOUIN|   402           0.00100       -0.05000       -0.45000       -0.35000
 BRILLOUIN|   403           0.00100       -0.05000       -0.45000       -0.25000
 BRILLOUIN|   404           0.00100       -0.05000       -0.45000       -0.15000
 BRILLOUIN|   405           0.00100       -0.05000       -0.45000       -0.05000
 BRILLOUIN|   406           0.00100       -0.05000       -0.45000        0.05000
 BRILLOUIN|   407           0.00100       -0.05000       -0.45000        0.15000
 BRILLOUIN|   408           0.00100       -0.05000       -0.45000        0.25000
 BRILLOUIN|   409           0.00100       -0.05000       -0.45000        0.35000
 BRILLOUIN|   410           0.00100       -0.05000       -0.45000        0.45000
 BRILLOUIN|   411           0.00100       -0.05000       -0.35000       -0.45000
 BRILLOUIN|   412           0.00100       -0.05000       -0.35000       -0.35000
 BRILLOUIN|   413           0.00100       -0.05000       -0.35000       -0.25000
 BRILLOUIN|   414           0.00100       -0.05000       -0.35000       -0.15000
 BRILLOUIN|   415           0.00100       -0.05000       -0.35000       -0.05000
 BRILLOUIN|   416           0.00100       -0.05000       -0.35000        0.05000
 BRILLOUIN|   417           0.00100       -0.05000       -0.35000        0.15000
 BRILLOUIN|   418           0.00100       -0.05000       -0.35000        0.25000
 BRILLOUIN|   419           0.00100       -0.05000       -0.35000        0.35000
 BRILLOUIN|   420           0.00100       -0.05000       -0.35000        0.45000
 BRILLOUIN|   421           0.00100       -0.05000       -0.25000       -0.45000
 BRILLOUIN|   422           0.00100       -0.05000       -0.25000       -0.35000
 BRILLOUIN|   423           0.00100       -0.05000       -0.25000       -0.25000
 BRILLOUIN|   424           0.00100       -0.05000       -0.25000       -0.15000
 BRILLOUIN|   425           0.00100       -0.05000       -0.25000       -0.05000
 BRILLOUIN|   426           0.00100       -0.05000       -0.25000        0.05000
 BRILLOUIN|   427           0.00100       -0.05000       -0.25000        0.15000
 BRILLOUIN|   428           0.00100       -0.05000       -0.25000        0.25000
 BRILLOUIN|   429           0.00100       -0.05000       -0.25000        0.35000
 BRILLOUIN|   430           0.00100       -0.05000       -0.25000        0.45000
 BRILLOUIN|   431           0.00100       -0.05000       -0.15000       -0.45000
 BRILLOUIN|   432           0.00100       -0.05000       -0.15000       -0.35000
 BRILLOUIN|   433           0.00100       -0.05000       -0.15000       -0.25000
 BRILLOUIN|   434           0.00100       -0.05000       -0.15000       -0.15000
 BRILLOUIN|   435           0.00100       -0.05000       -0.15000       -0.05000
 BRILLOUIN|   436           0.00100       -0.05000       -0.15000        0.05000
 BRILLOUIN|   437           0.00100       -0.05000       -0.15000        0.15000
 BRILLOUIN|   438           0.00100       -0.05000       -0.15000        0.25000
 BRILLOUIN|   439           0.00100       -0.05000       -0.15000        0.35000
 BRILLOUIN|   440           0.00100       -0.05000       -0.15000        0.45000
 BRILLOUIN|   441           0.00100       -0.05000       -0.05000       -0.45000
 BRILLOUIN|   442           0.00100       -0.05000       -0.05000       -0.35000
 BRILLOUIN|   443           0.00100       -0.05000       -0.05000       -0.25000
 BRILLOUIN|   444           0.00100       -0.05000       -0.05000       -0.15000
 BRILLOUIN|   445           0.00100       -0.05000       -0.05000       -0.05000
 BRILLOUIN|   446           0.00100       -0.05000       -0.05000        0.05000
 BRILLOUIN|   447           0.00100       -0.05000       -0.05000        0.15000
 BRILLOUIN|   448           0.00100       -0.05000       -0.05000        0.25000
 BRILLOUIN|   449           0.00100       -0.05000       -0.05000        0.35000
 BRILLOUIN|   450           0.00100       -0.05000       -0.05000        0.45000
 BRILLOUIN|   451           0.00100       -0.05000        0.05000       -0.45000
 BRILLOUIN|   452           0.00100       -0.05000        0.05000       -0.35000
 BRILLOUIN|   453           0.00100       -0.05000        0.05000       -0.25000
 BRILLOUIN|   454           0.00100       -0.05000        0.05000       -0.15000
 BRILLOUIN|   455           0.00100       -0.05000        0.05000       -0.05000
 BRILLOUIN|   456           0.00100       -0.05000        0.05000        0.05000
 BRILLOUIN|   457           0.00100       -0.05000        0.05000        0.15000
 BRILLOUIN|   458           0.00100       -0.05000        0.05000        0.25000
 BRILLOUIN|   459           0.00100       -0.05000        0.05000        0.35000
 BRILLOUIN|   460           0.00100       -0.05000        0.05000        0.45000
 BRILLOUIN|   461           0.00100       -0.05000        0.15000       -0.45000
 BRILLOUIN|   462           0.00100       -0.05000        0.15000       -0.35000
 BRILLOUIN|   463           0.00100       -0.05000        0.15000       -0.25000
 BRILLOUIN|   464           0.00100       -0.05000        0.15000       -0.15000
 BRILLOUIN|   465           0.00100       -0.05000        0.15000       -0.05000
 BRILLOUIN|   466           0.00100       -0.05000        0.15000        0.05000
 BRILLOUIN|   467           0.00100       -0.05000        0.15000        0.15000
 BRILLOUIN|   468           0.00100       -0.05000        0.15000        0.25000
 BRILLOUIN|   469           0.00100       -0.05000        0.15000        0.35000
 BRILLOUIN|   470           0.00100       -0.05000        0.15000        0.45000
 BRILLOUIN|   471           0.00100       -0.05000        0.25000       -0.45000
 BRILLOUIN|   472           0.00100       -0.05000        0.25000       -0.35000
 BRILLOUIN|   473           0.00100       -0.05000        0.25000       -0.25000
 BRILLOUIN|   474           0.00100       -0.05000        0.25000       -0.15000
 BRILLOUIN|   475           0.00100       -0.05000        0.25000       -0.05000
 BRILLOUIN|   476           0.00100       -0.05000        0.25000        0.05000
 BRILLOUIN|   477           0.00100       -0.05000        0.25000        0.15000
 BRILLOUIN|   478           0.00100       -0.05000        0.25000        0.25000
 BRILLOUIN|   479           0.00100       -0.05000        0.25000        0.35000
 BRILLOUIN|   480           0.00100       -0.05000        0.25000        0.45000
 BRILLOUIN|   481           0.00100       -0.05000        0.35000       -0.45000
 BRILLOUIN|   482           0.00100       -0.05000        0.35000       -0.35000
 BRILLOUIN|   483           0.00100       -0.05000        0.35000       -0.25000
 BRILLOUIN|   484           0.00100       -0.05000        0.35000       -0.15000
 BRILLOUIN|   485           0.00100       -0.05000        0.35000       -0.05000
 BRILLOUIN|   486           0.00100       -0.05000        0.35000        0.05000
 BRILLOUIN|   487           0.00100       -0.05000        0.35000        0.15000
 BRILLOUIN|   488           0.00100       -0.05000        0.35000        0.25000
 BRILLOUIN|   489           0.00100       -0.05000        0.35000        0.35000
 BRILLOUIN|   490           0.00100       -0.05000        0.35000        0.45000
 BRILLOUIN|   491           0.00100       -0.05000        0.45000       -0.45000
 BRILLOUIN|   492           0.00100       -0.05000        0.45000       -0.35000
 BRILLOUIN|   493           0.00100       -0.05000        0.45000       -0.25000
 BRILLOUIN|   494           0.00100       -0.05000        0.45000       -0.15000
 BRILLOUIN|   495           0.00100       -0.05000        0.45000       -0.05000
 BRILLOUIN|   496           0.00100       -0.05000        0.45000        0.05000
 BRILLOUIN|   497           0.00100       -0.05000        0.45000        0.15000
 BRILLOUIN|   498           0.00100       -0.05000        0.45000        0.25000
 BRILLOUIN|   499           0.00100       -0.05000        0.45000        0.35000
 BRILLOUIN|   500           0.00100       -0.05000        0.45000        0.45000
 BRILLOUIN|   501           0.00100        0.05000       -0.45000       -0.45000
 BRILLOUIN|   502           0.00100        0.05000       -0.45000       -0.35000
 BRILLOUIN|   503           0.00100        0.05000       -0.45000       -0.25000
 BRILLOUIN|   504           0.00100        0.05000       -0.45000       -0.15000
 BRILLOUIN|   505           0.00100        0.05000       -0.45000       -0.05000
 BRILLOUIN|   506           0.00100        0.05000       -0.45000        0.05000
 BRILLOUIN|   507           0.00100        0.05000       -0.45000        0.15000
 BRILLOUIN|   508           0.00100        0.05000       -0.45000        0.25000
 BRILLOUIN|   509           0.00100        0.05000       -0.45000        0.35000
 BRILLOUIN|   510           0.00100        0.05000       -0.45000        0.45000
 BRILLOUIN|   511           0.00100        0.05000       -0.35000       -0.45000
 BRILLOUIN|   512           0.00100        0.05000       -0.35000       -0.35000
 BRILLOUIN|   513           0.00100        0.05000       -0.35000       -0.25000
 BRILLOUIN|   514           0.00100        0.05000       -0.35000       -0.15000
 BRILLOUIN|   515           0.00100        0.05000       -0.35000       -0.05000
 BRILLOUIN|   516           0.00100        0.05000       -0.35000        0.05000
 BRILLOUIN|   517           0.00100        0.05000       -0.35000        0.15000
 BRILLOUIN|   518           0.00100        0.05000       -0.35000        0.25000
 BRILLOUIN|   519           0.00100        0.05000       -0.35000        0.35000
 BRILLOUIN|   520           0.00100        0.05000       -0.35000        0.45000
 BRILLOUIN|   521           0.00100        0.05000       -0.25000       -0.45000
 BRILLOUIN|   522           0.00100        0.05000       -0.25000       -0.35000
 BRILLOUIN|   523           0.00100        0.05000       -0.25000       -0.25000
 BRILLOUIN|   524           0.00100        0.05000       -0.25000       -0.15000
 BRILLOUIN|   525           0.00100        0.05000       -0.25000       -0.05000
 BRILLOUIN|   526           0.00100        0.05000       -0.25000        0.05000
 BRILLOUIN|   527           0.00100        0.05000       -0.25000        0.15000
 BRILLOUIN|   528           0.00100        0.05000       -0.25000        0.25000
 BRILLOUIN|   529           0.00100        0.05000       -0.25000        0.35000
 BRILLOUIN|   530           0.00100        0.05000       -0.25000        0.45000
 BRILLOUIN|   531           0.00100        0.05000       -0.15000       -0.45000
 BRILLOUIN|   532           0.00100        0.05000       -0.15000       -0.35000
 BRILLOUIN|   533           0.00100        0.05000       -0.15000       -0.25000
 BRILLOUIN|   534           0.00100        0.05000       -0.15000       -0.15000
 BRILLOUIN|   535           0.00100        0.05000       -0.15000       -0.05000
 BRILLOUIN|   536           0.00100        0.05000       -0.15000        0.05000
 BRILLOUIN|   537           0.00100        0.05000       -0.15000        0.15000
 BRILLOUIN|   538           0.00100        0.05000       -0.15000        0.25000
 BRILLOUIN|   539           0.00100        0.05000       -0.15000        0.35000
 BRILLOUIN|   540           0.00100        0.05000       -0.15000        0.45000
 BRILLOUIN|   541           0.00100        0.05000       -0.05000       -0.45000
 BRILLOUIN|   542           0.00100        0.05000       -0.05000       -0.35000
 BRILLOUIN|   543           0.00100        0.05000       -0.05000       -0.25000
 BRILLOUIN|   544           0.00100        0.05000       -0.05000       -0.15000
 BRILLOUIN|   545           0.00100        0.05000       -0.05000       -0.05000
 BRILLOUIN|   546           0.00100        0.05000       -0.05000        0.05000
 BRILLOUIN|   547           0.00100        0.05000       -0.05000        0.15000
 BRILLOUIN|   548           0.00100        0.05000       -0.05000        0.25000
 BRILLOUIN|   549           0.00100        0.05000       -0.05000        0.35000
 BRILLOUIN|   550           0.00100        0.05000       -0.05000        0.45000
 BRILLOUIN|   551           0.00100        0.05000        0.05000       -0.45000
 BRILLOUIN|   552           0.00100        0.05000        0.05000       -0.35000
 BRILLOUIN|   553           0.00100        0.05000        0.05000       -0.25000
 BRILLOUIN|   554           0.00100        0.05000        0.05000       -0.15000
 BRILLOUIN|   555           0.00100        0.05000        0.05000       -0.05000
 BRILLOUIN|   556           0.00100        0.05000        0.05000        0.05000
 BRILLOUIN|   557           0.00100        0.05000        0.05000        0.15000
 BRILLOUIN|   558           0.00100        0.05000        0.05000        0.25000
 BRILLOUIN|   559           0.00100        0.05000        0.05000        0.35000
 BRILLOUIN|   560           0.00100        0.05000        0.05000        0.45000
 BRILLOUIN|   561           0.00100        0.05000        0.15000       -0.45000
 BRILLOUIN|   562           0.00100        0.05000        0.15000       -0.35000
 BRILLOUIN|   563           0.00100        0.05000        0.15000       -0.25000
 BRILLOUIN|   564           0.00100        0.05000        0.15000       -0.15000
 BRILLOUIN|   565           0.00100        0.05000        0.15000       -0.05000
 BRILLOUIN|   566           0.00100        0.05000        0.15000        0.05000
 BRILLOUIN|   567           0.00100        0.05000        0.15000        0.15000
 BRILLOUIN|   568           0.00100        0.05000        0.15000        0.25000
 BRILLOUIN|   569           0.00100        0.05000        0.15000        0.35000
 BRILLOUIN|   570           0.00100        0.05000        0.15000        0.45000
 BRILLOUIN|   571           0.00100        0.05000        0.25000       -0.45000
 BRILLOUIN|   572           0.00100        0.05000        0.25000       -0.35000
 BRILLOUIN|   573           0.00100        0.05000        0.25000       -0.25000
 BRILLOUIN|   574           0.00100        0.05000        0.25000       -0.15000
 BRILLOUIN|   575           0.00100        0.05000        0.25000       -0.05000
 BRILLOUIN|   576           0.00100        0.05000        0.25000        0.05000
 BRILLOUIN|   577           0.00100        0.05000        0.25000        0.15000
 BRILLOUIN|   578           0.00100        0.05000        0.25000        0.25000
 BRILLOUIN|   579           0.00100        0.05000        0.25000        0.35000
 BRILLOUIN|   580           0.00100        0.05000        0.25000        0.45000
 BRILLOUIN|   581           0.00100        0.05000        0.35000       -0.45000
 BRILLOUIN|   582           0.00100        0.05000        0.35000       -0.35000
 BRILLOUIN|   583           0.00100        0.05000        0.35000       -0.25000
 BRILLOUIN|   584           0.00100        0.05000        0.35000       -0.15000
 BRILLOUIN|   585           0.00100        0.05000        0.35000       -0.05000
 BRILLOUIN|   586           0.00100        0.05000        0.35000        0.05000
 BRILLOUIN|   587           0.00100        0.05000        0.35000        0.15000
 BRILLOUIN|   588           0.00100        0.05000        0.35000        0.25000
 BRILLOUIN|   589           0.00100        0.05000        0.35000        0.35000
 BRILLOUIN|   590           0.00100        0.05000        0.35000        0.45000
 BRILLOUIN|   591           0.00100        0.05000        0.45000       -0.45000
 BRILLOUIN|   592           0.00100        0.05000        0.45000       -0.35000
 BRILLOUIN|   593           0.00100        0.05000        0.45000       -0.25000
 BRILLOUIN|   594           0.00100        0.05000        0.45000       -0.15000
 BRILLOUIN|   595           0.00100        0.05000        0.45000       -0.05000
 BRILLOUIN|   596           0.00100        0.05000        0.45000        0.05000
 BRILLOUIN|   597           0.00100        0.05000        0.45000        0.15000
 BRILLOUIN|   598           0.00100        0.05000        0.45000        0.25000
 BRILLOUIN|   599           0.00100        0.05000        0.45000        0.35000
 BRILLOUIN|   600           0.00100        0.05000        0.45000        0.45000
 BRILLOUIN|   601           0.00100        0.15000       -0.45000       -0.45000
 BRILLOUIN|   602           0.00100        0.15000       -0.45000       -0.35000
 BRILLOUIN|   603           0.00100        0.15000       -0.45000       -0.25000
 BRILLOUIN|   604           0.00100        0.15000       -0.45000       -0.15000
 BRILLOUIN|   605           0.00100        0.15000       -0.45000       -0.05000
 BRILLOUIN|   606           0.00100        0.15000       -0.45000        0.05000
 BRILLOUIN|   607           0.00100        0.15000       -0.45000        0.15000
 BRILLOUIN|   608           0.00100        0.15000       -0.45000        0.25000
 BRILLOUIN|   609           0.00100        0.15000       -0.45000        0.35000
 BRILLOUIN|   610           0.00100        0.15000       -0.45000        0.45000
 BRILLOUIN|   611           0.00100        0.15000       -0.35000       -0.45000
 BRILLOUIN|   612           0.00100        0.15000       -0.35000       -0.35000
 BRILLOUIN|   613           0.00100        0.15000       -0.35000       -0.25000
 BRILLOUIN|   614           0.00100        0.15000       -0.35000       -0.15000
 BRILLOUIN|   615           0.00100        0.15000       -0.35000       -0.05000
 BRILLOUIN|   616           0.00100        0.15000       -0.35000        0.05000
 BRILLOUIN|   617           0.00100        0.15000       -0.35000        0.15000
 BRILLOUIN|   618           0.00100        0.15000       -0.35000        0.25000
 BRILLOUIN|   619           0.00100        0.15000       -0.35000        0.35000
 BRILLOUIN|   620           0.00100        0.15000       -0.35000        0.45000
 BRILLOUIN|   621           0.00100        0.15000       -0.25000       -0.45000
 BRILLOUIN|   622           0.00100        0.15000       -0.25000       -0.35000
 BRILLOUIN|   623           0.00100        0.15000       -0.25000       -0.25000
 BRILLOUIN|   624           0.00100        0.15000       -0.25000       -0.15000
 BRILLOUIN|   625           0.00100        0.15000       -0.25000       -0.05000
 BRILLOUIN|   626           0.00100        0.15000       -0.25000        0.05000
 BRILLOUIN|   627           0.00100        0.15000       -0.25000        0.15000
 BRILLOUIN|   628           0.00100        0.15000       -0.25000        0.25000
 BRILLOUIN|   629           0.00100        0.15000       -0.25000        0.35000
 BRILLOUIN|   630           0.00100        0.15000       -0.25000        0.45000
 BRILLOUIN|   631           0.00100        0.15000       -0.15000       -0.45000
 BRILLOUIN|   632           0.00100        0.15000       -0.15000       -0.35000
 BRILLOUIN|   633           0.00100        0.15000       -0.15000       -0.25000
 BRILLOUIN|   634           0.00100        0.15000       -0.15000       -0.15000
 BRILLOUIN|   635           0.00100        0.15000       -0.15000       -0.05000
 BRILLOUIN|   636           0.00100        0.15000       -0.15000        0.05000
 BRILLOUIN|   637           0.00100        0.15000       -0.15000        0.15000
 BRILLOUIN|   638           0.00100        0.15000       -0.15000        0.25000
 BRILLOUIN|   639           0.00100        0.15000       -0.15000        0.35000
 BRILLOUIN|   640           0.00100        0.15000       -0.15000        0.45000
 BRILLOUIN|   641           0.00100        0.15000       -0.05000       -0.45000
 BRILLOUIN|   642           0.00100        0.15000       -0.05000       -0.35000
 BRILLOUIN|   643           0.00100        0.15000       -0.05000       -0.25000
 BRILLOUIN|   644           0.00100        0.15000       -0.05000       -0.15000
 BRILLOUIN|   645           0.00100        0.15000       -0.05000       -0.05000
 BRILLOUIN|   646           0.00100        0.15000       -0.05000        0.05000
 BRILLOUIN|   647           0.00100        0.15000       -0.05000        0.15000
 BRILLOUIN|   648           0.00100        0.15000       -0.05000        0.25000
 BRILLOUIN|   649           0.00100        0.15000       -0.05000        0.35000
 BRILLOUIN|   650           0.00100        0.15000       -0.05000        0.45000
 BRILLOUIN|   651           0.00100        0.15000        0.05000       -0.45000
 BRILLOUIN|   652           0.00100        0.15000        0.05000       -0.35000
 BRILLOUIN|   653           0.00100        0.15000        0.05000       -0.25000
 BRILLOUIN|   654           0.00100        0.15000        0.05000       -0.15000
 BRILLOUIN|   655           0.00100        0.15000        0.05000       -0.05000
 BRILLOUIN|   656           0.00100        0.15000        0.05000        0.05000
 BRILLOUIN|   657           0.00100        0.15000        0.05000        0.15000
 BRILLOUIN|   658           0.00100        0.15000        0.05000        0.25000
 BRILLOUIN|   659           0.00100        0.15000        0.05000        0.35000
 BRILLOUIN|   660           0.00100        0.15000        0.05000        0.45000
 BRILLOUIN|   661           0.00100        0.15000        0.15000       -0.45000
 BRILLOUIN|   662           0.00100        0.15000        0.15000       -0.35000
 BRILLOUIN|   663           0.00100        0.15000        0.15000       -0.25000
 BRILLOUIN|   664           0.00100        0.15000        0.15000       -0.15000
 BRILLOUIN|   665           0.00100        0.15000        0.15000       -0.05000
 BRILLOUIN|   666           0.00100        0.15000        0.15000        0.05000
 BRILLOUIN|   667           0.00100        0.15000        0.15000        0.15000
 BRILLOUIN|   668           0.00100        0.15000        0.15000        0.25000
 BRILLOUIN|   669           0.00100        0.15000        0.15000        0.35000
 BRILLOUIN|   670           0.00100        0.15000        0.15000        0.45000
 BRILLOUIN|   671           0.00100        0.15000        0.25000       -0.45000
 BRILLOUIN|   672           0.00100        0.15000        0.25000       -0.35000
 BRILLOUIN|   673           0.00100        0.15000        0.25000       -0.25000
 BRILLOUIN|   674           0.00100        0.15000        0.25000       -0.15000
 BRILLOUIN|   675           0.00100        0.15000        0.25000       -0.05000
 BRILLOUIN|   676           0.00100        0.15000        0.25000        0.05000
 BRILLOUIN|   677           0.00100        0.15000        0.25000        0.15000
 BRILLOUIN|   678           0.00100        0.15000        0.25000        0.25000
 BRILLOUIN|   679           0.00100        0.15000        0.25000        0.35000
 BRILLOUIN|   680           0.00100        0.15000        0.25000        0.45000
 BRILLOUIN|   681           0.00100        0.15000        0.35000       -0.45000
 BRILLOUIN|   682           0.00100        0.15000        0.35000       -0.35000
 BRILLOUIN|   683           0.00100        0.15000        0.35000       -0.25000
 BRILLOUIN|   684           0.00100        0.15000        0.35000       -0.15000
 BRILLOUIN|   685           0.00100        0.15000        0.35000       -0.05000
 BRILLOUIN|   686           0.00100        0.15000        0.35000        0.05000
 BRILLOUIN|   687           0.00100        0.15000        0.35000        0.15000
 BRILLOUIN|   688           0.00100        0.15000        0.35000        0.25000
 BRILLOUIN|   689           0.00100        0.15000        0.35000        0.35000
 BRILLOUIN|   690           0.00100        0.15000        0.35000        0.45000
 BRILLOUIN|   691           0.00100        0.15000        0.45000       -0.45000
 BRILLOUIN|   692           0.00100        0.15000        0.45000       -0.35000
 BRILLOUIN|   693           0.00100        0.15000        0.45000       -0.25000
 BRILLOUIN|   694           0.00100        0.15000        0.45000       -0.15000
 BRILLOUIN|   695           0.00100        0.15000        0.45000       -0.05000
 BRILLOUIN|   696           0.00100        0.15000        0.45000        0.05000
 BRILLOUIN|   697           0.00100        0.15000        0.45000        0.15000
 BRILLOUIN|   698           0.00100        0.15000        0.45000        0.25000
 BRILLOUIN|   699           0.00100        0.15000        0.45000        0.35000
 BRILLOUIN|   700           0.00100        0.15000        0.45000        0.45000
 BRILLOUIN|   701           0.00100        0.25000       -0.45000       -0.45000
 BRILLOUIN|   702           0.00100        0.25000       -0.45000       -0.35000
 BRILLOUIN|   703           0.00100        0.25000       -0.45000       -0.25000
 BRILLOUIN|   704           0.00100        0.25000       -0.45000       -0.15000
 BRILLOUIN|   705           0.00100        0.25000       -0.45000       -0.05000
 BRILLOUIN|   706           0.00100        0.25000       -0.45000        0.05000
 BRILLOUIN|   707           0.00100        0.25000       -0.45000        0.15000
 BRILLOUIN|   708           0.00100        0.25000       -0.45000        0.25000
 BRILLOUIN|   709           0.00100        0.25000       -0.45000        0.35000
 BRILLOUIN|   710           0.00100        0.25000       -0.45000        0.45000
 BRILLOUIN|   711           0.00100        0.25000       -0.35000       -0.45000
 BRILLOUIN|   712           0.00100        0.25000       -0.35000       -0.35000
 BRILLOUIN|   713           0.00100        0.25000       -0.35000       -0.25000
 BRILLOUIN|   714           0.00100        0.25000       -0.35000       -0.15000
 BRILLOUIN|   715           0.00100        0.25000       -0.35000       -0.05000
 BRILLOUIN|   716           0.00100        0.25000       -0.35000        0.05000
 BRILLOUIN|   717           0.00100        0.25000       -0.35000        0.15000
 BRILLOUIN|   718           0.00100        0.25000       -0.35000        0.25000
 BRILLOUIN|   719           0.00100        0.25000       -0.35000        0.35000
 BRILLOUIN|   720           0.00100        0.25000       -0.35000        0.45000
 BRILLOUIN|   721           0.00100        0.25000       -0.25000       -0.45000
 BRILLOUIN|   722           0.00100        0.25000       -0.25000       -0.35000
 BRILLOUIN|   723           0.00100        0.25000       -0.25000       -0.25000
 BRILLOUIN|   724           0.00100        0.25000       -0.25000       -0.15000
 BRILLOUIN|   725           0.00100        0.25000       -0.25000       -0.05000
 BRILLOUIN|   726           0.00100        0.25000       -0.25000        0.05000
 BRILLOUIN|   727           0.00100        0.25000       -0.25000        0.15000
 BRILLOUIN|   728           0.00100        0.25000       -0.25000        0.25000
 BRILLOUIN|   729           0.00100        0.25000       -0.25000        0.35000
 BRILLOUIN|   730           0.00100        0.25000       -0.25000        0.45000
 BRILLOUIN|   731           0.00100        0.25000       -0.15000       -0.45000
 BRILLOUIN|   732           0.00100        0.25000       -0.15000       -0.35000
 BRILLOUIN|   733           0.00100        0.25000       -0.15000       -0.25000
 BRILLOUIN|   734           0.00100        0.25000       -0.15000       -0.15000
 BRILLOUIN|   735           0.00100        0.25000       -0.15000       -0.05000
 BRILLOUIN|   736           0.00100        0.25000       -0.15000        0.05000
 BRILLOUIN|   737           0.00100        0.25000       -0.15000        0.15000
 BRILLOUIN|   738           0.00100        0.25000       -0.15000        0.25000
 BRILLOUIN|   739           0.00100        0.25000       -0.15000        0.35000
 BRILLOUIN|   740           0.00100        0.25000       -0.15000        0.45000
 BRILLOUIN|   741           0.00100        0.25000       -0.05000       -0.45000
 BRILLOUIN|   742           0.00100        0.25000       -0.05000       -0.35000
 BRILLOUIN|   743           0.00100        0.25000       -0.05000       -0.25000
 BRILLOUIN|   744           0.00100        0.25000       -0.05000       -0.15000
 BRILLOUIN|   745           0.00100        0.25000       -0.05000       -0.05000
 BRILLOUIN|   746           0.00100        0.25000       -0.05000        0.05000
 BRILLOUIN|   747           0.00100        0.25000       -0.05000        0.15000
 BRILLOUIN|   748           0.00100        0.25000       -0.05000        0.25000
 BRILLOUIN|   749           0.00100        0.25000       -0.05000        0.35000
 BRILLOUIN|   750           0.00100        0.25000       -0.05000        0.45000
 BRILLOUIN|   751           0.00100        0.25000        0.05000       -0.45000
 BRILLOUIN|   752           0.00100        0.25000        0.05000       -0.35000
 BRILLOUIN|   753           0.00100        0.25000        0.05000       -0.25000
 BRILLOUIN|   754           0.00100        0.25000        0.05000       -0.15000
 BRILLOUIN|   755           0.00100        0.25000        0.05000       -0.05000
 BRILLOUIN|   756           0.00100        0.25000        0.05000        0.05000
 BRILLOUIN|   757           0.00100        0.25000        0.05000        0.15000
 BRILLOUIN|   758           0.00100        0.25000        0.05000        0.25000
 BRILLOUIN|   759           0.00100        0.25000        0.05000        0.35000
 BRILLOUIN|   760           0.00100        0.25000        0.05000        0.45000
 BRILLOUIN|   761           0.00100        0.25000        0.15000       -0.45000
 BRILLOUIN|   762           0.00100        0.25000        0.15000       -0.35000
 BRILLOUIN|   763           0.00100        0.25000        0.15000       -0.25000
 BRILLOUIN|   764           0.00100        0.25000        0.15000       -0.15000
 BRILLOUIN|   765           0.00100        0.25000        0.15000       -0.05000
 BRILLOUIN|   766           0.00100        0.25000        0.15000        0.05000
 BRILLOUIN|   767           0.00100        0.25000        0.15000        0.15000
 BRILLOUIN|   768           0.00100        0.25000        0.15000        0.25000
 BRILLOUIN|   769           0.00100        0.25000        0.15000        0.35000
 BRILLOUIN|   770           0.00100        0.25000        0.15000        0.45000
 BRILLOUIN|   771           0.00100        0.25000        0.25000       -0.45000
 BRILLOUIN|   772           0.00100        0.25000        0.25000       -0.35000
 BRILLOUIN|   773           0.00100        0.25000        0.25000       -0.25000
 BRILLOUIN|   774           0.00100        0.25000        0.25000       -0.15000
 BRILLOUIN|   775           0.00100        0.25000        0.25000       -0.05000
 BRILLOUIN|   776           0.00100        0.25000        0.25000        0.05000
 BRILLOUIN|   777           0.00100        0.25000        0.25000        0.15000
 BRILLOUIN|   778           0.00100        0.25000        0.25000        0.25000
 BRILLOUIN|   779           0.00100        0.25000        0.25000        0.35000
 BRILLOUIN|   780           0.00100        0.25000        0.25000        0.45000
 BRILLOUIN|   781           0.00100        0.25000        0.35000       -0.45000
 BRILLOUIN|   782           0.00100        0.25000        0.35000       -0.35000
 BRILLOUIN|   783           0.00100        0.25000        0.35000       -0.25000
 BRILLOUIN|   784           0.00100        0.25000        0.35000       -0.15000
 BRILLOUIN|   785           0.00100        0.25000        0.35000       -0.05000
 BRILLOUIN|   786           0.00100        0.25000        0.35000        0.05000
 BRILLOUIN|   787           0.00100        0.25000        0.35000        0.15000
 BRILLOUIN|   788           0.00100        0.25000        0.35000        0.25000
 BRILLOUIN|   789           0.00100        0.25000        0.35000        0.35000
 BRILLOUIN|   790           0.00100        0.25000        0.35000        0.45000
 BRILLOUIN|   791           0.00100        0.25000        0.45000       -0.45000
 BRILLOUIN|   792           0.00100        0.25000        0.45000       -0.35000
 BRILLOUIN|   793           0.00100        0.25000        0.45000       -0.25000
 BRILLOUIN|   794           0.00100        0.25000        0.45000       -0.15000
 BRILLOUIN|   795           0.00100        0.25000        0.45000       -0.05000
 BRILLOUIN|   796           0.00100        0.25000        0.45000        0.05000
 BRILLOUIN|   797           0.00100        0.25000        0.45000        0.15000
 BRILLOUIN|   798           0.00100        0.25000        0.45000        0.25000
 BRILLOUIN|   799           0.00100        0.25000        0.45000        0.35000
 BRILLOUIN|   800           0.00100        0.25000        0.45000        0.45000
 BRILLOUIN|   801           0.00100        0.35000       -0.45000       -0.45000
 BRILLOUIN|   802           0.00100        0.35000       -0.45000       -0.35000
 BRILLOUIN|   803           0.00100        0.35000       -0.45000       -0.25000
 BRILLOUIN|   804           0.00100        0.35000       -0.45000       -0.15000
 BRILLOUIN|   805           0.00100        0.35000       -0.45000       -0.05000
 BRILLOUIN|   806           0.00100        0.35000       -0.45000        0.05000
 BRILLOUIN|   807           0.00100        0.35000       -0.45000        0.15000
 BRILLOUIN|   808           0.00100        0.35000       -0.45000        0.25000
 BRILLOUIN|   809           0.00100        0.35000       -0.45000        0.35000
 BRILLOUIN|   810           0.00100        0.35000       -0.45000        0.45000
 BRILLOUIN|   811           0.00100        0.35000       -0.35000       -0.45000
 BRILLOUIN|   812           0.00100        0.35000       -0.35000       -0.35000
 BRILLOUIN|   813           0.00100        0.35000       -0.35000       -0.25000
 BRILLOUIN|   814           0.00100        0.35000       -0.35000       -0.15000
 BRILLOUIN|   815           0.00100        0.35000       -0.35000       -0.05000
 BRILLOUIN|   816           0.00100        0.35000       -0.35000        0.05000
 BRILLOUIN|   817           0.00100        0.35000       -0.35000        0.15000
 BRILLOUIN|   818           0.00100        0.35000       -0.35000        0.25000
 BRILLOUIN|   819           0.00100        0.35000       -0.35000        0.35000
 BRILLOUIN|   820           0.00100        0.35000       -0.35000        0.45000
 BRILLOUIN|   821           0.00100        0.35000       -0.25000       -0.45000
 BRILLOUIN|   822           0.00100        0.35000       -0.25000       -0.35000
 BRILLOUIN|   823           0.00100        0.35000       -0.25000       -0.25000
 BRILLOUIN|   824           0.00100        0.35000       -0.25000       -0.15000
 BRILLOUIN|   825           0.00100        0.35000       -0.25000       -0.05000
 BRILLOUIN|   826           0.00100        0.35000       -0.25000        0.05000
 BRILLOUIN|   827           0.00100        0.35000       -0.25000        0.15000
 BRILLOUIN|   828           0.00100        0.35000       -0.25000        0.25000
 BRILLOUIN|   829           0.00100        0.35000       -0.25000        0.35000
 BRILLOUIN|   830           0.00100        0.35000       -0.25000        0.45000
 BRILLOUIN|   831           0.00100        0.35000       -0.15000       -0.45000
 BRILLOUIN|   832           0.00100        0.35000       -0.15000       -0.35000
 BRILLOUIN|   833           0.00100        0.35000       -0.15000       -0.25000
 BRILLOUIN|   834           0.00100        0.35000       -0.15000       -0.15000
 BRILLOUIN|   835           0.00100        0.35000       -0.15000       -0.05000
 BRILLOUIN|   836           0.00100        0.35000       -0.15000        0.05000
 BRILLOUIN|   837           0.00100        0.35000       -0.15000        0.15000
 BRILLOUIN|   838           0.00100        0.35000       -0.15000        0.25000
 BRILLOUIN|   839           0.00100        0.35000       -0.15000        0.35000
[...]
 *******************************************************************************

                    Reevaluating energy at the minimum

 CELL| Volume [angstrom^3]:                                            71.285942
 CELL| Vector a [angstrom]:       4.146     0.000     0.000   |a| =     4.146369
 CELL| Vector b [angstrom]:       0.000     4.146     0.000   |b| =     4.146369
 CELL| Vector c [angstrom]:       0.000     0.000     4.146   |c| =     4.146369
 CELL| Angle (b,c), alpha [degree]:                                    90.000000
 CELL| Angle (a,c), beta  [degree]:                                    90.000000
 CELL| Angle (a,b), gamma [degree]:                                    90.000000
 CELL| Requested initial symmetry:                                         CUBIC
 CELL| Numerically orthorhombic:                                             YES
 CELL| Periodicity                                                           XYZ

 Number of electrons:                                                         44
 Number of occupied orbitals:                                                 22
 Number of molecular orbitals:                                                36

 Number of orbital functions:                                                 36
 Number of independent orbital functions:                                     36

 Extrapolation method: initial_guess

 Atomic guess: The first density matrix is obtained in terms of atomic orbitals
               and electronic configurations assigned to each atomic kind

 Guess for atomic kind: Au

 Electronic structure
    Total number of core electrons                                         68.00
    Total number of valence electrons                                      11.00
    Total number of electrons                                              79.00
    Multiplicity                                                   not specified
    S   [  2.00  2.00  2.00  2.00  2.00] 1.00
    P   [  6.00  6.00  6.00  6.00]
    D   [ 10.00 10.00]10.00
    F   [ 14.00]


 *******************************************************************************
                  Iteration          Convergence                     Energy [au]
 *******************************************************************************
                          1         0.00000                     -33.033218197848

 Energy components [Hartree]           Total Energy ::          -33.033218197848
                                        Band Energy ::           -1.147505983145
                                     Kinetic Energy ::           24.744064437587
                                   Potential Energy ::          -57.777282635435
                                      Virial (-V/T) ::            2.334995642336
                                        Core Energy ::          -60.197309615487
                                          XC Energy ::           -5.116883226844
                                     Coulomb Energy ::           32.280974644483
                       Total Pseudopotential Energy ::          -85.042885173964
                       Local Pseudopotential Energy ::          -66.341694915099
                    Nonlocal Pseudopotential Energy ::          -18.701190258865
                                        Confinement ::            1.015111208892

 Orbital energies  State     L     Occupation   Energy[a.u.]          Energy[eV]

                       1     0          1.000      -0.213792           -5.817572

                       1     2         10.000      -0.093371           -2.540765


 Total Electron Density at R=0:                                         0.000035
 Re-scaling the density matrix to get the right number of electrons
                  # Electrons              Trace(P)               Scaling factor
                           44                44.000                        1.000


 SCF WAVEFUNCTION OPTIMIZATION

  Step     Update method      Time    Convergence         Total energy    Change
  ------------------------------------------------------------------------------
     1 Broy./Diag. 0.30E+00   18.6     0.23869364      -133.2228516908 -1.33E+02
     2 Broy./Diag. 0.30E+00   18.8     0.03500515      -136.0920465886 -2.87E+00
     3 Broy./Diag. 0.30E+00   18.8     0.03716628      -134.0171360862  2.07E+00
     4 Broy./Diag. 0.30E+00   18.8     0.00073366      -133.1577743312  8.59E-01
     5 Broy./Diag. 0.30E+00   18.8     0.00002972      -133.1444528900  1.33E-02
     6 Broy./Diag. 0.30E+00   18.8     0.00002257      -133.1460446850 -1.59E-03
     7 Broy./Diag. 0.30E+00   18.8     0.00000180      -133.1468053980 -7.61E-04
     8 Broy./Diag. 0.30E+00   18.8     0.00000060      -133.1467857626  1.96E-05
     9 Broy./Diag. 0.30E+00   18.8     0.00000004      -133.1467660877  1.97E-05

  *** SCF run converged in     9 steps ***


  Electronic density on regular grids:        -43.9999999985        0.0000000015
  Core density on regular grids:               43.9999999928       -0.0000000072
  Total charge density on r-space grids:       -0.0000000057
  Total charge density g-space grids:          -0.0000000057

  Overlap energy of the core charge distribution:               0.00000001641276
  Self energy of the core charge distribution:               -231.41335460772382
  Core Hamiltonian energy:                                     73.32812682474871
  Hartree energy:                                              45.72303811600221
  Exchange-correlation energy:                                -20.78449430871313
  Electronic entropic energy:                                  -0.00008212851456
  Fermi energy:                                                 0.34536956468909

  Total energy:                                              -133.14676608774391

 The electron density is written in cube file format to the file:

 dft_wfn-ELECTRON_DENSITY-1_3.cube

 !-----------------------------------------------------------------------------!
                     Mulliken Population Analysis

 #  Atom  Element  Kind  Atomic population                           Net charge
       1     Au       1         11.000000                             -0.000000
       2     Au       1         11.000000                              0.000000
       3     Au       1         11.000000                              0.000000
       4     Au       1         11.000000                              0.000000
 # Total charge                             44.000000                 -0.000000

 !-----------------------------------------------------------------------------!

 !-----------------------------------------------------------------------------!
                           Hirshfeld Charges

  #Atom  Element  Kind  Ref Charge     Population                    Net charge
      1       Au     1      11.000         11.000                        -0.000
      2       Au     1      11.000         11.000                        -0.000
      3       Au     1      11.000         11.000                        -0.000
      4       Au     1      11.000         11.000                        -0.000

  Total Charge                                                           -0.000
 !-----------------------------------------------------------------------------!

 ENERGY| Total FORCE_EVAL ( QS ) energy [a.u.]:             -133.146766087743913

 -------------------------------------------------------------------------------
 -                                                                             -
 -                                DBCSR STATISTICS                             -
 -                                                                             -
 -------------------------------------------------------------------------------
 COUNTER                                    TOTAL       BLAS       SMM       ACC
 flops inhomo. stacks                           0       0.0%      0.0%      0.0%
 flops total                         0.000000E+00       0.0%      0.0%      0.0%
 flops max/rank                      0.000000E+00       0.0%      0.0%      0.0%
 matmuls inhomo. stacks                         0       0.0%      0.0%      0.0%
 matmuls total                                  0       0.0%      0.0%      0.0%
 number of processed stacks                     0       0.0%      0.0%      0.0%
 average stack size                                     0.0       0.0       0.0
 marketing flops                     0.000000E+00
 -------------------------------------------------------------------------------
 -                                                                             -
 -                      DBCSR MESSAGE PASSING PERFORMANCE                      -
 -                                                                             -
 -------------------------------------------------------------------------------
 ROUTINE             CALLS      AVE VOLUME [Bytes]
 MP_Bcast                1                     12.
 MP_Allreduce        17976                      8.
 MP_Alltoall       3675220                  26372.
 -------------------------------------------------------------------------------

 -------------------------------------------------------------------------------
 -                                                                             -
 -                                DBM STATISTICS                               -
 -                                                                             -
 -------------------------------------------------------------------------------
    M  x    N  x    K                                          COUNT     PERCENT
 -------------------------------------------------------------------------------

 -------------------------------------------------------------------------------
 -                                                                             -
 -                                GRID STATISTICS                              -
 -                                                                             -
 -------------------------------------------------------------------------------
 LP    KERNEL             BACKEND                              COUNT     PERCENT
 4     collocate ortho    REF                                 243468      50.48%
 4     integrate ortho    REF                                 218640      45.33%
 7     integrate ortho    REF                                  19824       4.11%
 0     collocate general  REF                                    180       0.04%
 0     integrate general  REF                                    160       0.03%
 3     integrate general  REF                                     16       0.00%
 -------------------------------------------------------------------------------

 MEMORY| Estimated peak process memory [MiB]                                3569

 -------------------------------------------------------------------------------
 ----                             MULTIGRID INFO                            ----
 -------------------------------------------------------------------------------
 count for grid        1:          37024          cutoff [a.u.]          250.00
 count for grid        2:          27256          cutoff [a.u.]           83.33
 count for grid        3:          30040          cutoff [a.u.]           27.78
 count for grid        4:           7848          cutoff [a.u.]            9.26
 total gridlevel count  :         102168

 -------------------------------------------------------------------------------
 -                                                                             -
 -                         MESSAGE PASSING PERFORMANCE                         -
 -                                                                             -
 -------------------------------------------------------------------------------

 ROUTINE             CALLS      AVE VOLUME [Bytes]
 MP_Group               17
 MP_Bcast          1632101                    276.
 MP_Allreduce         9437                   1409.
 MP_Sync               604
 MP_Alltoall           779
 MP_ISendRecv        38665                   6033.
 MP_Wait           1399247
 MP_comm_split           3
 MP_ISend          1908137                    136.
 MP_IRecv          1908205                    136.
 MP_Recv             10309                    863.
 MP_Write_All            5                   4553.
 -------------------------------------------------------------------------------


 -------------------------------------------------------------------------------
 -                                                                             -
 -                           R E F E R E N C E S                               -
 -                                                                             -
 -------------------------------------------------------------------------------
 
 CP2K version 2022.1 (Development Version), the CP2K developers group (2022).
 CP2K is freely available from https://www.cp2k.org/ .

 Kuehne,Thomas D.; Iannuzzi,Marcella; Del Ben,Mauro;
 Rybkin,Vladimir V.; Seewald,Patrick; Stein,Frederick; Laino,Teodoro;
 Khaliullin,Rustam Z.; Schuett,Ole; Schiffmann,Florian; Golze,Dorothea;
 Wilhelm,Jan; Chulkov,Sergey; Bani-Hashemian,Mohammad Hossein;
 Weber,Valery; Borstnik,Urban; Taillefumier,Mathieu;
 Jakobovits,Alice Shoshana; Lazzaro,Alfio; Pabst,Hans; Mueller,Tiziano;
 Schade,Robert; Guidon,Manuel; Andermatt,Samuel; Holmberg,Nico;
 Schenter,Gregory K.; Hehn,Anna; Bussy,Augustin; Belleflamme,Fabian;
 Tabacchi,Gloria; Gloess,Andreas; Lass,Michael; Bethune,Iain;
 Mundy,Christopher J.; Plessl,Christian; Watkins,Matt;
 VandeVondele,Joost; Krack,Matthias; Hutter,Juerg. 
 The Journal of Chemical Physics, 152 (19), (2020). 
 CP2K: An electronic structure and molecular dynamics software package -
 Quickstep: Efficient and accurate electronic structure calculations.
 https://doi.org/10.1063/5.0007045

 Togo, Atsushi; Tanaka, Isao. arXiv, 1808.01590 (2018). 
 Spglib : a software library for crystal symmetry search.
 https://doi.org/xxx

 Schuett, Ole; Messmer, Peter; Hutter, Juerg; VandeVondele, Joost. 
 Electronic Structure Calculations on Graphics Processing Units, John
 Wiley & Sons, Ltd, 173-190 (2016). 
 GPU-Accelerated Sparse Matrix-Matrix Multiplication for
 Linear Scaling Density Functional Theory.
 https://doi.org/10.1002/9781118670712.ch8

 Heinecke, A; Henry, G; Hutchinson, M; Pabst, H. 
 Proceedings of Intl. Supercomputing Conference, 981-991 (2016). 
 LIBXSMM: Accelerating Small Matrix Multiplications
 by Runtime Code Generation.
 https://doi.org/10.1109/SC.2016.83

 Borstnik, U; VandeVondele, J; Weber, V; Hutter, J. 
 PARALLEL COMPUTING, 40 (5-6), 47-58 (2014). 
 Sparse matrix multiplication: The distributed block-compressed sparse
 row library.
 https://doi.org/10.1016/j.parco.2014.03.012

 Hutter, J; Iannuzzi, M; Schiffmann, F; VandeVondele, J. 
 WIREs Comput Mol Sci., 4 (1), 15-25 (2014). 
 CP2K: atomistic simulations of condensed matter systems.
 https://doi.org/10.1002/wcms.1159

 VandeVondele, J; Hutter, J. 
 JOURNAL OF CHEMICAL PHYSICS, 127 (11), 114105 (2007). 
 Gaussian basis sets for accurate calculations on molecular systems in
 gas and condensed phases.
 https://doi.org/10.1063/1.2770708

 Krack, M. 
 THEORETICAL CHEMISTRY ACCOUNTS, 114 (1-3), 145-152 (2005). 
 Pseudopotentials for H to Kr optimized for gradient-corrected
 exchange-correlation functionals.
 https://doi.org/10.1007/s00214-005-0655-y

 VandeVondele, J; Krack, M; Mohamed, F; Parrinello, M; Chassaing, T;
 Hutter, J. COMPUTER PHYSICS COMMUNICATIONS, 167 (2), 103-128 (2005). 
 QUICKSTEP: Fast and accurate density functional calculations using a
 mixed Gaussian and plane waves approach.
 https://doi.org/10.1016/j.cpc.2004.12.014

 Frigo, M; Johnson, SG. 
 PROCEEDINGS OF THE IEEE, 93 (2), 216-231 (2005). 
 The design and implementation of FFTW3.
 https://doi.org/10.1109/JPROC.2004.840301

 Hartwigsen, C; Goedecker, S; Hutter, J. 
 PHYSICAL REVIEW B, 58 (7), 3641-3662 (1998). 
 Relativistic separable dual-space Gaussian pseudopotentials from H to Rn.
 https://doi.org/10.1103/PhysRevB.58.3641

 Lippert, G; Hutter, J; Parrinello, M. 
 MOLECULAR PHYSICS, 92 (3), 477-487 (1997). 
 A hybrid Gaussian and plane wave density functional scheme.
 https://doi.org/10.1080/002689797170220

 Goedecker, S; Teter, M; Hutter, J. 
 PHYSICAL REVIEW B, 54 (3), 1703-1710 (1996). 
 Separable dual-space Gaussian pseudopotentials.
 https://doi.org/10.1103/PhysRevB.54.1703


 -------------------------------------------------------------------------------
 -                                                                             -
 -                                T I M I N G                                  -
 -                                                                             -
 -------------------------------------------------------------------------------
 SUBROUTINE                       CALLS  ASD         SELF TIME        TOTAL TIME
                                MAXIMUM       AVERAGE  MAXIMUM  AVERAGE  MAXIMUM
 CP2K                                 1  1.0    0.037    0.149  839.682  839.686
 cp_cell_opt                          1  2.0    0.001    0.003  839.362  839.365
 geoopt_bfgs                          1  3.0    0.003    0.020  839.361  839.364
 cp_eval_at                           5  4.0    0.001    0.002  839.233  839.236
 qs_energies                          5  5.8    0.003    0.003  837.215  837.220
 scf_env_do_scf                       5  6.8    0.000    0.000  821.567  821.599
 scf_env_do_scf_inner_loop           44  7.8    0.009    0.348  821.566  821.599
 qs_scf_new_mos_kp                   44  8.8    0.000    0.000  814.953  815.124
 do_general_diag_kp                  44  9.8    0.912    1.029  814.952  815.124
 qs_forces                            4  5.0    0.001    0.001  668.881  668.883
 cp_cfm_geeig                     44000 10.8    0.380    0.472  362.509  362.644
 cp_cfm_heevd                     44000 11.8  329.011  329.855  329.011  329.855
 copy_dbcsr_to_fm                176935 10.8    1.237    1.393  195.602  195.983
 dbcsr_desymmetrize_deep         352935 11.3    3.288    4.002  175.433  177.033
 dbcsr_complete_redistribute     272935 12.1    6.138    7.444  164.829  165.698
 mp_alltoall_d11v               1877610 13.2  120.369  121.528  120.369  121.528
 mp_alltoall_i11v               1171740 12.8  112.387  112.522  112.387  112.522
 kpoint_density_matrices             48 10.6    0.310    0.337   92.893   92.978
 parallel_gemm_fm                192003 11.6    0.127    0.144   92.542   92.647
 parallel_gemm_fm_cosma          192003 12.6   92.415   92.526   92.415   92.526
 hybrid_alltoall_any             352935 12.3    1.141    1.275   68.806   69.623
 kpoint_density_transform            48 10.6    0.203    0.228   61.802   61.842
 mp_alltoall_i22                 625870 12.6   55.158   59.806   55.158   59.806
 copy_fm_to_dbcsr                 96000 11.6    0.189    0.211   54.723   55.077
 mp_cart_sub                     353894 12.8   19.256   19.348   19.256   19.348
 rskp_transform                   88000 10.8    0.828   18.655    0.828   18.655
 -------------------------------------------------------------------------------

 The number of warnings for this run is : 1
 
 -------------------------------------------------------------------------------
  **** **** ******  **  PROGRAM ENDED AT                 2022-10-24 15:41:57.152
 ***** ** ***  *** **   PROGRAM RAN ON                     cn1065.scarf.rl.ac.uk
 **    ****   ******    PROGRAM RAN BY                                 scarf1157
 ***** **    ** ** **   PROGRAM PROCESS ID                                 44535
  **** **  *******  **  PROGRAM STOPPED IN /work4/scd/scarf1157/work/testing/cp2
                                           k-smeagol/bdt/cp2k/bulk/cell_opt/1
