 DBCSR| CPU Multiplication driver                                           XSMM
 DBCSR| Multrec recursion limit                                              512
 DBCSR| Multiplication stack size                                           1000
 DBCSR| Maximum elements for images                                    UNLIMITED
 DBCSR| Multiplicative factor virtual images                                   1
 DBCSR| Use multiplication densification                                       T
 DBCSR| Multiplication size stacks                                             3
 DBCSR| Use memory pool for CPU allocation                                     F
 DBCSR| Number of 3D layers                                               SINGLE
 DBCSR| Use MPI memory allocation                                              F
 DBCSR| Use RMA algorithm                                                      F
 DBCSR| Use Communication thread                                               T
 DBCSR| Communication thread load                                             87
 DBCSR| MPI: My node id                                                        0
 DBCSR| MPI: Number of nodes                                                 240
 DBCSR| OMP: Current number of threads                                         1
 DBCSR| OMP: Max number of threads                                             1
 DBCSR| Split modifier for TAS multiplication algorithm                  1.0E+00


  **** **** ******  **  PROGRAM STARTED AT               2023-03-12 17:33:57.046
 ***** ** ***  *** **   PROGRAM STARTED ON                 cn1144.scarf.rl.ac.uk
 **    ****   ******    PROGRAM STARTED BY                             scarf1157
 ***** **    ** ** **   PROGRAM PROCESS ID                                 65385
  **** **  *******  **  PROGRAM STARTED IN /work4/scd/scarf1157/work/testing/cp2
                                           k-smeagol/bdt/cp2k/hollow-site/transp
                                           ort-cp2k/5-4/geometry-ordered/3x3-4/s
                                           z/bulk_layers-4/transmission/exp/capa
                                           citor/sergey/kpoints_bulk-31_em-1-1-1

 CP2K| version string:                 CP2K version 2022.1 (Development Version)
 CP2K| source code revision number:                                  git:e136ce5
 CP2K| cp2kflags: omp fftw3 libxc parallel mpi3 scalapack xsmm spglib           
 CP2K| is freely available from                            https://www.cp2k.org/
 CP2K| Program compiled at                          Thu  9 Mar 17:17:16 GMT 2023
 CP2K| Program compiled on                                 cn1108.scarf.rl.ac.uk
 CP2K| Program compiled for                                                local
 CP2K| Data directory path    /home/vol07/scarf1157/code/smeagol/cp2k-smeagol/sc
 CP2K| Input file name                                                  3_0V.inp

 GLOBAL| Force Environment number                                              1
 GLOBAL| Basis set file name                                        BASIS_MOLOPT
 GLOBAL| Potential file name                                      GTH_POTENTIALS
 GLOBAL| MM Potential file name                                     MM_POTENTIAL
 GLOBAL| Coordinate file name                                             em.xyz
 GLOBAL| Method name                                                        CP2K
 GLOBAL| Project name                                                         0V
 GLOBAL| Run type                                                         ENERGY
 GLOBAL| FFT library                                                       FFTW3
 GLOBAL| Diagonalization library                                       ScaLAPACK
 GLOBAL| Orthonormality check for eigenvectors                          DISABLED
 GLOBAL| Matrix multiplication library                                 ScaLAPACK
 GLOBAL| All-to-all communication in single precision                          F
 GLOBAL| FFTs using library dependent lengths                                  T
 GLOBAL| Grid backend                                                       AUTO
 GLOBAL| Global print level                                               MEDIUM
 GLOBAL| MPI I/O enabled                                                       T
 GLOBAL| Total number of message passing processes                           240
 GLOBAL| Number of threads for this process                                    1
 GLOBAL| This output is from process                                           0
 GLOBAL| Stack size for threads created by OpenMP (OMP_STACKSIZE)        default
 GLOBAL| CPU model name                         AMD EPYC 7502P 32-Core Processor
 GLOBAL| CPUID                                                              1002

 MEMORY| system memory details [Kb]
 MEMORY|                        rank 0           min           max       average
 MEMORY| MemTotal            263896984     263896980     263896984     263896981
 MEMORY| MemFree             192692336      62057224     229396804     187066724
 MEMORY| Buffers                  2568          2484          2572          2557
 MEMORY| Cached               51873260      17837044     184215976      59490137
 MEMORY| Slab                  1256012       1111428       2003424       1289736
 MEMORY| SReclaimable           718564        590168       1475500        765969
 MEMORY| MemLikelyFree       245286728     245286728     247826584     247325387


 *** Fundamental physical constants (SI units) ***

 *** Literature: B. J. Mohr and B. N. Taylor,
 ***             CODATA recommended values of the fundamental physical
 ***             constants: 2006, Web Version 5.1
 ***             http://physics.nist.gov/constants

 Speed of light in vacuum [m/s]                             2.99792458000000E+08
 Magnetic constant or permeability of vacuum [N/A**2]       1.25663706143592E-06
 Electric constant or permittivity of vacuum [F/m]          8.85418781762039E-12
 Planck constant (h) [J*s]                                  6.62606896000000E-34
 Planck constant (h-bar) [J*s]                              1.05457162825177E-34
 Elementary charge [C]                                      1.60217648700000E-19
 Electron mass [kg]                                         9.10938215000000E-31
 Electron g factor [ ]                                     -2.00231930436220E+00
 Proton mass [kg]                                           1.67262163700000E-27
 Fine-structure constant                                    7.29735253760000E-03
 Rydberg constant [1/m]                                     1.09737315685270E+07
 Avogadro constant [1/mol]                                  6.02214179000000E+23
 Boltzmann constant [J/K]                                   1.38065040000000E-23
 Atomic mass unit [kg]                                      1.66053878200000E-27
 Bohr radius [m]                                            5.29177208590000E-11

 *** Conversion factors ***

 [u] -> [a.u.]                                              1.82288848426455E+03
 [Angstrom] -> [Bohr] = [a.u.]                              1.88972613288564E+00
 [a.u.] = [Bohr] -> [Angstrom]                              5.29177208590000E-01
 [a.u.] -> [s]                                              2.41888432650478E-17
 [a.u.] -> [fs]                                             2.41888432650478E-02
 [a.u.] -> [J]                                              4.35974393937059E-18
 [a.u.] -> [N]                                              8.23872205491840E-08
 [a.u.] -> [K]                                              3.15774647902944E+05
 [a.u.] -> [kJ/mol]                                         2.62549961709828E+03
 [a.u.] -> [kcal/mol]                                       6.27509468713739E+02
 [a.u.] -> [Pa]                                             2.94210107994716E+13
 [a.u.] -> [bar]                                            2.94210107994716E+08
 [a.u.] -> [atm]                                            2.90362800883016E+08
 [a.u.] -> [eV]                                             2.72113838565563E+01
 [a.u.] -> [Hz]                                             6.57968392072181E+15
 [a.u.] -> [1/cm] (wave numbers)                            2.19474631370540E+05
 [a.u./Bohr**2] -> [1/cm]                                   5.14048714338585E+03
 

 CELL_TOP| Volume [angstrom^3]:                                      2357.480286
 CELL_TOP| Vector a [angstrom     8.336     0.000     0.000   |a| =     8.336000
 CELL_TOP| Vector b [angstrom     0.000     8.336     0.000   |b| =     8.336000
 CELL_TOP| Vector c [angstrom     0.000     0.000    33.926   |c| =    33.926000
 CELL_TOP| Angle (b,c), alpha [degree]:                                90.000000
 CELL_TOP| Angle (a,c), beta  [degree]:                                90.000000
 CELL_TOP| Angle (a,b), gamma [degree]:                                90.000000
 CELL_TOP| Numerically orthorhombic:                                         YES
 CELL_TOP| Periodicity                                                       XYZ

 GENERATE|  Preliminary Number of Bonds generated:                             0
 GENERATE|  Achieved consistency in connectivity generation.

 CELL| Volume [angstrom^3]:                                          2357.480286
 CELL| Vector a [angstrom]:       8.336     0.000     0.000   |a| =     8.336000
 CELL| Vector b [angstrom]:       0.000     8.336     0.000   |b| =     8.336000
 CELL| Vector c [angstrom]:       0.000     0.000    33.926   |c| =    33.926000
 CELL| Angle (b,c), alpha [degree]:                                    90.000000
 CELL| Angle (a,c), beta  [degree]:                                    90.000000
 CELL| Angle (a,b), gamma [degree]:                                    90.000000
 CELL| Numerically orthorhombic:                                             YES
 CELL| Periodicity                                                           XYZ

 CELL_REF| Volume [angstrom^3]:                                      2357.480286
 CELL_REF| Vector a [angstrom     8.336     0.000     0.000   |a| =     8.336000
 CELL_REF| Vector b [angstrom     0.000     8.336     0.000   |b| =     8.336000
 CELL_REF| Vector c [angstrom     0.000     0.000    33.926   |c| =    33.926000
 CELL_REF| Angle (b,c), alpha [degree]:                                90.000000
 CELL_REF| Angle (a,c), beta  [degree]:                                90.000000
 CELL_REF| Angle (a,b), gamma [degree]:                                90.000000
 CELL_REF| Numerically orthorhombic:                                         YES
 CELL_REF| Periodicity                                                       XYZ

 *******************************************************************************
                                    Kpoints
 *******************************************************************************
 BRILLOUIN| K-point scheme                                        Monkhorst-Pack
 BRILLOUIN| K-Point grid                                             1    1    1
 BRILLOUIN| Accuracy in Symmetry determination                      0.100000E-07
 BRILLOUIN| K-Point point group symmetrization                               OFF
 BRILLOUIN| Wavefunction type                                            COMPLEX
 BRILLOUIN| Use full k-point grid     
 BRILLOUIN| List of Kpoints [2 Pi/Bohr]                                        1
 BRILLOUIN| Number           Weight            X              Y              Z
 BRILLOUIN|     1           1.00000        0.00000        0.00000        0.00000
 *******************************************************************************

 *******************************************************************************
 *******************************************************************************
 **                                                                           **
 **     #####                         ##              ##                      **
 **    ##   ##            ##          ##              ##                      **
 **   ##     ##                       ##            ######                    **
 **   ##     ##  ##   ##  ##   #####  ##  ##   ####   ##    #####    #####    **
 **   ##     ##  ##   ##  ##  ##      ## ##   ##      ##   ##   ##  ##   ##   **
 **   ##  ## ##  ##   ##  ##  ##      ####     ###    ##   ######   ######    **
 **    ##  ###   ##   ##  ##  ##      ## ##      ##   ##   ##       ##        **
 **     #######   #####   ##   #####  ##  ##  ####    ##    #####   ##        **
 **           ##                                                    ##        **
 **                                                                           **
 **                                                ... make the atoms dance   **
 **                                                                           **
 **            Copyright (C) by CP2K developers group (2000-2022)             **
 **                      J. Chem. Phys. 152, 194103 (2020)                    **
 **                                                                           **
 *******************************************************************************

 DFT| Spin restricted Kohn-Sham (RKS) calculation                            RKS
 DFT| Multiplicity                                                             1
 DFT| Number of spin states                                                    1
 DFT| Charge                                                                   0
 DFT| Self-interaction correction (SIC)                                       NO
 DFT| Cutoffs: density                                              1.000000E-10
 DFT|          gradient                                             1.000000E-10
 DFT|          tau                                                  1.000000E-10
 DFT|          cutoff_smoothing_range                               0.000000E+00
 DFT| XC density smoothing                                                  NONE
 DFT| XC derivatives                                                          PW

 FUNCTIONAL| PADE:
 FUNCTIONAL| S. Goedecker, M. Teter and J. Hutter, Phys. Rev. B 54, 1703 (1996) 


 QS| Method:                                                                 GPW
 QS| Density plane wave grid type                        NON-SPHERICAL FULLSPACE
 QS| Number of grid levels:                                                    4
 QS| Density cutoff [a.u.]:                                                200.0
 QS| Multi grid cutoff [a.u.]: 1) grid level                               200.0
 QS|                           2) grid level                                66.7
 QS|                           3) grid level                                22.2
 QS|                           4) grid level                                 7.4
 QS| Grid level progression factor:                                          3.0
 QS| Relative density cutoff [a.u.]:                                        20.0
 QS| Interaction thresholds: eps_pgf_orb:                                1.0E-05
 QS|                         eps_filter_matrix:                          0.0E+00
 QS|                         eps_core_charge:                            1.0E-12
 QS|                         eps_rho_gspace:                             1.0E-10
 QS|                         eps_rho_rspace:                             1.0E-10
 QS|                         eps_gvg_rspace:                             1.0E-05
 QS|                         eps_ppl:                                    1.0E-02
 QS|                         eps_ppnl:                                   1.0E-07


 ATOMIC KIND INFORMATION

  1. Atomic kind: Au                                    Number of atoms:     104

     Orbital Basis Set                                         SZV-MOLOPT-SR-GTH

       Number of orbital shell sets:                                           1
       Number of orbital shells:                                               3
       Number of primitive Cartesian functions:                                5
       Number of Cartesian basis functions:                                   10
       Number of spherical basis functions:                                    9
       Norm type:                                                              2

       Normalised Cartesian orbitals:

                        Set   Shell   Orbital            Exponent    Coefficient

                          1       1    2s                2.950008       0.074626
                                                         1.563057      -0.007898
                                                         0.666664      -0.297688
                                                         0.251083       0.136809
                                                         0.081714       0.088198

                          1       2    3px               2.950008       0.148824
                                                         1.563057       0.025430
                                                         0.666664      -0.123003
                                                         0.251083       0.033648
                                                         0.081714       0.059008
                          1       2    3py               2.950008       0.148824
                                                         1.563057       0.025430
                                                         0.666664      -0.123003
                                                         0.251083       0.033648
                                                         0.081714       0.059008
                          1       2    3pz               2.950008       0.148824
                                                         1.563057       0.025430
                                                         0.666664      -0.123003
                                                         0.251083       0.033648
                                                         0.081714       0.059008

                          1       3    4dx2              2.950008      -0.139595
                                                         1.563057       1.319655
                                                         0.666664       0.377081
                                                         0.251083       0.046872
                                                         0.081714       0.001393
                          1       3    4dxy              2.950008      -0.241786
                                                         1.563057       2.285709
                                                         0.666664       0.653124
                                                         0.251083       0.081185
                                                         0.081714       0.002412
                          1       3    4dxz              2.950008      -0.241786
                                                         1.563057       2.285709
                                                         0.666664       0.653124
                                                         0.251083       0.081185
                                                         0.081714       0.002412
                          1       3    4dy2              2.950008      -0.139595
                                                         1.563057       1.319655
                                                         0.666664       0.377081
                                                         0.251083       0.046872
                                                         0.081714       0.001393
                          1       3    4dyz              2.950008      -0.241786
                                                         1.563057       2.285709
                                                         0.666664       0.653124
                                                         0.251083       0.081185
                                                         0.081714       0.002412
                          1       3    4dz2              2.950008      -0.139595
                                                         1.563057       1.319655
                                                         0.666664       0.377081
                                                         0.251083       0.046872
                                                         0.081714       0.001393

       Atomic covalent radius [Angstrom]:                                  1.340

       Atomic van der Waals radius [Angstrom]:                             1.660

     GTH Potential information for                                  GTH-PADE-q11

       Description:                       Goedecker-Teter-Hutter pseudopotential
                                           Goedecker et al., PRB 54, 1703 (1996)
                                          Hartwigsen et al., PRB 58, 3641 (1998)
                                                      Krack, TCA 114, 145 (2005)

       Gaussian exponent of the core charge distribution:               1.436369
       Electronic configuration (s p d ...):                           1   0  10

       Parameters of the local part of the GTH pseudopotential:

                          rloc        C1          C2          C3          C4
                        0.590000   11.604428

       Parameters of the non-local part of the GTH pseudopotential:

                   l      r(l)      h(i,j,l)

                   0    0.521180    2.538614   -1.046137
                                   -1.046137    2.701113
                   1    0.630613    0.394853   -0.869592
                                   -0.869592    2.057831
                   2    0.440706   -4.719070    0.727771
                                    0.727771   -1.650429


 MOLECULE KIND INFORMATION


 All atoms are their own molecule, skipping detailed information


 TOTAL NUMBERS AND MAXIMUM NUMBERS

  Total number of            - Atomic kinds:                                   1
                             - Atoms:                                        104
                             - Shell sets:                                   104
                             - Shells:                                       312
                             - Primitive Cartesian functions:                520
                             - Cartesian basis functions:                   1040
                             - Spherical basis functions:                    936

  Maximum angular momentum of- Orbital basis functions:                        2
                             - Local part of the GTH pseudopotential:          0
                             - Non-local part of the GTH pseudopotential:      4


 MODULE QUICKSTEP: ATOMIC COORDINATES IN ANGSTROM

   Atom Kind Element         X             Y             Z       Z(eff)     Mass
      1    1 Au   79      0.000000      0.000000      0.000000  11.0000 196.9666
      2    1 Au   79      0.000000      4.168000      0.000000  11.0000 196.9666
      3    1 Au   79      2.084000      2.084000      0.000000  11.0000 196.9666
      4    1 Au   79      2.084000      6.252000      0.000000  11.0000 196.9666
      5    1 Au   79      4.168000      0.000000      0.000000  11.0000 196.9666
      6    1 Au   79      4.168000      4.168000      0.000000  11.0000 196.9666
      7    1 Au   79      6.252000      2.084000      0.000000  11.0000 196.9666
      8    1 Au   79      6.252000      6.252000      0.000000  11.0000 196.9666
      9    1 Au   79      0.000000      2.084000      2.084000  11.0000 196.9666
     10    1 Au   79      0.000000      6.252000      2.084000  11.0000 196.9666
     11    1 Au   79      2.084000      0.000000      2.084000  11.0000 196.9666
     12    1 Au   79      2.084000      4.168000      2.084000  11.0000 196.9666
     13    1 Au   79      4.168000      2.084000      2.084000  11.0000 196.9666
     14    1 Au   79      4.168000      6.252000      2.084000  11.0000 196.9666
     15    1 Au   79      6.252000      0.000000      2.084000  11.0000 196.9666
     16    1 Au   79      6.252000      4.168000      2.084000  11.0000 196.9666
     17    1 Au   79      0.000000      0.000000      4.168000  11.0000 196.9666
     18    1 Au   79      0.000000      4.168000      4.168000  11.0000 196.9666
     19    1 Au   79      2.084000      2.084000      4.168000  11.0000 196.9666
     20    1 Au   79      2.084000      6.252000      4.168000  11.0000 196.9666
     21    1 Au   79      4.168000      0.000000      4.168000  11.0000 196.9666
     22    1 Au   79      4.168000      4.168000      4.168000  11.0000 196.9666
     23    1 Au   79      6.252000      2.084000      4.168000  11.0000 196.9666
     24    1 Au   79      6.252000      6.252000      4.168000  11.0000 196.9666
     25    1 Au   79      0.000000      2.084000      6.252000  11.0000 196.9666
     26    1 Au   79      0.000000      6.252000      6.252000  11.0000 196.9666
     27    1 Au   79      2.084000      0.000000      6.252000  11.0000 196.9666
     28    1 Au   79      2.084000      4.168000      6.252000  11.0000 196.9666
     29    1 Au   79      4.168000      2.084000      6.252000  11.0000 196.9666
     30    1 Au   79      4.168000      6.252000      6.252000  11.0000 196.9666
     31    1 Au   79      6.252000      0.000000      6.252000  11.0000 196.9666
     32    1 Au   79      6.252000      4.168000      6.252000  11.0000 196.9666
     33    1 Au   79      0.000000      0.000000      8.336000  11.0000 196.9666
     34    1 Au   79      0.000000      4.168000      8.336000  11.0000 196.9666
     35    1 Au   79      2.084000      2.084000      8.336000  11.0000 196.9666
     36    1 Au   79      2.084000      6.252000      8.336000  11.0000 196.9666
     37    1 Au   79      4.168000      0.000000      8.336000  11.0000 196.9666
     38    1 Au   79      4.168000      4.168000      8.336000  11.0000 196.9666
     39    1 Au   79      6.252000      2.084000      8.336000  11.0000 196.9666
     40    1 Au   79      6.252000      6.252000      8.336000  11.0000 196.9666
     41    1 Au   79      0.000000      2.084000     10.420000  11.0000 196.9666
     42    1 Au   79      0.000000      6.252000     10.420000  11.0000 196.9666
     43    1 Au   79      2.084000      0.000000     10.420000  11.0000 196.9666
     44    1 Au   79      2.084000      4.168000     10.420000  11.0000 196.9666
     45    1 Au   79      4.168000      2.084000     10.420000  11.0000 196.9666
     46    1 Au   79      4.168000      6.252000     10.420000  11.0000 196.9666
     47    1 Au   79      6.252000      0.000000     10.420000  11.0000 196.9666
     48    1 Au   79      6.252000      4.168000     10.420000  11.0000 196.9666
     49    1 Au   79      0.000000      0.000000     12.504000  11.0000 196.9666
     50    1 Au   79      0.000000      4.168000     12.504000  11.0000 196.9666
     51    1 Au   79      2.084000      2.084000     12.504000  11.0000 196.9666
     52    1 Au   79      2.084000      6.252000     12.504000  11.0000 196.9666
     53    1 Au   79      4.168000      0.000000     12.504000  11.0000 196.9666
     54    1 Au   79      4.168000      4.168000     12.504000  11.0000 196.9666
     55    1 Au   79      6.252000      2.084000     12.504000  11.0000 196.9666
     56    1 Au   79      6.252000      6.252000     12.504000  11.0000 196.9666
     57    1 Au   79      0.000000      0.000000     21.422000  11.0000 196.9666
     58    1 Au   79      0.000000      4.168000     21.422000  11.0000 196.9666
     59    1 Au   79      2.084000      2.084000     21.422000  11.0000 196.9666
     60    1 Au   79      2.084000      6.252000     21.422000  11.0000 196.9666
     61    1 Au   79      4.168000      0.000000     21.422000  11.0000 196.9666
     62    1 Au   79      4.168000      4.168000     21.422000  11.0000 196.9666
     63    1 Au   79      6.252000      2.084000     21.422000  11.0000 196.9666
     64    1 Au   79      6.252000      6.252000     21.422000  11.0000 196.9666
     65    1 Au   79      0.000000      2.084000     23.506000  11.0000 196.9666
     66    1 Au   79      0.000000      6.252000     23.506000  11.0000 196.9666
     67    1 Au   79      2.084000      0.000000     23.506000  11.0000 196.9666
     68    1 Au   79      2.084000      4.168000     23.506000  11.0000 196.9666
     69    1 Au   79      4.168000      2.084000     23.506000  11.0000 196.9666
     70    1 Au   79      4.168000      6.252000     23.506000  11.0000 196.9666
     71    1 Au   79      6.252000      0.000000     23.506000  11.0000 196.9666
     72    1 Au   79      6.252000      4.168000     23.506000  11.0000 196.9666
     73    1 Au   79      0.000000      0.000000     25.590000  11.0000 196.9666
     74    1 Au   79      0.000000      4.168000     25.590000  11.0000 196.9666
     75    1 Au   79      2.084000      2.084000     25.590000  11.0000 196.9666
     76    1 Au   79      2.084000      6.252000     25.590000  11.0000 196.9666
     77    1 Au   79      4.168000      0.000000     25.590000  11.0000 196.9666
     78    1 Au   79      4.168000      4.168000     25.590000  11.0000 196.9666
     79    1 Au   79      6.252000      2.084000     25.590000  11.0000 196.9666
     80    1 Au   79      6.252000      6.252000     25.590000  11.0000 196.9666
     81    1 Au   79      0.000000      2.084000     27.674000  11.0000 196.9666
     82    1 Au   79      0.000000      6.252000     27.674000  11.0000 196.9666
     83    1 Au   79      2.084000      0.000000     27.674000  11.0000 196.9666
     84    1 Au   79      2.084000      4.168000     27.674000  11.0000 196.9666
     85    1 Au   79      4.168000      2.084000     27.674000  11.0000 196.9666
     86    1 Au   79      4.168000      6.252000     27.674000  11.0000 196.9666
     87    1 Au   79      6.252000      0.000000     27.674000  11.0000 196.9666
     88    1 Au   79      6.252000      4.168000     27.674000  11.0000 196.9666
     89    1 Au   79      0.000000      0.000000     29.758000  11.0000 196.9666
     90    1 Au   79      0.000000      4.168000     29.758000  11.0000 196.9666
     91    1 Au   79      2.084000      2.084000     29.758000  11.0000 196.9666
     92    1 Au   79      2.084000      6.252000     29.758000  11.0000 196.9666
     93    1 Au   79      4.168000      0.000000     29.758000  11.0000 196.9666
     94    1 Au   79      4.168000      4.168000     29.758000  11.0000 196.9666
     95    1 Au   79      6.252000      2.084000     29.758000  11.0000 196.9666
     96    1 Au   79      6.252000      6.252000     29.758000  11.0000 196.9666
     97    1 Au   79      0.000000      2.084000     31.842000  11.0000 196.9666
     98    1 Au   79      0.000000      6.252000     31.842000  11.0000 196.9666
     99    1 Au   79      2.084000      0.000000     31.842000  11.0000 196.9666
    100    1 Au   79      2.084000      4.168000     31.842000  11.0000 196.9666
    101    1 Au   79      4.168000      2.084000     31.842000  11.0000 196.9666
    102    1 Au   79      4.168000      6.252000     31.842000  11.0000 196.9666
    103    1 Au   79      6.252000      0.000000     31.842000  11.0000 196.9666
    104    1 Au   79      6.252000      4.168000     31.842000  11.0000 196.9666



 SCF PARAMETERS         Density guess:                                   RESTART
                        --------------------------------------------------------
                        max_scf:                                             100
                        max_scf_history:                                       0
                        max_diis:                                              4
                        --------------------------------------------------------
                        eps_scf:                                        1.00E-07
                        eps_scf_history:                                0.00E+00
                        eps_diis:                                       1.00E-01
                        eps_eigval:                                     1.00E-05
                        --------------------------------------------------------
                        level_shift [a.u.]:                             0.000000
                        added MOs                                       100    0
                        --------------------------------------------------------
                        Mixing method:                            BROYDEN_MIXING
                                                charge density mixing in g-space
                        --------------------------------------------------------
                        Smear method:                                FERMI_DIRAC
                        Electronic temperature [K]:                        293.0
                        Electronic temperature [a.u.]:                  9.28E-04
                        Accuracy threshold:                             1.00E-10
                        --------------------------------------------------------
                        No outer SCF

 PW_GRID| Information for grid number                                          1
 PW_GRID| Grid distributed over                                   240 processors
 PW_GRID| Real space group dimensions                                    12   20
 PW_GRID| the grid is blocked:                                               YES
 PW_GRID| Cutoff [a.u.]                                                    200.0
 PW_GRID| spherical cutoff:                                                   NO
 PW_GRID|   Bounds   1            -52      52                Points:         105
 PW_GRID|   Bounds   2            -52      52                Points:         105
 PW_GRID|   Bounds   3           -210     209                Points:         420
 PW_GRID| Volume element (a.u.^3)  0.3436E-02     Volume (a.u.^3)     15909.0657
 PW_GRID| Grid span                                                    FULLSPACE
 PW_GRID|   Distribution                         Average         Max         Min
 PW_GRID|   G-Vectors                            19293.8       19845       17640
 PW_GRID|   G-Rays                                 183.8         189         168
 PW_GRID|   Real Space Points                    19293.8       19845       17640

 PW_GRID| Information for grid number                                          2
 PW_GRID| Number of the reference grid                                         1
 PW_GRID| Grid distributed over                                   240 processors
 PW_GRID| Real space group dimensions                                    12   20
 PW_GRID| the grid is blocked:                                                NO
 PW_GRID| Cutoff [a.u.]                                                     66.7
 PW_GRID| spherical cutoff:                                                   NO
 PW_GRID|   Bounds   1            -30      29                Points:          60
 PW_GRID|   Bounds   2            -30      29                Points:          60
 PW_GRID|   Bounds   3           -120     119                Points:         240
 PW_GRID| Volume element (a.u.^3)  0.1841E-01     Volume (a.u.^3)     15909.0657
 PW_GRID| Grid span                                                    FULLSPACE
 PW_GRID|   Distribution                         Average         Max         Min
 PW_GRID|   G-Vectors                             3600.0       11340           0
 PW_GRID|   G-Rays                                  60.0         189           0
 PW_GRID|   Real Space Points                     3600.0        3600        3600

 PW_GRID| Information for grid number                                          3
 PW_GRID| Number of the reference grid                                         1
 PW_GRID| Grid distributed over                                   240 processors
 PW_GRID| Real space group dimensions                                    12   20
 PW_GRID| the grid is blocked:                                                NO
 PW_GRID| Cutoff [a.u.]                                                     22.2
 PW_GRID| spherical cutoff:                                                   NO
 PW_GRID|   Bounds   1            -16      16                Points:          33
 PW_GRID|   Bounds   2            -16      16                Points:          33
 PW_GRID|   Bounds   3            -70      69                Points:         140
 PW_GRID| Volume element (a.u.^3)  0.1043         Volume (a.u.^3)     15909.0657
 PW_GRID| Grid span                                                    FULLSPACE
 PW_GRID|   Distribution                         Average         Max         Min
 PW_GRID|   G-Vectors                              635.2        6237           0
 PW_GRID|   G-Rays                                  19.2         189           0
 PW_GRID|   Real Space Points                      635.2         840         280

 PW_GRID| Information for grid number                                          4
 PW_GRID| Number of the reference grid                                         1
 PW_GRID| Grid distributed over                                   240 processors
 PW_GRID| Real space group dimensions                                    12   20
 PW_GRID| the grid is blocked:                                                NO
 PW_GRID| Cutoff [a.u.]                                                      7.4
 PW_GRID| spherical cutoff:                                                   NO
 PW_GRID|   Bounds   1            -10       9                Points:          20
 PW_GRID|   Bounds   2            -10       9                Points:          20
 PW_GRID|   Bounds   3            -40      39                Points:          80
 PW_GRID| Volume element (a.u.^3)  0.4972         Volume (a.u.^3)     15909.0657
 PW_GRID| Grid span                                                    FULLSPACE
 PW_GRID|   Distribution                         Average         Max         Min
 PW_GRID|   G-Vectors                              133.3        3780           0
 PW_GRID|   G-Rays                                   6.7         189           0
 PW_GRID|   Real Space Points                      133.3         160          80

 POISSON| Solver                                                        PERIODIC
 POISSON| Periodicity                                                        XYZ

 RS_GRID| Information for grid number                                          1
 RS_GRID|   Bounds   1            -52      52                Points:         105
 RS_GRID|   Bounds   2            -52      52                Points:         105
 RS_GRID|   Bounds   3           -210     209                Points:         420
 RS_GRID| Real space distribution over                                  8 groups
 RS_GRID| Real space distribution along direction                              2
 RS_GRID| Border size                                                         30
 RS_GRID| Real space distribution over                                 30 groups
 RS_GRID| Real space distribution along direction                              3
 RS_GRID| Border size                                                         30
 RS_GRID|   Distribution                         Average         Max         Min
 RS_GRID|   Planes                                  73.1          74          73
 RS_GRID|   Distribution                         Average         Max         Min
 RS_GRID|   Planes                                  74.0          74          74

 RS_GRID| Information for grid number                                          2
 RS_GRID|   Bounds   1            -30      29                Points:          60
 RS_GRID|   Bounds   2            -30      29                Points:          60
 RS_GRID|   Bounds   3           -120     119                Points:         240
 RS_GRID| Real space distribution over                                  8 groups
 RS_GRID| Real space distribution along direction                              2
 RS_GRID| Border size                                                         20
 RS_GRID| Real space distribution over                                 30 groups
 RS_GRID| Real space distribution along direction                              3
 RS_GRID| Border size                                                         20
 RS_GRID|   Distribution                         Average         Max         Min
 RS_GRID|   Planes                                  47.5          48          47
 RS_GRID|   Distribution                         Average         Max         Min
 RS_GRID|   Planes                                  48.0          48          48

 RS_GRID| Information for grid number                                          3
 RS_GRID|   Bounds   1            -16      16                Points:          33
 RS_GRID|   Bounds   2            -16      16                Points:          33
 RS_GRID|   Bounds   3            -70      69                Points:         140
 RS_GRID| Real space fully replicated
 RS_GRID| Group size                                                           1

 RS_GRID| Information for grid number                                          4
 RS_GRID|   Bounds   1            -10       9                Points:          20
 RS_GRID|   Bounds   2            -10       9                Points:          20
 RS_GRID|   Bounds   3            -40      39                Points:          80
 RS_GRID| Real space fully replicated
 RS_GRID| Group size                                                           1

 KPOINTS| Number of kpoint groups                                              1
 KPOINTS| Size of each kpoint group                                          240
 KPOINTS| Number of kpoints per group                                          1

 Number of electrons:                                                       1144
 Number of occupied orbitals:                                                572
 Number of molecular orbitals:                                               672

 Number of orbital functions:                                                936
 Number of independent orbital functions:                                    936

 Extrapolation method: initial_guess


 SCF WAVEFUNCTION OPTIMIZATION

  Step     Update method      Time    Convergence         Total energy    Change
  ------------------------------------------------------------------------------
 SMEAGOL DEBUG| Number of electrons in the unit cell =      1143.9999999939
     1 NoMix/SMGL  0.30E+00   18.5     0.58363332     -3460.8959305754 -3.46E+03
 SMEAGOL DEBUG| Number of electrons in the unit cell =      1158.4828767021
     2 Broy./SMGL  0.30E+00    7.9     0.42875769     -3426.3435107297  3.46E+01
 SMEAGOL DEBUG| Number of electrons in the unit cell =      1165.9606771703
     3 Broy./SMGL  0.30E+00    7.5     0.29942390     -3449.6196709406 -2.33E+01
 SMEAGOL DEBUG| Number of electrons in the unit cell =      1161.5388178338
     4 Broy./SMGL  0.30E+00    7.5     0.25558083     -3483.6128054426 -3.40E+01
 SMEAGOL DEBUG| Number of electrons in the unit cell =      1157.3582567228
     5 Broy./SMGL  0.30E+00    7.6     0.20962896     -3459.8665204268  2.37E+01
 SMEAGOL DEBUG| Number of electrons in the unit cell =      1157.8815865814
     6 Broy./SMGL  0.30E+00    7.4     0.13888088     -3445.6504665102  1.42E+01
 SMEAGOL DEBUG| Number of electrons in the unit cell =      1156.8927287577
     7 Broy./SMGL  0.30E+00    7.4     0.13056900     -3456.8949189743 -1.12E+01
 SMEAGOL DEBUG| Number of electrons in the unit cell =      1154.0982365658
     8 Broy./SMGL  0.30E+00    8.6     0.16338075     -3450.4881805360  6.41E+00
 SMEAGOL DEBUG| Number of electrons in the unit cell =      1152.0242496223
     9 Broy./SMGL  0.30E+00    7.4     0.03239695     -3450.7193209938 -2.31E-01
 SMEAGOL DEBUG| Number of electrons in the unit cell =      1149.7756346075
    10 Broy./SMGL  0.30E+00    7.6     0.11743857     -3451.8019377279 -1.08E+00
 SMEAGOL DEBUG| Number of electrons in the unit cell =      1149.8174739008
    11 Broy./SMGL  0.30E+00    7.5     0.01386650     -3459.9358570101 -8.13E+00
 SMEAGOL DEBUG| Number of electrons in the unit cell =      1149.9125916287
    12 Broy./SMGL  0.30E+00    7.6     0.15935661     -3461.0278064064 -1.09E+00
 SMEAGOL DEBUG| Number of electrons in the unit cell =      1149.5173893879
    13 Broy./SMGL  0.30E+00    7.5     0.06341811     -3454.8738061243  6.15E+00
 SMEAGOL DEBUG| Number of electrons in the unit cell =      1149.3990160731
    14 Broy./SMGL  0.30E+00    7.3     0.02028856     -3457.8769733023 -3.00E+00
 SMEAGOL DEBUG| Number of electrons in the unit cell =      1149.4517636987
    15 Broy./SMGL  0.30E+00    7.3     0.04011994     -3458.0863104573 -2.09E-01
 SMEAGOL DEBUG| Number of electrons in the unit cell =      1149.3005251939
    16 Broy./SMGL  0.30E+00    7.4     0.00474647     -3460.7446913643 -2.66E+00
 SMEAGOL DEBUG| Number of electrons in the unit cell =      1149.2158311089
    17 Broy./SMGL  0.30E+00    7.4     0.00643536     -3460.6496881692  9.50E-02
 SMEAGOL DEBUG| Number of electrons in the unit cell =      1149.0630346069
    18 Broy./SMGL  0.30E+00    7.4     0.00739534     -3460.1792501216  4.70E-01
 SMEAGOL DEBUG| Number of electrons in the unit cell =      1149.1592348795
    19 Broy./SMGL  0.30E+00    7.4     0.00688514     -3459.6788521488  5.00E-01
 SMEAGOL DEBUG| Number of electrons in the unit cell =      1149.1435556964
    20 Broy./SMGL  0.30E+00    7.4     0.01158913     -3460.0026807942 -3.24E-01
 SMEAGOL DEBUG| Number of electrons in the unit cell =      1149.1949914301
    21 Broy./SMGL  0.30E+00    7.4     0.00674637     -3460.0763410161 -7.37E-02
 SMEAGOL DEBUG| Number of electrons in the unit cell =      1149.2128738416
    22 Broy./SMGL  0.30E+00    7.4     0.00322143     -3460.0396298259  3.67E-02
 SMEAGOL DEBUG| Number of electrons in the unit cell =      1149.2309768106
    23 Broy./SMGL  0.30E+00    7.5     0.00113476     -3460.2051303758 -1.66E-01
 SMEAGOL DEBUG| Number of electrons in the unit cell =      1149.2203165470
    24 Broy./SMGL  0.30E+00    7.4     0.00049830     -3460.2725319082 -6.74E-02
 SMEAGOL DEBUG| Number of electrons in the unit cell =      1149.2104834497
    25 Broy./SMGL  0.30E+00    7.4     0.00037581     -3460.2395213006  3.30E-02
 SMEAGOL DEBUG| Number of electrons in the unit cell =      1149.1968767552
    26 Broy./SMGL  0.30E+00    7.5     0.00040623     -3460.2542080365 -1.47E-02
 SMEAGOL DEBUG| Number of electrons in the unit cell =      1149.1932306211
    27 Broy./SMGL  0.30E+00    7.4     0.00007535     -3460.2232177081  3.10E-02
 SMEAGOL DEBUG| Number of electrons in the unit cell =      1149.1932516872
    28 Broy./SMGL  0.30E+00    7.5     0.00008101     -3460.2217671292  1.45E-03
 SMEAGOL DEBUG| Number of electrons in the unit cell =      1149.1987895624
    29 Broy./SMGL  0.30E+00    7.4     0.00007049     -3460.2197538987  2.01E-03
 SMEAGOL DEBUG| Number of electrons in the unit cell =      1149.1997614945
    30 Broy./SMGL  0.30E+00    7.3     0.00005633     -3460.2277701827 -8.02E-03
 SMEAGOL DEBUG| Number of electrons in the unit cell =      1149.2007329311
    31 Broy./SMGL  0.30E+00    7.1     0.00005992     -3460.2304431019 -2.67E-03
 SMEAGOL DEBUG| Number of electrons in the unit cell =      1149.2003007542
    32 Broy./SMGL  0.30E+00    7.3     0.00004212     -3460.2284399324  2.00E-03
 SMEAGOL DEBUG| Number of electrons in the unit cell =      1149.2006786972
    33 Broy./SMGL  0.30E+00    7.3     0.00000512     -3460.2292786584 -8.39E-04
 SMEAGOL DEBUG| Number of electrons in the unit cell =      1149.2006672529
    34 Broy./SMGL  0.30E+00    7.2     0.00000551     -3460.2293693625 -9.07E-05
 SMEAGOL DEBUG| Number of electrons in the unit cell =      1149.2005395173
    35 Broy./SMGL  0.30E+00    7.4     0.00000487     -3460.2296197790 -2.50E-04
 SMEAGOL DEBUG| Number of electrons in the unit cell =      1149.2005565584
    36 Broy./SMGL  0.30E+00    7.3     0.00000235     -3460.2293366270  2.83E-04
 SMEAGOL DEBUG| Number of electrons in the unit cell =      1149.2005457928
    37 Broy./SMGL  0.30E+00    7.4     0.00000211     -3460.2294589011 -1.22E-04
 SMEAGOL DEBUG| Number of electrons in the unit cell =      1149.2005588532
    38 Broy./SMGL  0.30E+00    7.5     0.00000145     -3460.2294511755  7.73E-06
 SMEAGOL DEBUG| Number of electrons in the unit cell =      1149.2005380139
    39 Broy./SMGL  0.30E+00    7.4     0.00000141     -3460.2294859439 -3.48E-05
 SMEAGOL DEBUG| Number of electrons in the unit cell =      1149.2005302434
    40 Broy./SMGL  0.30E+00    7.3     0.00000068     -3460.2294860006 -5.66E-08
 SMEAGOL DEBUG| Number of electrons in the unit cell =      1149.2005309973
    41 Broy./SMGL  0.30E+00    7.4     0.00000087     -3460.2294833809  2.62E-06
 SMEAGOL DEBUG| Number of electrons in the unit cell =      1149.2005500588
    42 Broy./SMGL  0.30E+00    7.3     0.00000107     -3460.2294553489  2.80E-05
 SMEAGOL DEBUG| Number of electrons in the unit cell =      1149.2005516118
    43 Broy./SMGL  0.30E+00    7.4     0.00000118     -3460.2294553528 -3.94E-09
 SMEAGOL DEBUG| Number of electrons in the unit cell =      1149.2005551296
    44 Broy./SMGL  0.30E+00    7.7     0.00000010     -3460.2294834011 -2.80E-05
 SMEAGOL DEBUG| Number of electrons in the unit cell =      1149.2005596738
    45 Broy./SMGL  0.30E+00    7.3     0.00000014     -3460.2294821504  1.25E-06
 SMEAGOL DEBUG| Number of electrons in the unit cell =      1149.2005592591
    46 Broy./SMGL  0.30E+00    7.2     0.00000014     -3460.2294847399 -2.59E-06
 SMEAGOL DEBUG| Number of electrons in the unit cell =      1149.2005596904
    47 Broy./SMGL  0.30E+00    7.2     0.00000014     -3460.2294804444  4.30E-06
 SMEAGOL DEBUG| Number of electrons in the unit cell =      1149.2005597263
    48 Broy./SMGL  0.30E+00    7.3     0.00000014     -3460.2294828281 -2.38E-06
 SMEAGOL DEBUG| Number of electrons in the unit cell =      1149.2005599812
    49 Broy./SMGL  0.30E+00    7.2     0.00000005     -3460.2294814443  1.38E-06

  *** SCF run converged in    49 steps ***


  Electronic density on regular grids:      -1149.2005599812       -5.2005599812
  Core density on regular grids:             1143.9999998122       -0.0000001878
  Total charge density on r-space grids:       -5.2005601689
  Total charge density g-space grids:          -5.2005601689

  Overlap energy of the core charge distribution:               0.00000031820378
  Self energy of the core charge distribution:              -6016.74721980081904
  Core Hamiltonian energy:                                   1905.24770862717696
  Hartree energy:                                            1191.79794292754877
  Exchange-correlation energy:                               -540.52791351638416
  Electronic entropic energy:                                   0.00000000000000
  Fermi energy:                                                 0.00000000000000

  Total energy:                                             -3460.22948144427301

 The electron density is written in cube file format to the file:

 0V-ELECTRON_DENSITY-1_0.cube

 !-----------------------------------------------------------------------------!
                     Mulliken Population Analysis

 #  Atom  Element  Kind  Atomic population                           Net charge
       1     Au       1         10.999989                              0.000011
       2     Au       1         10.999990                              0.000010
       3     Au       1         10.999990                              0.000010
       4     Au       1         10.999990                              0.000010
       5     Au       1         10.999990                              0.000010
       6     Au       1         10.999991                              0.000009
       7     Au       1         10.999990                              0.000010
       8     Au       1         10.999990                              0.000010
       9     Au       1         10.999774                              0.000226
      10     Au       1         10.999774                              0.000226
      11     Au       1         10.999774                              0.000226
      12     Au       1         10.999775                              0.000225
      13     Au       1         10.999775                              0.000225
      14     Au       1         10.999775                              0.000225
      15     Au       1         10.999774                              0.000226
      16     Au       1         10.999775                              0.000225
      17     Au       1         11.036713                             -0.036713
      18     Au       1         11.036714                             -0.036714
      19     Au       1         11.036713                             -0.036713
      20     Au       1         11.036713                             -0.036713
      21     Au       1         11.036714                             -0.036714
      22     Au       1         11.036714                             -0.036714
      23     Au       1         11.036713                             -0.036713
      24     Au       1         11.036713                             -0.036713
      25     Au       1         11.056628                             -0.056628
      26     Au       1         11.056628                             -0.056628
      27     Au       1         11.056628                             -0.056628
      28     Au       1         11.056628                             -0.056628
      29     Au       1         11.056628                             -0.056628
      30     Au       1         11.056628                             -0.056628
      31     Au       1         11.056628                             -0.056628
      32     Au       1         11.056628                             -0.056628
      33     Au       1         11.092089                             -0.092089
      34     Au       1         11.092089                             -0.092089
      35     Au       1         11.092089                             -0.092089
      36     Au       1         11.092089                             -0.092089
      37     Au       1         11.092089                             -0.092089
      38     Au       1         11.092090                             -0.092090
      39     Au       1         11.092089                             -0.092089
      40     Au       1         11.092089                             -0.092089
      41     Au       1         10.999996                              0.000004
      42     Au       1         10.999996                              0.000004
      43     Au       1         10.999996                              0.000004
      44     Au       1         10.999997                              0.000003
      45     Au       1         10.999997                              0.000003
      46     Au       1         10.999997                              0.000003
      47     Au       1         10.999996                              0.000004
      48     Au       1         10.999997                              0.000003
      49     Au       1         11.160095                             -0.160095
      50     Au       1         11.160094                             -0.160094
      51     Au       1         11.160094                             -0.160094
      52     Au       1         11.160094                             -0.160094
      53     Au       1         11.160094                             -0.160094
      54     Au       1         11.160094                             -0.160094
      55     Au       1         11.160094                             -0.160094
      56     Au       1         11.160094                             -0.160094
      57     Au       1         11.146894                             -0.146894
      58     Au       1         11.146894                             -0.146894
      59     Au       1         11.146894                             -0.146894
      60     Au       1         11.146894                             -0.146894
      61     Au       1         11.146894                             -0.146894
      62     Au       1         11.146894                             -0.146894
      63     Au       1         11.146894                             -0.146894
      64     Au       1         11.146894                             -0.146894
      65     Au       1         11.080160                             -0.080160
      66     Au       1         11.080160                             -0.080160
      67     Au       1         11.080160                             -0.080160
      68     Au       1         11.080161                             -0.080161
      69     Au       1         11.080161                             -0.080161
      70     Au       1         11.080161                             -0.080161
      71     Au       1         11.080160                             -0.080160
      72     Au       1         11.080161                             -0.080161
      73     Au       1         11.042307                             -0.042307
      74     Au       1         11.042308                             -0.042308
      75     Au       1         11.042308                             -0.042308
      76     Au       1         11.042308                             -0.042308
      77     Au       1         11.042308                             -0.042308
      78     Au       1         11.042309                             -0.042309
      79     Au       1         11.042308                             -0.042308
      80     Au       1         11.042308                             -0.042308
      81     Au       1         11.035386                             -0.035386
      82     Au       1         11.035386                             -0.035386
      83     Au       1         11.035386                             -0.035386
      84     Au       1         11.035386                             -0.035386
      85     Au       1         11.035386                             -0.035386
      86     Au       1         11.035386                             -0.035386
      87     Au       1         11.035386                             -0.035386
      88     Au       1         11.035386                             -0.035386
      89     Au       1         11.000051                             -0.000051
      90     Au       1         11.000052                             -0.000052
      91     Au       1         11.000052                             -0.000052
      92     Au       1         11.000052                             -0.000052
      93     Au       1         11.000052                             -0.000052
      94     Au       1         11.000053                             -0.000053
      95     Au       1         11.000052                             -0.000052
      96     Au       1         11.000052                             -0.000052
      97     Au       1         10.999983                              0.000017
      98     Au       1         10.999983                              0.000017
      99     Au       1         10.999983                              0.000017
     100     Au       1         10.999984                              0.000016
     101     Au       1         10.999984                              0.000016
     102     Au       1         10.999984                              0.000016
     103     Au       1         10.999983                              0.000017
     104     Au       1         10.999984                              0.000016
 # Total charge                           1149.200560                 -5.200560

 !-----------------------------------------------------------------------------!

 !-----------------------------------------------------------------------------!
                           Hirshfeld Charges

  #Atom  Element  Kind  Ref Charge     Population                    Net charge
      1       Au     1      11.000         11.000                         0.000
      2       Au     1      11.000         11.000                         0.000
      3       Au     1      11.000         11.000                         0.000
      4       Au     1      11.000         11.000                         0.000
      5       Au     1      11.000         11.000                         0.000
      6       Au     1      11.000         11.000                        -0.000
      7       Au     1      11.000         11.000                         0.000
      8       Au     1      11.000         11.000                         0.000
      9       Au     1      11.000         11.000                        -0.000
     10       Au     1      11.000         11.000                        -0.000
     11       Au     1      11.000         11.000                        -0.000
     12       Au     1      11.000         11.000                        -0.000
     13       Au     1      11.000         11.000                        -0.000
     14       Au     1      11.000         11.000                        -0.000
     15       Au     1      11.000         11.000                        -0.000
     16       Au     1      11.000         11.000                        -0.000
     17       Au     1      11.000         11.032                        -0.032
     18       Au     1      11.000         11.032                        -0.032
     19       Au     1      11.000         11.032                        -0.032
     20       Au     1      11.000         11.032                        -0.032
     21       Au     1      11.000         11.032                        -0.032
     22       Au     1      11.000         11.032                        -0.032
     23       Au     1      11.000         11.032                        -0.032
     24       Au     1      11.000         11.032                        -0.032
     25       Au     1      11.000         11.125                        -0.125
     26       Au     1      11.000         11.125                        -0.125
     27       Au     1      11.000         11.125                        -0.125
     28       Au     1      11.000         11.125                        -0.125
     29       Au     1      11.000         11.125                        -0.125
     30       Au     1      11.000         11.125                        -0.125
     31       Au     1      11.000         11.125                        -0.125
     32       Au     1      11.000         11.125                        -0.125
     33       Au     1      11.000         11.049                        -0.049
     34       Au     1      11.000         11.049                        -0.049
     35       Au     1      11.000         11.049                        -0.049
     36       Au     1      11.000         11.049                        -0.049
     37       Au     1      11.000         11.049                        -0.049
     38       Au     1      11.000         11.049                        -0.049
     39       Au     1      11.000         11.049                        -0.049
     40       Au     1      11.000         11.049                        -0.049
     41       Au     1      11.000         11.021                        -0.021
     42       Au     1      11.000         11.021                        -0.021
     43       Au     1      11.000         11.021                        -0.021
     44       Au     1      11.000         11.021                        -0.021
     45       Au     1      11.000         11.021                        -0.021
     46       Au     1      11.000         11.021                        -0.021
     47       Au     1      11.000         11.021                        -0.021
     48       Au     1      11.000         11.021                        -0.021
     49       Au     1      11.000         11.119                        -0.119
     50       Au     1      11.000         11.119                        -0.119
     51       Au     1      11.000         11.119                        -0.119
     52       Au     1      11.000         11.119                        -0.119
     53       Au     1      11.000         11.119                        -0.119
     54       Au     1      11.000         11.119                        -0.119
     55       Au     1      11.000         11.119                        -0.119
     56       Au     1      11.000         11.119                        -0.119
     57       Au     1      11.000         11.117                        -0.117
     58       Au     1      11.000         11.117                        -0.117
     59       Au     1      11.000         11.117                        -0.117
     60       Au     1      11.000         11.117                        -0.117
     61       Au     1      11.000         11.117                        -0.117
     62       Au     1      11.000         11.117                        -0.117
     63       Au     1      11.000         11.117                        -0.117
     64       Au     1      11.000         11.117                        -0.117
     65       Au     1      11.000         11.025                        -0.025
     66       Au     1      11.000         11.025                        -0.025
     67       Au     1      11.000         11.025                        -0.025
     68       Au     1      11.000         11.025                        -0.025
     69       Au     1      11.000         11.025                        -0.025
     70       Au     1      11.000         11.025                        -0.025
     71       Au     1      11.000         11.025                        -0.025
     72       Au     1      11.000         11.025                        -0.025
     73       Au     1      11.000         11.130                        -0.130
     74       Au     1      11.000         11.130                        -0.130
     75       Au     1      11.000         11.130                        -0.130
     76       Au     1      11.000         11.130                        -0.130
     77       Au     1      11.000         11.130                        -0.130
     78       Au     1      11.000         11.130                        -0.130
     79       Au     1      11.000         11.130                        -0.130
     80       Au     1      11.000         11.130                        -0.130
     81       Au     1      11.000         11.032                        -0.032
     82       Au     1      11.000         11.032                        -0.032
     83       Au     1      11.000         11.032                        -0.032
     84       Au     1      11.000         11.032                        -0.032
     85       Au     1      11.000         11.032                        -0.032
     86       Au     1      11.000         11.032                        -0.032
     87       Au     1      11.000         11.032                        -0.032
     88       Au     1      11.000         11.032                        -0.032
     89       Au     1      11.000         11.000                        -0.000
     90       Au     1      11.000         11.000                        -0.000
     91       Au     1      11.000         11.000                        -0.000
     92       Au     1      11.000         11.000                        -0.000
     93       Au     1      11.000         11.000                        -0.000
     94       Au     1      11.000         11.000                        -0.000
     95       Au     1      11.000         11.000                        -0.000
     96       Au     1      11.000         11.000                        -0.000
     97       Au     1      11.000         11.000                         0.000
     98       Au     1      11.000         11.000                         0.000
     99       Au     1      11.000         11.000                         0.000
    100       Au     1      11.000         11.000                        -0.000
    101       Au     1      11.000         11.000                        -0.000
    102       Au     1      11.000         11.000                        -0.000
    103       Au     1      11.000         11.000                         0.000
    104       Au     1      11.000         11.000                        -0.000

  Total Charge                                                           -5.201
 !-----------------------------------------------------------------------------!
 Calculating transmission coefficient

 ENERGY| Total FORCE_EVAL ( QS ) energy [a.u.]:            -3460.229481444273006

 -------------------------------------------------------------------------------
 -                                                                             -
 -                                DBCSR STATISTICS                             -
 -                                                                             -
 -------------------------------------------------------------------------------
 COUNTER                                    TOTAL       BLAS       SMM       ACC
 flops inhomo. stacks                           0       0.0%      0.0%      0.0%
 flops total                         0.000000E+00       0.0%      0.0%      0.0%
 flops max/rank                      0.000000E+00       0.0%      0.0%      0.0%
 matmuls inhomo. stacks                         0       0.0%      0.0%      0.0%
 matmuls total                                  0       0.0%      0.0%      0.0%
 number of processed stacks                     0       0.0%      0.0%      0.0%
 average stack size                                     0.0       0.0       0.0
 marketing flops                     0.000000E+00
 -------------------------------------------------------------------------------
 -                                                                             -
 -                      DBCSR MESSAGE PASSING PERFORMANCE                      -
 -                                                                             -
 -------------------------------------------------------------------------------
 ROUTINE             CALLS      AVE VOLUME [Bytes]
 MP_Bcast                1                     12.
 MP_Allreduce         3645                      8.
 MP_Alltoall          3257                 174177.
 -------------------------------------------------------------------------------

 -------------------------------------------------------------------------------
 -                                                                             -
 -                                DBM STATISTICS                               -
 -                                                                             -
 -------------------------------------------------------------------------------
    M  x    N  x    K                                          COUNT     PERCENT
 -------------------------------------------------------------------------------

 -------------------------------------------------------------------------------
 -                                                                             -
 -                                GRID STATISTICS                              -
 -                                                                             -
 -------------------------------------------------------------------------------
 LP    KERNEL             BACKEND                              COUNT     PERCENT
 4     collocate ortho    REF                                4753600      48.33%
 4     integrate ortho    REF                                4658528      47.36%
 0     collocate general  REF                                 224640       2.28%
 0     integrate general  REF                                 199680       2.03%
 -------------------------------------------------------------------------------

 MEMORY| Estimated peak process memory [MiB]                                 856

 -------------------------------------------------------------------------------
 ----                             MULTIGRID INFO                            ----
 -------------------------------------------------------------------------------
 count for grid        1:          44904          cutoff [a.u.]          200.00
 count for grid        2:         139528          cutoff [a.u.]           66.67
 count for grid        3:          69056          cutoff [a.u.]           22.22
 count for grid        4:          71984          cutoff [a.u.]            7.41
 total gridlevel count  :         325472

 -------------------------------------------------------------------------------
 -                                                                             -
 -                         MESSAGE PASSING PERFORMANCE                         -
 -                                                                             -
 -------------------------------------------------------------------------------

 ROUTINE             CALLS      AVE VOLUME [Bytes]
 MP_Group                5
 MP_Bcast            37287                  15014.
 MP_Allreduce         3605                 858529.
 MP_Sync               598
 MP_Alltoall           907              752646464.
 MP_ISendRecv        47322                   4000.
 MP_Wait             58359
 MP_ISend            16025                  36915.
 MP_IRecv            16123                  36708.
 MP_Recv              3219                 239616.
 MP_Write_All            2                   8298.
 -------------------------------------------------------------------------------


 -------------------------------------------------------------------------------
 -                                                                             -
 -                           R E F E R E N C E S                               -
 -                                                                             -
 -------------------------------------------------------------------------------
 
 CP2K version 2022.1 (Development Version), the CP2K developers group (2022).
 CP2K is freely available from https://www.cp2k.org/ .

 Kuehne,Thomas D.; Iannuzzi,Marcella; Del Ben,Mauro;
 Rybkin,Vladimir V.; Seewald,Patrick; Stein,Frederick; Laino,Teodoro;
 Khaliullin,Rustam Z.; Schuett,Ole; Schiffmann,Florian; Golze,Dorothea;
 Wilhelm,Jan; Chulkov,Sergey; Bani-Hashemian,Mohammad Hossein;
 Weber,Valery; Borstnik,Urban; Taillefumier,Mathieu;
 Jakobovits,Alice Shoshana; Lazzaro,Alfio; Pabst,Hans; Mueller,Tiziano;
 Schade,Robert; Guidon,Manuel; Andermatt,Samuel; Holmberg,Nico;
 Schenter,Gregory K.; Hehn,Anna; Bussy,Augustin; Belleflamme,Fabian;
 Tabacchi,Gloria; Gloess,Andreas; Lass,Michael; Bethune,Iain;
 Mundy,Christopher J.; Plessl,Christian; Watkins,Matt;
 VandeVondele,Joost; Krack,Matthias; Hutter,Juerg. 
 The Journal of Chemical Physics, 152 (19), (2020). 
 CP2K: An electronic structure and molecular dynamics software package -
 Quickstep: Efficient and accurate electronic structure calculations.
 https://doi.org/10.1063/5.0007045

 Togo, Atsushi; Tanaka, Isao. arXiv, 1808.01590 (2018). 
 Spglib : a software library for crystal symmetry search.
 https://doi.org/xxx

 Schuett, Ole; Messmer, Peter; Hutter, Juerg; VandeVondele, Joost. 
 Electronic Structure Calculations on Graphics Processing Units, John
 Wiley & Sons, Ltd, 173-190 (2016). 
 GPU-Accelerated Sparse Matrix-Matrix Multiplication for
 Linear Scaling Density Functional Theory.
 https://doi.org/10.1002/9781118670712.ch8

 Heinecke, A; Henry, G; Hutchinson, M; Pabst, H. 
 Proceedings of Intl. Supercomputing Conference, 981-991 (2016). 
 LIBXSMM: Accelerating Small Matrix Multiplications
 by Runtime Code Generation.
 https://doi.org/10.1109/SC.2016.83

 Borstnik, U; VandeVondele, J; Weber, V; Hutter, J. 
 PARALLEL COMPUTING, 40 (5-6), 47-58 (2014). 
 Sparse matrix multiplication: The distributed block-compressed sparse
 row library.
 https://doi.org/10.1016/j.parco.2014.03.012

 Hutter, J; Iannuzzi, M; Schiffmann, F; VandeVondele, J. 
 WIREs Comput Mol Sci., 4 (1), 15-25 (2014). 
 CP2K: atomistic simulations of condensed matter systems.
 https://doi.org/10.1002/wcms.1159

 VandeVondele, J; Hutter, J. 
 JOURNAL OF CHEMICAL PHYSICS, 127 (11), 114105 (2007). 
 Gaussian basis sets for accurate calculations on molecular systems in
 gas and condensed phases.
 https://doi.org/10.1063/1.2770708

 Krack, M. 
 THEORETICAL CHEMISTRY ACCOUNTS, 114 (1-3), 145-152 (2005). 
 Pseudopotentials for H to Kr optimized for gradient-corrected
 exchange-correlation functionals.
 https://doi.org/10.1007/s00214-005-0655-y

 VandeVondele, J; Krack, M; Mohamed, F; Parrinello, M; Chassaing, T;
 Hutter, J. COMPUTER PHYSICS COMMUNICATIONS, 167 (2), 103-128 (2005). 
 QUICKSTEP: Fast and accurate density functional calculations using a
 mixed Gaussian and plane waves approach.
 https://doi.org/10.1016/j.cpc.2004.12.014

 Frigo, M; Johnson, SG. 
 PROCEEDINGS OF THE IEEE, 93 (2), 216-231 (2005). 
 The design and implementation of FFTW3.
 https://doi.org/10.1109/JPROC.2004.840301

 Hartwigsen, C; Goedecker, S; Hutter, J. 
 PHYSICAL REVIEW B, 58 (7), 3641-3662 (1998). 
 Relativistic separable dual-space Gaussian pseudopotentials from H to Rn.
 https://doi.org/10.1103/PhysRevB.58.3641

 Lippert, G; Hutter, J; Parrinello, M. 
 MOLECULAR PHYSICS, 92 (3), 477-487 (1997). 
 A hybrid Gaussian and plane wave density functional scheme.
 https://doi.org/10.1080/002689797170220

 Goedecker, S; Teter, M; Hutter, J. 
 PHYSICAL REVIEW B, 54 (3), 1703-1710 (1996). 
 Separable dual-space Gaussian pseudopotentials.
 https://doi.org/10.1103/PhysRevB.54.1703


 -------------------------------------------------------------------------------
 -                                                                             -
 -                                T I M I N G                                  -
 -                                                                             -
 -------------------------------------------------------------------------------
 SUBROUTINE                       CALLS  ASD         SELF TIME        TOTAL TIME
                                MAXIMUM       AVERAGE  MAXIMUM  AVERAGE  MAXIMUM
 CP2K                                 1  1.0    0.034    0.048  393.624  393.629
 qs_energies                          1  2.0    0.000    0.001  393.446  393.472
 run_smeagol_emtrans                 50  5.9  268.182  306.360  375.687  380.460
 scf_env_do_scf                       1  3.0    0.000    0.000  377.069  377.109
 scf_env_do_scf_inner_loop           49  4.0    0.004    0.438  377.069  377.109
 qs_scf_new_mos_kp                   49  5.0    0.001    0.002  361.116  365.867
 mp_sum_iv                          365  7.3   37.365   37.603   37.365   37.603
 convert_dbcsr_to_replsiesta        100  6.9    4.028    6.039   31.010   34.326
 dbcsr_replicate                   5550  7.9    0.277    0.362   27.070   27.265
 mp_sum_dv                          342  7.6   16.201   18.594   16.201   18.594
 dbcsr_finalize                    6695  8.6    0.038    0.052    9.380   14.143
 dbcsr_merge_all                   5796  9.9    0.203    0.299    9.315   14.072
 dbcsr_sort_data                   5550 10.9    7.793   12.511    7.793   12.511
 replsiesta_struct_create            50  6.9    2.264    3.550   11.041   12.362
 mp_allgather_i12                  5550  8.9    7.327   12.310    7.327   12.310
 mp_max_iv                          151  7.9    7.650   12.134    7.650   12.134
 mp_allgatherv_dv                  5550  8.9    8.619    9.285    8.619    9.285
 -------------------------------------------------------------------------------

 The number of warnings for this run is : 0
 
 -------------------------------------------------------------------------------
  **** **** ******  **  PROGRAM ENDED AT                 2023-03-12 17:40:31.858
 ***** ** ***  *** **   PROGRAM RAN ON                     cn1144.scarf.rl.ac.uk
 **    ****   ******    PROGRAM RAN BY                                 scarf1157
 ***** **    ** ** **   PROGRAM PROCESS ID                                 65385
  **** **  *******  **  PROGRAM STOPPED IN /work4/scd/scarf1157/work/testing/cp2
                                           k-smeagol/bdt/cp2k/hollow-site/transp
                                           ort-cp2k/5-4/geometry-ordered/3x3-4/s
                                           z/bulk_layers-4/transmission/exp/capa
                                           citor/sergey/kpoints_bulk-31_em-1-1-1
