 DBCSR| CPU Multiplication driver                                           BLAS
 DBCSR| Multrec recursion limit                                              512
 DBCSR| Multiplication stack size                                           1000
 DBCSR| Maximum elements for images                                    UNLIMITED
 DBCSR| Multiplicative factor virtual images                                   1
 DBCSR| Use multiplication densification                                       T
 DBCSR| Multiplication size stacks                                             3
 DBCSR| Use memory pool for CPU allocation                                     F
 DBCSR| Number of 3D layers                                               SINGLE
 DBCSR| Use MPI memory allocation                                              F
 DBCSR| Use RMA algorithm                                                      F
 DBCSR| Use Communication thread                                               T
 DBCSR| Communication thread load                                             87
 DBCSR| MPI: My node id                                                        0
 DBCSR| MPI: Number of nodes                                                  64
 DBCSR| OMP: Current number of threads                                         1
 DBCSR| OMP: Max number of threads                                             1
 DBCSR| Split modifier for TAS multiplication algorithm                  1.0E+00


  **** **** ******  **  PROGRAM STARTED AT               2023-11-22 16:29:50.957
 ***** ** ***  *** **   PROGRAM STARTED ON                             nid003130
 **    ****   ******    PROGRAM STARTED BY                                cahart
 ***** **    ** ** **   PROGRAM PROCESS ID                                180412
  **** **  *******  **  PROGRAM STARTED IN /mnt/lustre/a2fs-work2/work/e05/e05/c
                                           ahart/postdoc/transport/cp2k-smeagol-
                                           examples/benchmarking/cp2k-smeagol/au
                                           -bdt/NEnergReal-64_kpoints-1-1-20/ato
                                           ms-662/omp-1_V-1

 CP2K| version string:                 CP2K version 2022.1 (Development Version)
 CP2K| source code revision number:                                  git:215a478
 CP2K| cp2kflags: omp libint fftw3 libxc elpa parallel mpi3 scalapack mkl       
 CP2K| is freely available from                            https://www.cp2k.org/
 CP2K| Program compiled at                          Mon 30 Oct 16:32:24 GMT 2023
 CP2K| Program compiled on                                                  ln03
 CP2K| Program compiled for                                                local
 CP2K| Data directory path    /work/e05/e05/cahart/smeagol/smgl/cp2k-private-ser
 CP2K| Input file name                                                  4_1V.inp

 GLOBAL| Force Environment number                                              1
 GLOBAL| Basis set file name                                        BASIS_MOLOPT
 GLOBAL| Potential file name                                      GTH_POTENTIALS
 GLOBAL| MM Potential file name                                     MM_POTENTIAL
 GLOBAL| Coordinate file name                                             em.xyz
 GLOBAL| Method name                                                        CP2K
 GLOBAL| Project name                                                         1V
 GLOBAL| Run type                                                         ENERGY
 GLOBAL| FFT library                                                       FFTW3
 GLOBAL| Diagonalization library                                            ELPA
 GLOBAL| Minimum number of eigenvectors for ELPA usage                        16
 GLOBAL| Orthonormality check for eigenvectors                          DISABLED
 GLOBAL| Matrix multiplication library                                 ScaLAPACK
 GLOBAL| All-to-all communication in single precision                          F
 GLOBAL| FFTs using library dependent lengths                                  T
 GLOBAL| Grid backend                                                       AUTO
 GLOBAL| Global print level                                               MEDIUM
 GLOBAL| MPI I/O enabled                                                       T
 GLOBAL| Total number of message passing processes                            64
 GLOBAL| Number of threads for this process                                    1
 GLOBAL| This output is from process                                           0
 GLOBAL| Stack size for threads created by OpenMP (OMP_STACKSIZE)        default
 GLOBAL| CPU model name                          AMD EPYC 7742 64-Core Processor
 GLOBAL| CPUID                                                              1002

 MEMORY| system memory details [Kb]
 MEMORY|                        rank 0           min           max       average
 MEMORY| MemTotal            263341976     263341976     263341976     263341976
 MEMORY| MemFree             239214476     239214476     239214476     239214476
 MEMORY| Buffers                     0             0             0             0
 MEMORY| Cached                7432328       7432328       7432328       7432328
 MEMORY| Slab                  3403932       3403932       3403932       3403932
 MEMORY| SReclaimable           138000        138000        138000        138000
 MEMORY| MemLikelyFree       246784804     246784804     246784804     246784804


 *** Fundamental physical constants (SI units) ***

 *** Literature: B. J. Mohr and B. N. Taylor,
 ***             CODATA recommended values of the fundamental physical
 ***             constants: 2006, Web Version 5.1
 ***             http://physics.nist.gov/constants

 Speed of light in vacuum [m/s]                             2.99792458000000E+08
 Magnetic constant or permeability of vacuum [N/A**2]       1.25663706143592E-06
 Electric constant or permittivity of vacuum [F/m]          8.85418781762039E-12
 Planck constant (h) [J*s]                                  6.62606896000000E-34
 Planck constant (h-bar) [J*s]                              1.05457162825177E-34
 Elementary charge [C]                                      1.60217648700000E-19
 Electron mass [kg]                                         9.10938215000000E-31
 Electron g factor [ ]                                     -2.00231930436220E+00
 Proton mass [kg]                                           1.67262163700000E-27
 Fine-structure constant                                    7.29735253760000E-03
 Rydberg constant [1/m]                                     1.09737315685270E+07
 Avogadro constant [1/mol]                                  6.02214179000000E+23
 Boltzmann constant [J/K]                                   1.38065040000000E-23
 Atomic mass unit [kg]                                      1.66053878200000E-27
 Bohr radius [m]                                            5.29177208590000E-11

 *** Conversion factors ***

 [u] -> [a.u.]                                              1.82288848426455E+03
 [Angstrom] -> [Bohr] = [a.u.]                              1.88972613288564E+00
 [a.u.] = [Bohr] -> [Angstrom]                              5.29177208590000E-01
 [a.u.] -> [s]                                              2.41888432650478E-17
 [a.u.] -> [fs]                                             2.41888432650478E-02
 [a.u.] -> [J]                                              4.35974393937059E-18
 [a.u.] -> [N]                                              8.23872205491840E-08
 [a.u.] -> [K]                                              3.15774647902944E+05
 [a.u.] -> [kJ/mol]                                         2.62549961709828E+03
 [a.u.] -> [kcal/mol]                                       6.27509468713739E+02
 [a.u.] -> [Pa]                                             2.94210107994716E+13
 [a.u.] -> [bar]                                            2.94210107994716E+08
 [a.u.] -> [atm]                                            2.90362800883016E+08
 [a.u.] -> [eV]                                             2.72113838565563E+01
 [a.u.] -> [Hz]                                             6.57968392072181E+15
 [a.u.] -> [1/cm] (wave numbers)                            2.19474631370540E+05
 [a.u./Bohr**2] -> [1/cm]                                   5.14048714338585E+03
 

 CELL_TOP| Volume [angstrom^3]:                                     14836.098640
 CELL_TOP| Vector a [angstrom    20.730     0.000     0.000   |a| =    20.730000
 CELL_TOP| Vector b [angstrom     0.000    20.730     0.000   |b| =    20.730000
 CELL_TOP| Vector c [angstrom     0.000     0.000    34.524   |c| =    34.524000
 CELL_TOP| Angle (b,c), alpha [degree]:                                90.000000
 CELL_TOP| Angle (a,c), beta  [degree]:                                90.000000
 CELL_TOP| Angle (a,b), gamma [degree]:                                90.000000
 CELL_TOP| Numerically orthorhombic:                                         YES
 CELL_TOP| Periodicity                                                       XYZ

 GENERATE|  Preliminary Number of Bonds generated:                             0
 GENERATE|  Achieved consistency in connectivity generation.

 CELL| Volume [angstrom^3]:                                         14836.098640
 CELL| Vector a [angstrom]:      20.730     0.000     0.000   |a| =    20.730000
 CELL| Vector b [angstrom]:       0.000    20.730     0.000   |b| =    20.730000
 CELL| Vector c [angstrom]:       0.000     0.000    34.524   |c| =    34.524000
 CELL| Angle (b,c), alpha [degree]:                                    90.000000
 CELL| Angle (a,c), beta  [degree]:                                    90.000000
 CELL| Angle (a,b), gamma [degree]:                                    90.000000
 CELL| Numerically orthorhombic:                                             YES
 CELL| Periodicity                                                           XYZ

 CELL_REF| Volume [angstrom^3]:                                     14836.098640
 CELL_REF| Vector a [angstrom    20.730     0.000     0.000   |a| =    20.730000
 CELL_REF| Vector b [angstrom     0.000    20.730     0.000   |b| =    20.730000
 CELL_REF| Vector c [angstrom     0.000     0.000    34.524   |c| =    34.524000
 CELL_REF| Angle (b,c), alpha [degree]:                                90.000000
 CELL_REF| Angle (a,c), beta  [degree]:                                90.000000
 CELL_REF| Angle (a,b), gamma [degree]:                                90.000000
 CELL_REF| Numerically orthorhombic:                                         YES
 CELL_REF| Periodicity                                                       XYZ

 *** WARNING in cryssym.F:165 :: Symmetry library SPGLIB not available ***


 *******************************************************************************
                                    Kpoints
 *******************************************************************************
 BRILLOUIN| K-point scheme                                        Monkhorst-Pack
 BRILLOUIN| K-Point grid                                             1    1    1
 BRILLOUIN| Accuracy in Symmetry determination                      0.100000E-07
 BRILLOUIN| K-Point point group symmetrization                               OFF
 BRILLOUIN| Wavefunction type                                            COMPLEX
 BRILLOUIN| Use full k-point grid     
 BRILLOUIN| List of Kpoints [2 Pi/Bohr]                                        1
 BRILLOUIN| Number           Weight            X              Y              Z
 BRILLOUIN|     1           1.00000        0.00000        0.00000        0.00000
 *******************************************************************************

 *******************************************************************************
 *******************************************************************************
 **                                                                           **
 **     #####                         ##              ##                      **
 **    ##   ##            ##          ##              ##                      **
 **   ##     ##                       ##            ######                    **
 **   ##     ##  ##   ##  ##   #####  ##  ##   ####   ##    #####    #####    **
 **   ##     ##  ##   ##  ##  ##      ## ##   ##      ##   ##   ##  ##   ##   **
 **   ##  ## ##  ##   ##  ##  ##      ####     ###    ##   ######   ######    **
 **    ##  ###   ##   ##  ##  ##      ## ##      ##   ##   ##       ##        **
 **     #######   #####   ##   #####  ##  ##  ####    ##    #####   ##        **
 **           ##                                                    ##        **
 **                                                                           **
 **                                                ... make the atoms dance   **
 **                                                                           **
 **            Copyright (C) by CP2K developers group (2000-2022)             **
 **                      J. Chem. Phys. 152, 194103 (2020)                    **
 **                                                                           **
 *******************************************************************************

 DFT| Spin restricted Kohn-Sham (RKS) calculation                            RKS
 DFT| Multiplicity                                                             1
 DFT| Number of spin states                                                    1
 DFT| Charge                                                                   0
 DFT| Self-interaction correction (SIC)                                       NO
 DFT| Cutoffs: density                                              1.000000E-10
 DFT|          gradient                                             1.000000E-10
 DFT|          tau                                                  1.000000E-10
 DFT|          cutoff_smoothing_range                               0.000000E+00
 DFT| XC density smoothing                                                  NONE
 DFT| XC derivatives                                                          PW

 FUNCTIONAL| PADE:
 FUNCTIONAL| S. Goedecker, M. Teter and J. Hutter, Phys. Rev. B 54, 1703 (1996) 


 QS| Method:                                                                 GPW
 QS| Density plane wave grid type                        NON-SPHERICAL FULLSPACE
 QS| Number of grid levels:                                                    4
 QS| Density cutoff [a.u.]:                                                200.0
 QS| Multi grid cutoff [a.u.]: 1) grid level                               200.0
 QS|                           2) grid level                                66.7
 QS|                           3) grid level                                22.2
 QS|                           4) grid level                                 7.4
 QS| Grid level progression factor:                                          3.0
 QS| Relative density cutoff [a.u.]:                                        20.0
 QS| Interaction thresholds: eps_pgf_orb:                                1.0E-05
 QS|                         eps_filter_matrix:                          0.0E+00
 QS|                         eps_core_charge:                            1.0E-12
 QS|                         eps_rho_gspace:                             1.0E-10
 QS|                         eps_rho_rspace:                             1.0E-10
 QS|                         eps_gvg_rspace:                             1.0E-05
 QS|                         eps_ppl:                                    1.0E-02
 QS|                         eps_ppnl:                                   1.0E-07


 ATOMIC KIND INFORMATION

  1. Atomic kind: Au                                    Number of atoms:     650

     Orbital Basis Set                                         SZV-MOLOPT-SR-GTH

       Number of orbital shell sets:                                           1
       Number of orbital shells:                                               3
       Number of primitive Cartesian functions:                                5
       Number of Cartesian basis functions:                                   10
       Number of spherical basis functions:                                    9
       Norm type:                                                              2

       Normalised Cartesian orbitals:

                        Set   Shell   Orbital            Exponent    Coefficient

                          1       1    2s                2.950008       0.074626
                                                         1.563057      -0.007898
                                                         0.666664      -0.297688
                                                         0.251083       0.136809
                                                         0.081714       0.088198

                          1       2    3px               2.950008       0.148824
                                                         1.563057       0.025430
                                                         0.666664      -0.123003
                                                         0.251083       0.033648
                                                         0.081714       0.059008
                          1       2    3py               2.950008       0.148824
                                                         1.563057       0.025430
                                                         0.666664      -0.123003
                                                         0.251083       0.033648
                                                         0.081714       0.059008
                          1       2    3pz               2.950008       0.148824
                                                         1.563057       0.025430
                                                         0.666664      -0.123003
                                                         0.251083       0.033648
                                                         0.081714       0.059008

                          1       3    4dx2              2.950008      -0.139595
                                                         1.563057       1.319655
                                                         0.666664       0.377081
                                                         0.251083       0.046872
                                                         0.081714       0.001393
                          1       3    4dxy              2.950008      -0.241786
                                                         1.563057       2.285709
                                                         0.666664       0.653124
                                                         0.251083       0.081185
                                                         0.081714       0.002412
                          1       3    4dxz              2.950008      -0.241786
                                                         1.563057       2.285709
                                                         0.666664       0.653124
                                                         0.251083       0.081185
                                                         0.081714       0.002412
                          1       3    4dy2              2.950008      -0.139595
                                                         1.563057       1.319655
                                                         0.666664       0.377081
                                                         0.251083       0.046872
                                                         0.081714       0.001393
                          1       3    4dyz              2.950008      -0.241786
                                                         1.563057       2.285709
                                                         0.666664       0.653124
                                                         0.251083       0.081185
                                                         0.081714       0.002412
                          1       3    4dz2              2.950008      -0.139595
                                                         1.563057       1.319655
                                                         0.666664       0.377081
                                                         0.251083       0.046872
                                                         0.081714       0.001393

       Atomic covalent radius [Angstrom]:                                  1.340

       Atomic van der Waals radius [Angstrom]:                             1.660

     GTH Potential information for                                  GTH-PADE-q11

       Description:                       Goedecker-Teter-Hutter pseudopotential
                                           Goedecker et al., PRB 54, 1703 (1996)
                                          Hartwigsen et al., PRB 58, 3641 (1998)
                                                      Krack, TCA 114, 145 (2005)

       Gaussian exponent of the core charge distribution:               1.436369
       Electronic configuration (s p d ...):                           1   0  10

       Parameters of the local part of the GTH pseudopotential:

                          rloc        C1          C2          C3          C4
                        0.590000   11.604428

       Parameters of the non-local part of the GTH pseudopotential:

                   l      r(l)      h(i,j,l)

                   0    0.521180    2.538614   -1.046137
                                   -1.046137    2.701113
                   1    0.630613    0.394853   -0.869592
                                   -0.869592    2.057831
                   2    0.440706   -4.719070    0.727771
                                    0.727771   -1.650429

  2. Atomic kind: S                                     Number of atoms:       2

     Orbital Basis Set                                        DZVP-MOLOPT-SR-GTH

       Number of orbital shell sets:                                           1
       Number of orbital shells:                                               5
       Number of primitive Cartesian functions:                                4
       Number of Cartesian basis functions:                                   14
       Number of spherical basis functions:                                   13
       Norm type:                                                              2

       Normalised Cartesian orbitals:

                        Set   Shell   Orbital            Exponent    Coefficient

                          1       1    2s                2.215855       0.308496
                                                         1.131471       0.138505
                                                         0.410168      -0.373736
                                                         0.140587      -0.040370

                          1       2    3s                2.215855      -0.329528
                                                         1.131471      -0.517509
                                                         0.410168       0.787368
                                                         0.140587      -0.322786

                          1       3    3px               2.215855       0.420434
                                                         1.131471      -0.319283
                                                         0.410168      -0.335323
                                                         0.140587      -0.030976
                          1       3    3py               2.215855       0.420434
                                                         1.131471      -0.319283
                                                         0.410168      -0.335323
                                                         0.140587      -0.030976
                          1       3    3pz               2.215855       0.420434
                                                         1.131471      -0.319283
                                                         0.410168      -0.335323
                                                         0.140587      -0.030976

                          1       4    4px               2.215855       0.241296
                                                         1.131471      -0.170582
                                                         0.410168      -0.186977
                                                         0.140587       0.153509
                          1       4    4py               2.215855       0.241296
                                                         1.131471      -0.170582
                                                         0.410168      -0.186977
                                                         0.140587       0.153509
                          1       4    4pz               2.215855       0.241296
                                                         1.131471      -0.170582
                                                         0.410168      -0.186977
                                                         0.140587       0.153509

                          1       5    4dx2              2.215855       0.573559
                                                         1.131471       0.544926
                                                         0.410168       0.228284
                                                         0.140587       0.008811
                          1       5    4dxy              2.215855       0.993434
                                                         1.131471       0.943840
                                                         0.410168       0.395400
                                                         0.140587       0.015260
                          1       5    4dxz              2.215855       0.993434
                                                         1.131471       0.943840
                                                         0.410168       0.395400
                                                         0.140587       0.015260
                          1       5    4dy2              2.215855       0.573559
                                                         1.131471       0.544926
                                                         0.410168       0.228284
                                                         0.140587       0.008811
                          1       5    4dyz              2.215855       0.993434
                                                         1.131471       0.943840
                                                         0.410168       0.395400
                                                         0.140587       0.015260
                          1       5    4dz2              2.215855       0.573559
                                                         1.131471       0.544926
                                                         0.410168       0.228284
                                                         0.140587       0.008811

       Atomic covalent radius [Angstrom]:                                  1.020

       Atomic van der Waals radius [Angstrom]:                             1.800

     GTH Potential information for                                   GTH-PADE-q6

       Description:                       Goedecker-Teter-Hutter pseudopotential
                                           Goedecker et al., PRB 54, 1703 (1996)
                                          Hartwigsen et al., PRB 58, 3641 (1998)
                                                      Krack, TCA 114, 145 (2005)

       Gaussian exponent of the core charge distribution:               2.834467
       Electronic configuration (s p d ...):                               2   4

       Parameters of the local part of the GTH pseudopotential:

                          rloc        C1          C2          C3          C4
                        0.420000   -6.554492

       Parameters of the non-local part of the GTH pseudopotential:

                   l      r(l)      h(i,j,l)

                   0    0.361757    7.905303   -1.731881
                                   -1.731881    4.471698
                   1    0.405285    3.866579

  3. Atomic kind: C                                     Number of atoms:       6

     Orbital Basis Set                                        DZVP-MOLOPT-SR-GTH

       Number of orbital shell sets:                                           1
       Number of orbital shells:                                               5
       Number of primitive Cartesian functions:                                5
       Number of Cartesian basis functions:                                   14
       Number of spherical basis functions:                                   13
       Norm type:                                                              2

       Normalised Cartesian orbitals:

                        Set   Shell   Orbital            Exponent    Coefficient

                          1       1    2s                5.605331       0.322515
                                                         2.113016       0.213043
                                                         0.769911      -0.209686
                                                         0.348157      -0.219794
                                                         0.128212      -0.022789

                          1       2    3s                5.605331       0.552234
                                                         2.113016       0.082072
                                                         0.769911       0.007843
                                                         0.348157       0.136893
                                                         0.128212       0.074283

                          1       3    3px               5.605331      -0.703879
                                                         2.113016      -0.642521
                                                         0.769911      -0.374851
                                                         0.348157      -0.139743
                                                         0.128212      -0.027849
                          1       3    3py               5.605331      -0.703879
                                                         2.113016      -0.642521
                                                         0.769911      -0.374851
                                                         0.348157      -0.139743
                                                         0.128212      -0.027849
                          1       3    3pz               5.605331      -0.703879
                                                         2.113016      -0.642521
                                                         0.769911      -0.374851
                                                         0.348157      -0.139743
                                                         0.128212      -0.027849

                          1       4    4px               5.605331      -0.480376
                                                         2.113016      -0.552894
                                                         0.769911      -0.316145
                                                         0.348157       0.210505
                                                         0.128212       0.076095
                          1       4    4py               5.605331      -0.480376
                                                         2.113016      -0.552894
                                                         0.769911      -0.316145
                                                         0.348157       0.210505
                                                         0.128212       0.076095
                          1       4    4pz               5.605331      -0.480376
                                                         2.113016      -0.552894
                                                         0.769911      -0.316145
                                                         0.348157       0.210505
                                                         0.128212       0.076095

                          1       5    4dx2              5.605331       0.640026
                                                         2.113016       0.274300
                                                         0.769911       0.446711
                                                         0.348157       0.028674
                                                         0.128212       0.029790
                          1       5    4dxy              5.605331       1.108557
                                                         2.113016       0.475102
                                                         0.769911       0.773726
                                                         0.348157       0.049666
                                                         0.128212       0.051599
                          1       5    4dxz              5.605331       1.108557
                                                         2.113016       0.475102
                                                         0.769911       0.773726
                                                         0.348157       0.049666
                                                         0.128212       0.051599
                          1       5    4dy2              5.605331       0.640026
                                                         2.113016       0.274300
                                                         0.769911       0.446711
                                                         0.348157       0.028674
                                                         0.128212       0.029790
                          1       5    4dyz              5.605331       1.108557
                                                         2.113016       0.475102
                                                         0.769911       0.773726
                                                         0.348157       0.049666
                                                         0.128212       0.051599
                          1       5    4dz2              5.605331       0.640026
                                                         2.113016       0.274300
                                                         0.769911       0.446711
                                                         0.348157       0.028674
                                                         0.128212       0.029790

       Atomic covalent radius [Angstrom]:                                  0.770

       Atomic van der Waals radius [Angstrom]:                             1.700

     GTH Potential information for                                   GTH-PADE-q4

       Description:                       Goedecker-Teter-Hutter pseudopotential
                                           Goedecker et al., PRB 54, 1703 (1996)
                                          Hartwigsen et al., PRB 58, 3641 (1998)
                                                      Krack, TCA 114, 145 (2005)

       Gaussian exponent of the core charge distribution:               4.109048
       Electronic configuration (s p d ...):                               2   2

       Parameters of the local part of the GTH pseudopotential:

                          rloc        C1          C2          C3          C4
                        0.348830   -8.513771    1.228432

       Parameters of the non-local part of the GTH pseudopotential:

                   l      r(l)      h(i,j,l)

                   0    0.304553    9.522842
                   1    0.232677

  4. Atomic kind: H                                     Number of atoms:       4

     Orbital Basis Set                                        DZVP-MOLOPT-SR-GTH

       Number of orbital shell sets:                                           1
       Number of orbital shells:                                               3
       Number of primitive Cartesian functions:                                5
       Number of Cartesian basis functions:                                    5
       Number of spherical basis functions:                                    5
       Norm type:                                                              2

       Normalised Cartesian orbitals:

                        Set   Shell   Orbital            Exponent    Coefficient

                          1       1    2s               10.068468      -0.133023
                                                         2.680223      -0.177618
                                                         0.791502      -0.258419
                                                         0.239116      -0.107525
                                                         0.082193      -0.014019

                          1       2    3s               10.068468       0.344673
                                                         2.680223       1.819821
                                                         0.791502      -0.999069
                                                         0.239116       0.017430
                                                         0.082193       0.082660

                          1       3    3px              10.068468       0.155326
                                                         2.680223       0.367157
                                                         0.791502       0.311480
                                                         0.239116       0.080105
                                                         0.082193       0.033440
                          1       3    3py              10.068468       0.155326
                                                         2.680223       0.367157
                                                         0.791502       0.311480
                                                         0.239116       0.080105
                                                         0.082193       0.033440
                          1       3    3pz              10.068468       0.155326
                                                         2.680223       0.367157
                                                         0.791502       0.311480
                                                         0.239116       0.080105
                                                         0.082193       0.033440

       Atomic covalent radius [Angstrom]:                                  0.320

       Atomic van der Waals radius [Angstrom]:                             1.090

     GTH Potential information for                                   GTH-PADE-q1

       Description:                       Goedecker-Teter-Hutter pseudopotential
                                           Goedecker et al., PRB 54, 1703 (1996)
                                          Hartwigsen et al., PRB 58, 3641 (1998)
                                                      Krack, TCA 114, 145 (2005)

       Gaussian exponent of the core charge distribution:              12.500000
       Electronic configuration (s p d ...):                                   1

       Parameters of the local part of the GTH pseudopotential:

                          rloc        C1          C2          C3          C4
                        0.200000   -4.180237    0.725075


 MOLECULE KIND INFORMATION


 All atoms are their own molecule, skipping detailed information


 TOTAL NUMBERS AND MAXIMUM NUMBERS

  Total number of            - Atomic kinds:                                   4
                             - Atoms:                                        662
                             - Shell sets:                                   662
                             - Shells:                                      2002
                             - Primitive Cartesian functions:               3308
                             - Cartesian basis functions:                   6632
                             - Spherical basis functions:                   5974

  Maximum angular momentum of- Orbital basis functions:                        2
                             - Local part of the GTH pseudopotential:          2
                             - Non-local part of the GTH pseudopotential:      4


 MODULE QUICKSTEP: ATOMIC COORDINATES IN ANGSTROM

   Atom Kind Element         X             Y             Z       Z(eff)     Mass
      1    1 Au   79      0.000000      0.000000      0.000000  11.0000 196.9666
      2    1 Au   79      0.000000      4.146000      0.000000  11.0000 196.9666
      3    1 Au   79      0.000000      8.292000      0.000000  11.0000 196.9666
      4    1 Au   79      0.000000     12.438000      0.000000  11.0000 196.9666
      5    1 Au   79      0.000000     16.584000      0.000000  11.0000 196.9666
      6    1 Au   79      2.073000      2.073000      0.000000  11.0000 196.9666
      7    1 Au   79      2.073000      6.219000      0.000000  11.0000 196.9666
      8    1 Au   79      2.073000     10.365000      0.000000  11.0000 196.9666
      9    1 Au   79      2.073000     14.511000      0.000000  11.0000 196.9666
     10    1 Au   79      2.073000     18.657000      0.000000  11.0000 196.9666
     11    1 Au   79      4.146000      0.000000      0.000000  11.0000 196.9666
     12    1 Au   79      4.146000      4.146000      0.000000  11.0000 196.9666
     13    1 Au   79      4.146000      8.292000      0.000000  11.0000 196.9666
     14    1 Au   79      4.146000     12.438000      0.000000  11.0000 196.9666
     15    1 Au   79      4.146000     16.584000      0.000000  11.0000 196.9666
     16    1 Au   79      6.219000      2.073000      0.000000  11.0000 196.9666
     17    1 Au   79      6.219000      6.219000      0.000000  11.0000 196.9666
     18    1 Au   79      6.219000     10.365000      0.000000  11.0000 196.9666
     19    1 Au   79      6.219000     14.511000      0.000000  11.0000 196.9666
     20    1 Au   79      6.219000     18.657000      0.000000  11.0000 196.9666
     21    1 Au   79      8.292000      0.000000      0.000000  11.0000 196.9666
     22    1 Au   79      8.292000      4.146000      0.000000  11.0000 196.9666
     23    1 Au   79      8.292000      8.292000      0.000000  11.0000 196.9666
     24    1 Au   79      8.292000     12.438000      0.000000  11.0000 196.9666
     25    1 Au   79      8.292000     16.584000      0.000000  11.0000 196.9666
     26    1 Au   79     10.365000      2.073000      0.000000  11.0000 196.9666
     27    1 Au   79     10.365000      6.219000      0.000000  11.0000 196.9666
     28    1 Au   79     10.365000     10.365000      0.000000  11.0000 196.9666
     29    1 Au   79     10.365000     14.511000      0.000000  11.0000 196.9666
     30    1 Au   79     10.365000     18.657000      0.000000  11.0000 196.9666
     31    1 Au   79     12.438000      0.000000      0.000000  11.0000 196.9666
     32    1 Au   79     12.438000      4.146000      0.000000  11.0000 196.9666
     33    1 Au   79     12.438000      8.292000      0.000000  11.0000 196.9666
     34    1 Au   79     12.438000     12.438000      0.000000  11.0000 196.9666
     35    1 Au   79     12.438000     16.584000      0.000000  11.0000 196.9666
     36    1 Au   79     14.511000      2.073000      0.000000  11.0000 196.9666
     37    1 Au   79     14.511000      6.219000      0.000000  11.0000 196.9666
     38    1 Au   79     14.511000     10.365000      0.000000  11.0000 196.9666
     39    1 Au   79     14.511000     14.511000      0.000000  11.0000 196.9666
     40    1 Au   79     14.511000     18.657000      0.000000  11.0000 196.9666
     41    1 Au   79     16.584000      0.000000      0.000000  11.0000 196.9666
     42    1 Au   79     16.584000      4.146000      0.000000  11.0000 196.9666
     43    1 Au   79     16.584000      8.292000      0.000000  11.0000 196.9666
     44    1 Au   79     16.584000     12.438000      0.000000  11.0000 196.9666
     45    1 Au   79     16.584000     16.584000      0.000000  11.0000 196.9666
     46    1 Au   79     18.657000      2.073000      0.000000  11.0000 196.9666
     47    1 Au   79     18.657000      6.219000      0.000000  11.0000 196.9666
     48    1 Au   79     18.657000     10.365000      0.000000  11.0000 196.9666
     49    1 Au   79     18.657000     14.511000      0.000000  11.0000 196.9666
     50    1 Au   79     18.657000     18.657000      0.000000  11.0000 196.9666
     51    1 Au   79      0.000000      2.073000      2.073000  11.0000 196.9666
     52    1 Au   79      0.000000      6.219000      2.073000  11.0000 196.9666
     53    1 Au   79      0.000000     10.365000      2.073000  11.0000 196.9666
     54    1 Au   79      0.000000     14.511000      2.073000  11.0000 196.9666
     55    1 Au   79      0.000000     18.657000      2.073000  11.0000 196.9666
     56    1 Au   79      2.073000      0.000000      2.073000  11.0000 196.9666
     57    1 Au   79      2.073000      4.146000      2.073000  11.0000 196.9666
     58    1 Au   79      2.073000      8.292000      2.073000  11.0000 196.9666
     59    1 Au   79      2.073000     12.438000      2.073000  11.0000 196.9666
     60    1 Au   79      2.073000     16.584000      2.073000  11.0000 196.9666
     61    1 Au   79      4.146000      2.073000      2.073000  11.0000 196.9666
     62    1 Au   79      4.146000      6.219000      2.073000  11.0000 196.9666
     63    1 Au   79      4.146000     10.365000      2.073000  11.0000 196.9666
     64    1 Au   79      4.146000     14.511000      2.073000  11.0000 196.9666
     65    1 Au   79      4.146000     18.657000      2.073000  11.0000 196.9666
     66    1 Au   79      6.219000      0.000000      2.073000  11.0000 196.9666
     67    1 Au   79      6.219000      4.146000      2.073000  11.0000 196.9666
     68    1 Au   79      6.219000      8.292000      2.073000  11.0000 196.9666
     69    1 Au   79      6.219000     12.438000      2.073000  11.0000 196.9666
     70    1 Au   79      6.219000     16.584000      2.073000  11.0000 196.9666
     71    1 Au   79      8.292000      2.073000      2.073000  11.0000 196.9666
     72    1 Au   79      8.292000      6.219000      2.073000  11.0000 196.9666
     73    1 Au   79      8.292000     10.365000      2.073000  11.0000 196.9666
     74    1 Au   79      8.292000     14.511000      2.073000  11.0000 196.9666
     75    1 Au   79      8.292000     18.657000      2.073000  11.0000 196.9666
     76    1 Au   79     10.365000      0.000000      2.073000  11.0000 196.9666
     77    1 Au   79     10.365000      4.146000      2.073000  11.0000 196.9666
     78    1 Au   79     10.365000      8.292000      2.073000  11.0000 196.9666
     79    1 Au   79     10.365000     12.438000      2.073000  11.0000 196.9666
     80    1 Au   79     10.365000     16.584000      2.073000  11.0000 196.9666
     81    1 Au   79     12.438000      2.073000      2.073000  11.0000 196.9666
     82    1 Au   79     12.438000      6.219000      2.073000  11.0000 196.9666
     83    1 Au   79     12.438000     10.365000      2.073000  11.0000 196.9666
     84    1 Au   79     12.438000     14.511000      2.073000  11.0000 196.9666
     85    1 Au   79     12.438000     18.657000      2.073000  11.0000 196.9666
     86    1 Au   79     14.511000      0.000000      2.073000  11.0000 196.9666
     87    1 Au   79     14.511000      4.146000      2.073000  11.0000 196.9666
     88    1 Au   79     14.511000      8.292000      2.073000  11.0000 196.9666
     89    1 Au   79     14.511000     12.438000      2.073000  11.0000 196.9666
     90    1 Au   79     14.511000     16.584000      2.073000  11.0000 196.9666
     91    1 Au   79     16.584000      2.073000      2.073000  11.0000 196.9666
     92    1 Au   79     16.584000      6.219000      2.073000  11.0000 196.9666
     93    1 Au   79     16.584000     10.365000      2.073000  11.0000 196.9666
     94    1 Au   79     16.584000     14.511000      2.073000  11.0000 196.9666
     95    1 Au   79     16.584000     18.657000      2.073000  11.0000 196.9666
     96    1 Au   79     18.657000      0.000000      2.073000  11.0000 196.9666
     97    1 Au   79     18.657000      4.146000      2.073000  11.0000 196.9666
     98    1 Au   79     18.657000      8.292000      2.073000  11.0000 196.9666
     99    1 Au   79     18.657000     12.438000      2.073000  11.0000 196.9666
    100    1 Au   79     18.657000     16.584000      2.073000  11.0000 196.9666
    101    1 Au   79      0.000000      0.000000      4.146000  11.0000 196.9666
    102    1 Au   79      0.000000      4.146000      4.146000  11.0000 196.9666
    103    1 Au   79      0.000000      8.292000      4.146000  11.0000 196.9666
    104    1 Au   79      0.000000     12.438000      4.146000  11.0000 196.9666
    105    1 Au   79      0.000000     16.584000      4.146000  11.0000 196.9666
    106    1 Au   79      2.073000      2.073000      4.146000  11.0000 196.9666
    107    1 Au   79      2.073000      6.219000      4.146000  11.0000 196.9666
    108    1 Au   79      2.073000     10.365000      4.146000  11.0000 196.9666
    109    1 Au   79      2.073000     14.511000      4.146000  11.0000 196.9666
    110    1 Au   79      2.073000     18.657000      4.146000  11.0000 196.9666
    111    1 Au   79      4.146000      0.000000      4.146000  11.0000 196.9666
    112    1 Au   79      4.146000      4.146000      4.146000  11.0000 196.9666
    113    1 Au   79      4.146000      8.292000      4.146000  11.0000 196.9666
    114    1 Au   79      4.146000     12.438000      4.146000  11.0000 196.9666
    115    1 Au   79      4.146000     16.584000      4.146000  11.0000 196.9666
    116    1 Au   79      6.219000      2.073000      4.146000  11.0000 196.9666
    117    1 Au   79      6.219000      6.219000      4.146000  11.0000 196.9666
    118    1 Au   79      6.219000     10.365000      4.146000  11.0000 196.9666
    119    1 Au   79      6.219000     14.511000      4.146000  11.0000 196.9666
    120    1 Au   79      6.219000     18.657000      4.146000  11.0000 196.9666
    121    1 Au   79      8.292000      0.000000      4.146000  11.0000 196.9666
    122    1 Au   79      8.292000      4.146000      4.146000  11.0000 196.9666
    123    1 Au   79      8.292000      8.292000      4.146000  11.0000 196.9666
    124    1 Au   79      8.292000     12.438000      4.146000  11.0000 196.9666
    125    1 Au   79      8.292000     16.584000      4.146000  11.0000 196.9666
    126    1 Au   79     10.365000      2.073000      4.146000  11.0000 196.9666
    127    1 Au   79     10.365000      6.219000      4.146000  11.0000 196.9666
    128    1 Au   79     10.365000     10.365000      4.146000  11.0000 196.9666
    129    1 Au   79     10.365000     14.511000      4.146000  11.0000 196.9666
    130    1 Au   79     10.365000     18.657000      4.146000  11.0000 196.9666
    131    1 Au   79     12.438000      0.000000      4.146000  11.0000 196.9666
    132    1 Au   79     12.438000      4.146000      4.146000  11.0000 196.9666
    133    1 Au   79     12.438000      8.292000      4.146000  11.0000 196.9666
    134    1 Au   79     12.438000     12.438000      4.146000  11.0000 196.9666
    135    1 Au   79     12.438000     16.584000      4.146000  11.0000 196.9666
    136    1 Au   79     14.511000      2.073000      4.146000  11.0000 196.9666
    137    1 Au   79     14.511000      6.219000      4.146000  11.0000 196.9666
    138    1 Au   79     14.511000     10.365000      4.146000  11.0000 196.9666
    139    1 Au   79     14.511000     14.511000      4.146000  11.0000 196.9666
    140    1 Au   79     14.511000     18.657000      4.146000  11.0000 196.9666
    141    1 Au   79     16.584000      0.000000      4.146000  11.0000 196.9666
    142    1 Au   79     16.584000      4.146000      4.146000  11.0000 196.9666
    143    1 Au   79     16.584000      8.292000      4.146000  11.0000 196.9666
    144    1 Au   79     16.584000     12.438000      4.146000  11.0000 196.9666
    145    1 Au   79     16.584000     16.584000      4.146000  11.0000 196.9666
    146    1 Au   79     18.657000      2.073000      4.146000  11.0000 196.9666
    147    1 Au   79     18.657000      6.219000      4.146000  11.0000 196.9666
    148    1 Au   79     18.657000     10.365000      4.146000  11.0000 196.9666
    149    1 Au   79     18.657000     14.511000      4.146000  11.0000 196.9666
    150    1 Au   79     18.657000     18.657000      4.146000  11.0000 196.9666
    151    1 Au   79      0.000000      2.073000      6.219000  11.0000 196.9666
    152    1 Au   79      0.000000      6.219000      6.219000  11.0000 196.9666
    153    1 Au   79      0.000000     10.365000      6.219000  11.0000 196.9666
    154    1 Au   79      0.000000     14.511000      6.219000  11.0000 196.9666
    155    1 Au   79      0.000000     18.657000      6.219000  11.0000 196.9666
    156    1 Au   79      2.073000      0.000000      6.219000  11.0000 196.9666
    157    1 Au   79      2.073000      4.146000      6.219000  11.0000 196.9666
    158    1 Au   79      2.073000      8.292000      6.219000  11.0000 196.9666
    159    1 Au   79      2.073000     12.438000      6.219000  11.0000 196.9666
    160    1 Au   79      2.073000     16.584000      6.219000  11.0000 196.9666
    161    1 Au   79      4.146000      2.073000      6.219000  11.0000 196.9666
    162    1 Au   79      4.146000      6.219000      6.219000  11.0000 196.9666
    163    1 Au   79      4.146000     10.365000      6.219000  11.0000 196.9666
    164    1 Au   79      4.146000     14.511000      6.219000  11.0000 196.9666
    165    1 Au   79      4.146000     18.657000      6.219000  11.0000 196.9666
    166    1 Au   79      6.219000      0.000000      6.219000  11.0000 196.9666
    167    1 Au   79      6.219000      4.146000      6.219000  11.0000 196.9666
    168    1 Au   79      6.219000      8.292000      6.219000  11.0000 196.9666
    169    1 Au   79      6.219000     12.438000      6.219000  11.0000 196.9666
    170    1 Au   79      6.219000     16.584000      6.219000  11.0000 196.9666
    171    1 Au   79      8.292000      2.073000      6.219000  11.0000 196.9666
    172    1 Au   79      8.292000      6.219000      6.219000  11.0000 196.9666
    173    1 Au   79      8.292000     10.365000      6.219000  11.0000 196.9666
    174    1 Au   79      8.292000     14.511000      6.219000  11.0000 196.9666
    175    1 Au   79      8.292000     18.657000      6.219000  11.0000 196.9666
    176    1 Au   79     10.365000      0.000000      6.219000  11.0000 196.9666
    177    1 Au   79     10.365000      4.146000      6.219000  11.0000 196.9666
    178    1 Au   79     10.365000      8.292000      6.219000  11.0000 196.9666
    179    1 Au   79     10.365000     12.438000      6.219000  11.0000 196.9666
    180    1 Au   79     10.365000     16.584000      6.219000  11.0000 196.9666
    181    1 Au   79     12.438000      2.073000      6.219000  11.0000 196.9666
    182    1 Au   79     12.438000      6.219000      6.219000  11.0000 196.9666
    183    1 Au   79     12.438000     10.365000      6.219000  11.0000 196.9666
    184    1 Au   79     12.438000     14.511000      6.219000  11.0000 196.9666
    185    1 Au   79     12.438000     18.657000      6.219000  11.0000 196.9666
    186    1 Au   79     14.511000      0.000000      6.219000  11.0000 196.9666
    187    1 Au   79     14.511000      4.146000      6.219000  11.0000 196.9666
    188    1 Au   79     14.511000      8.292000      6.219000  11.0000 196.9666
    189    1 Au   79     14.511000     12.438000      6.219000  11.0000 196.9666
    190    1 Au   79     14.511000     16.584000      6.219000  11.0000 196.9666
    191    1 Au   79     16.584000      2.073000      6.219000  11.0000 196.9666
    192    1 Au   79     16.584000      6.219000      6.219000  11.0000 196.9666
    193    1 Au   79     16.584000     10.365000      6.219000  11.0000 196.9666
    194    1 Au   79     16.584000     14.511000      6.219000  11.0000 196.9666
    195    1 Au   79     16.584000     18.657000      6.219000  11.0000 196.9666
    196    1 Au   79     18.657000      0.000000      6.219000  11.0000 196.9666
    197    1 Au   79     18.657000      4.146000      6.219000  11.0000 196.9666
    198    1 Au   79     18.657000      8.292000      6.219000  11.0000 196.9666
    199    1 Au   79     18.657000     12.438000      6.219000  11.0000 196.9666
    200    1 Au   79     18.657000     16.584000      6.219000  11.0000 196.9666
    201    1 Au   79      0.000000      0.000000      8.292000  11.0000 196.9666
    202    1 Au   79      0.000000      4.146000      8.292000  11.0000 196.9666
    203    1 Au   79      0.000000      8.292000      8.292000  11.0000 196.9666
    204    1 Au   79      0.000000     12.438000      8.292000  11.0000 196.9666
    205    1 Au   79      0.000000     16.584000      8.292000  11.0000 196.9666
    206    1 Au   79      2.073000      2.073000      8.292000  11.0000 196.9666
    207    1 Au   79      2.073000      6.219000      8.292000  11.0000 196.9666
    208    1 Au   79      2.073000     10.365000      8.292000  11.0000 196.9666
    209    1 Au   79      2.073000     14.511000      8.292000  11.0000 196.9666
    210    1 Au   79      2.073000     18.657000      8.292000  11.0000 196.9666
    211    1 Au   79      4.146000      0.000000      8.292000  11.0000 196.9666
    212    1 Au   79      4.146000      4.146000      8.292000  11.0000 196.9666
    213    1 Au   79      4.146000      8.292000      8.292000  11.0000 196.9666
    214    1 Au   79      4.146000     12.438000      8.292000  11.0000 196.9666
    215    1 Au   79      4.146000     16.584000      8.292000  11.0000 196.9666
    216    1 Au   79      6.219000      2.073000      8.292000  11.0000 196.9666
    217    1 Au   79      6.219000      6.219000      8.292000  11.0000 196.9666
    218    1 Au   79      6.219000     10.365000      8.292000  11.0000 196.9666
    219    1 Au   79      6.219000     14.511000      8.292000  11.0000 196.9666
    220    1 Au   79      6.219000     18.657000      8.292000  11.0000 196.9666
    221    1 Au   79      8.292000      0.000000      8.292000  11.0000 196.9666
    222    1 Au   79      8.292000      4.146000      8.292000  11.0000 196.9666
    223    1 Au   79      8.292000      8.292000      8.292000  11.0000 196.9666
    224    1 Au   79      8.292000     12.438000      8.292000  11.0000 196.9666
    225    1 Au   79      8.292000     16.584000      8.292000  11.0000 196.9666
    226    1 Au   79     10.365000      2.073000      8.292000  11.0000 196.9666
    227    1 Au   79     10.365000      6.219000      8.292000  11.0000 196.9666
    228    1 Au   79     10.365000     10.365000      8.292000  11.0000 196.9666
    229    1 Au   79     10.365000     14.511000      8.292000  11.0000 196.9666
    230    1 Au   79     10.365000     18.657000      8.292000  11.0000 196.9666
    231    1 Au   79     12.438000      0.000000      8.292000  11.0000 196.9666
    232    1 Au   79     12.438000      4.146000      8.292000  11.0000 196.9666
    233    1 Au   79     12.438000      8.292000      8.292000  11.0000 196.9666
    234    1 Au   79     12.438000     12.438000      8.292000  11.0000 196.9666
    235    1 Au   79     12.438000     16.584000      8.292000  11.0000 196.9666
    236    1 Au   79     14.511000      2.073000      8.292000  11.0000 196.9666
    237    1 Au   79     14.511000      6.219000      8.292000  11.0000 196.9666
    238    1 Au   79     14.511000     10.365000      8.292000  11.0000 196.9666
    239    1 Au   79     14.511000     14.511000      8.292000  11.0000 196.9666
    240    1 Au   79     14.511000     18.657000      8.292000  11.0000 196.9666
    241    1 Au   79     16.584000      0.000000      8.292000  11.0000 196.9666
    242    1 Au   79     16.584000      4.146000      8.292000  11.0000 196.9666
    243    1 Au   79     16.584000      8.292000      8.292000  11.0000 196.9666
    244    1 Au   79     16.584000     12.438000      8.292000  11.0000 196.9666
    245    1 Au   79     16.584000     16.584000      8.292000  11.0000 196.9666
    246    1 Au   79     18.657000      2.073000      8.292000  11.0000 196.9666
    247    1 Au   79     18.657000      6.219000      8.292000  11.0000 196.9666
    248    1 Au   79     18.657000     10.365000      8.292000  11.0000 196.9666
    249    1 Au   79     18.657000     14.511000      8.292000  11.0000 196.9666
    250    1 Au   79     18.657000     18.657000      8.292000  11.0000 196.9666
    251    1 Au   79      0.000000      2.073000     10.365000  11.0000 196.9666
    252    1 Au   79      0.000000      6.219000     10.365000  11.0000 196.9666
    253    1 Au   79      0.000000     10.365000     10.365000  11.0000 196.9666
    254    1 Au   79      0.000000     14.511000     10.365000  11.0000 196.9666
    255    1 Au   79      0.000000     18.657000     10.365000  11.0000 196.9666
    256    1 Au   79      2.073000      0.000000     10.365000  11.0000 196.9666
    257    1 Au   79      2.073000      4.146000     10.365000  11.0000 196.9666
    258    1 Au   79      2.073000      8.292000     10.365000  11.0000 196.9666
    259    1 Au   79      2.073000     12.438000     10.365000  11.0000 196.9666
    260    1 Au   79      2.073000     16.584000     10.365000  11.0000 196.9666
    261    1 Au   79      4.146000      2.073000     10.365000  11.0000 196.9666
    262    1 Au   79      4.146000      6.219000     10.365000  11.0000 196.9666
    263    1 Au   79      4.146000     10.365000     10.365000  11.0000 196.9666
    264    1 Au   79      4.146000     14.511000     10.365000  11.0000 196.9666
    265    1 Au   79      4.146000     18.657000     10.365000  11.0000 196.9666
    266    1 Au   79      6.219000      0.000000     10.365000  11.0000 196.9666
    267    1 Au   79      6.219000      4.146000     10.365000  11.0000 196.9666
    268    1 Au   79      6.219000      8.292000     10.365000  11.0000 196.9666
    269    1 Au   79      6.219000     12.438000     10.365000  11.0000 196.9666
    270    1 Au   79      6.219000     16.584000     10.365000  11.0000 196.9666
    271    1 Au   79      8.292000      2.073000     10.365000  11.0000 196.9666
    272    1 Au   79      8.292000      6.219000     10.365000  11.0000 196.9666
    273    1 Au   79      8.292000     10.365000     10.365000  11.0000 196.9666
    274    1 Au   79      8.292000     14.511000     10.365000  11.0000 196.9666
    275    1 Au   79      8.292000     18.657000     10.365000  11.0000 196.9666
    276    1 Au   79     10.365000      0.000000     10.365000  11.0000 196.9666
    277    1 Au   79     10.365000      4.146000     10.365000  11.0000 196.9666
    278    1 Au   79     10.365000      8.292000     10.365000  11.0000 196.9666
    279    1 Au   79     10.365000     12.438000     10.365000  11.0000 196.9666
    280    1 Au   79     10.365000     16.584000     10.365000  11.0000 196.9666
    281    1 Au   79     12.438000      2.073000     10.365000  11.0000 196.9666
    282    1 Au   79     12.438000      6.219000     10.365000  11.0000 196.9666
    283    1 Au   79     12.438000     10.365000     10.365000  11.0000 196.9666
    284    1 Au   79     12.438000     14.511000     10.365000  11.0000 196.9666
    285    1 Au   79     12.438000     18.657000     10.365000  11.0000 196.9666
    286    1 Au   79     14.511000      0.000000     10.365000  11.0000 196.9666
    287    1 Au   79     14.511000      4.146000     10.365000  11.0000 196.9666
    288    1 Au   79     14.511000      8.292000     10.365000  11.0000 196.9666
    289    1 Au   79     14.511000     12.438000     10.365000  11.0000 196.9666
    290    1 Au   79     14.511000     16.584000     10.365000  11.0000 196.9666
    291    1 Au   79     16.584000      2.073000     10.365000  11.0000 196.9666
    292    1 Au   79     16.584000      6.219000     10.365000  11.0000 196.9666
    293    1 Au   79     16.584000     10.365000     10.365000  11.0000 196.9666
    294    1 Au   79     16.584000     14.511000     10.365000  11.0000 196.9666
    295    1 Au   79     16.584000     18.657000     10.365000  11.0000 196.9666
    296    1 Au   79     18.657000      0.000000     10.365000  11.0000 196.9666
    297    1 Au   79     18.657000      4.146000     10.365000  11.0000 196.9666
    298    1 Au   79     18.657000      8.292000     10.365000  11.0000 196.9666
    299    1 Au   79     18.657000     12.438000     10.365000  11.0000 196.9666
    300    1 Au   79     18.657000     16.584000     10.365000  11.0000 196.9666
    301    1 Au   79      0.000000      0.000000     12.438000  11.0000 196.9666
    302    1 Au   79      0.000000      4.146000     12.438000  11.0000 196.9666
    303    1 Au   79      0.000000      8.292000     12.438000  11.0000 196.9666
    304    1 Au   79      0.000000     12.438000     12.438000  11.0000 196.9666
    305    1 Au   79      0.000000     16.584000     12.438000  11.0000 196.9666
    306    1 Au   79      2.073000      2.073000     12.438000  11.0000 196.9666
    307    1 Au   79      2.073000      6.219000     12.438000  11.0000 196.9666
    308    1 Au   79      2.073000     10.365000     12.438000  11.0000 196.9666
    309    1 Au   79      2.073000     14.511000     12.438000  11.0000 196.9666
    310    1 Au   79      2.073000     18.657000     12.438000  11.0000 196.9666
    311    1 Au   79      4.146000      0.000000     12.438000  11.0000 196.9666
    312    1 Au   79      4.146000      4.146000     12.438000  11.0000 196.9666
    313    1 Au   79      4.146000      8.292000     12.438000  11.0000 196.9666
    314    1 Au   79      4.146000     12.438000     12.438000  11.0000 196.9666
    315    1 Au   79      4.146000     16.584000     12.438000  11.0000 196.9666
    316    1 Au   79      6.219000      2.073000     12.438000  11.0000 196.9666
    317    1 Au   79      6.219000      6.219000     12.438000  11.0000 196.9666
    318    1 Au   79      6.219000     10.365000     12.438000  11.0000 196.9666
    319    1 Au   79      6.219000     14.511000     12.438000  11.0000 196.9666
    320    1 Au   79      6.219000     18.657000     12.438000  11.0000 196.9666
    321    1 Au   79      8.292000      0.000000     12.438000  11.0000 196.9666
    322    1 Au   79      8.292000      4.146000     12.438000  11.0000 196.9666
    323    1 Au   79      8.292000      8.292000     12.438000  11.0000 196.9666
    324    1 Au   79      8.292000     12.438000     12.438000  11.0000 196.9666
    325    1 Au   79      8.292000     16.584000     12.438000  11.0000 196.9666
    326    1 Au   79     10.365000      2.073000     12.438000  11.0000 196.9666
    327    1 Au   79     10.365000      6.219000     12.438000  11.0000 196.9666
    328    1 Au   79     10.365000     10.365000     12.438000  11.0000 196.9666
    329    1 Au   79     10.365000     14.511000     12.438000  11.0000 196.9666
    330    1 Au   79     10.365000     18.657000     12.438000  11.0000 196.9666
    331    1 Au   79     12.438000      0.000000     12.438000  11.0000 196.9666
    332    1 Au   79     12.438000      4.146000     12.438000  11.0000 196.9666
    333    1 Au   79     12.438000      8.292000     12.438000  11.0000 196.9666
    334    1 Au   79     12.438000     12.438000     12.438000  11.0000 196.9666
    335    1 Au   79     12.438000     16.584000     12.438000  11.0000 196.9666
    336    1 Au   79     14.511000      2.073000     12.438000  11.0000 196.9666
    337    1 Au   79     14.511000      6.219000     12.438000  11.0000 196.9666
    338    1 Au   79     14.511000     10.365000     12.438000  11.0000 196.9666
    339    1 Au   79     14.511000     14.511000     12.438000  11.0000 196.9666
    340    1 Au   79     14.511000     18.657000     12.438000  11.0000 196.9666
    341    1 Au   79     16.584000      0.000000     12.438000  11.0000 196.9666
    342    1 Au   79     16.584000      4.146000     12.438000  11.0000 196.9666
    343    1 Au   79     16.584000      8.292000     12.438000  11.0000 196.9666
    344    1 Au   79     16.584000     12.438000     12.438000  11.0000 196.9666
    345    1 Au   79     16.584000     16.584000     12.438000  11.0000 196.9666
    346    1 Au   79     18.657000      2.073000     12.438000  11.0000 196.9666
    347    1 Au   79     18.657000      6.219000     12.438000  11.0000 196.9666
    348    1 Au   79     18.657000     10.365000     12.438000  11.0000 196.9666
    349    1 Au   79     18.657000     14.511000     12.438000  11.0000 196.9666
    350    1 Au   79     18.657000     18.657000     12.438000  11.0000 196.9666
    351    2 S    16      4.146000      2.073000     14.089000   6.0000  32.0650
    352    3 C     6      4.149000      2.077000     15.850000   4.0000  12.0107
    353    4 H     1      2.047000      2.103000     16.033000   1.0000   1.0079
    354    4 H     1      6.244000      2.103000     16.039000   1.0000   1.0079
    355    3 C     6      2.940000      2.083000     16.551000   4.0000  12.0107
    356    3 C     6      5.348000      2.083000     16.551000   4.0000  12.0107
    357    3 C     6      2.933000      2.061000     17.974000   4.0000  12.0107
    358    3 C     6      5.341000      2.061000     17.974000   4.0000  12.0107
    359    4 H     1      2.037000      2.041000     18.485000   1.0000   1.0079
    360    4 H     1      6.234000      2.041000     18.491000   1.0000   1.0079
    361    3 C     6      4.132000      2.067000     18.674000   4.0000  12.0107
    362    2 S    16      4.146000      2.073000     20.436000   6.0000  32.0650
    363    1 Au   79      0.000000      0.000000     22.086000  11.0000 196.9666
    364    1 Au   79      0.000000      4.146000     22.086000  11.0000 196.9666
    365    1 Au   79      0.000000      8.292000     22.086000  11.0000 196.9666
    366    1 Au   79      0.000000     12.438000     22.086000  11.0000 196.9666
    367    1 Au   79      0.000000     16.584000     22.086000  11.0000 196.9666
    368    1 Au   79      2.073000      2.073000     22.086000  11.0000 196.9666
    369    1 Au   79      2.073000      6.219000     22.086000  11.0000 196.9666
    370    1 Au   79      2.073000     10.365000     22.086000  11.0000 196.9666
    371    1 Au   79      2.073000     14.511000     22.086000  11.0000 196.9666
    372    1 Au   79      2.073000     18.657000     22.086000  11.0000 196.9666
    373    1 Au   79      4.146000      0.000000     22.086000  11.0000 196.9666
    374    1 Au   79      4.146000      4.146000     22.086000  11.0000 196.9666
    375    1 Au   79      4.146000      8.292000     22.086000  11.0000 196.9666
    376    1 Au   79      4.146000     12.438000     22.086000  11.0000 196.9666
    377    1 Au   79      4.146000     16.584000     22.086000  11.0000 196.9666
    378    1 Au   79      6.219000      2.073000     22.086000  11.0000 196.9666
    379    1 Au   79      6.219000      6.219000     22.086000  11.0000 196.9666
    380    1 Au   79      6.219000     10.365000     22.086000  11.0000 196.9666
    381    1 Au   79      6.219000     14.511000     22.086000  11.0000 196.9666
    382    1 Au   79      6.219000     18.657000     22.086000  11.0000 196.9666
    383    1 Au   79      8.292000      0.000000     22.086000  11.0000 196.9666
    384    1 Au   79      8.292000      4.146000     22.086000  11.0000 196.9666
    385    1 Au   79      8.292000      8.292000     22.086000  11.0000 196.9666
    386    1 Au   79      8.292000     12.438000     22.086000  11.0000 196.9666
    387    1 Au   79      8.292000     16.584000     22.086000  11.0000 196.9666
    388    1 Au   79     10.365000      2.073000     22.086000  11.0000 196.9666
    389    1 Au   79     10.365000      6.219000     22.086000  11.0000 196.9666
    390    1 Au   79     10.365000     10.365000     22.086000  11.0000 196.9666
    391    1 Au   79     10.365000     14.511000     22.086000  11.0000 196.9666
    392    1 Au   79     10.365000     18.657000     22.086000  11.0000 196.9666
    393    1 Au   79     12.438000      0.000000     22.086000  11.0000 196.9666
    394    1 Au   79     12.438000      4.146000     22.086000  11.0000 196.9666
    395    1 Au   79     12.438000      8.292000     22.086000  11.0000 196.9666
    396    1 Au   79     12.438000     12.438000     22.086000  11.0000 196.9666
    397    1 Au   79     12.438000     16.584000     22.086000  11.0000 196.9666
    398    1 Au   79     14.511000      2.073000     22.086000  11.0000 196.9666
    399    1 Au   79     14.511000      6.219000     22.086000  11.0000 196.9666
    400    1 Au   79     14.511000     10.365000     22.086000  11.0000 196.9666
    401    1 Au   79     14.511000     14.511000     22.086000  11.0000 196.9666
    402    1 Au   79     14.511000     18.657000     22.086000  11.0000 196.9666
    403    1 Au   79     16.584000      0.000000     22.086000  11.0000 196.9666
    404    1 Au   79     16.584000      4.146000     22.086000  11.0000 196.9666
    405    1 Au   79     16.584000      8.292000     22.086000  11.0000 196.9666
    406    1 Au   79     16.584000     12.438000     22.086000  11.0000 196.9666
    407    1 Au   79     16.584000     16.584000     22.086000  11.0000 196.9666
    408    1 Au   79     18.657000      2.073000     22.086000  11.0000 196.9666
    409    1 Au   79     18.657000      6.219000     22.086000  11.0000 196.9666
    410    1 Au   79     18.657000     10.365000     22.086000  11.0000 196.9666
    411    1 Au   79     18.657000     14.511000     22.086000  11.0000 196.9666
    412    1 Au   79     18.657000     18.657000     22.086000  11.0000 196.9666
    413    1 Au   79      0.000000      2.073000     24.159000  11.0000 196.9666
    414    1 Au   79      0.000000      6.219000     24.159000  11.0000 196.9666
    415    1 Au   79      0.000000     10.365000     24.159000  11.0000 196.9666
    416    1 Au   79      0.000000     14.511000     24.159000  11.0000 196.9666
    417    1 Au   79      0.000000     18.657000     24.159000  11.0000 196.9666
    418    1 Au   79      2.073000      0.000000     24.159000  11.0000 196.9666
    419    1 Au   79      2.073000      4.146000     24.159000  11.0000 196.9666
    420    1 Au   79      2.073000      8.292000     24.159000  11.0000 196.9666
    421    1 Au   79      2.073000     12.438000     24.159000  11.0000 196.9666
    422    1 Au   79      2.073000     16.584000     24.159000  11.0000 196.9666
    423    1 Au   79      4.146000      2.073000     24.159000  11.0000 196.9666
    424    1 Au   79      4.146000      6.219000     24.159000  11.0000 196.9666
    425    1 Au   79      4.146000     10.365000     24.159000  11.0000 196.9666
    426    1 Au   79      4.146000     14.511000     24.159000  11.0000 196.9666
    427    1 Au   79      4.146000     18.657000     24.159000  11.0000 196.9666
    428    1 Au   79      6.219000      0.000000     24.159000  11.0000 196.9666
    429    1 Au   79      6.219000      4.146000     24.159000  11.0000 196.9666
    430    1 Au   79      6.219000      8.292000     24.159000  11.0000 196.9666
    431    1 Au   79      6.219000     12.438000     24.159000  11.0000 196.9666
    432    1 Au   79      6.219000     16.584000     24.159000  11.0000 196.9666
    433    1 Au   79      8.292000      2.073000     24.159000  11.0000 196.9666
    434    1 Au   79      8.292000      6.219000     24.159000  11.0000 196.9666
    435    1 Au   79      8.292000     10.365000     24.159000  11.0000 196.9666
    436    1 Au   79      8.292000     14.511000     24.159000  11.0000 196.9666
    437    1 Au   79      8.292000     18.657000     24.159000  11.0000 196.9666
    438    1 Au   79     10.365000      0.000000     24.159000  11.0000 196.9666
    439    1 Au   79     10.365000      4.146000     24.159000  11.0000 196.9666
    440    1 Au   79     10.365000      8.292000     24.159000  11.0000 196.9666
    441    1 Au   79     10.365000     12.438000     24.159000  11.0000 196.9666
    442    1 Au   79     10.365000     16.584000     24.159000  11.0000 196.9666
    443    1 Au   79     12.438000      2.073000     24.159000  11.0000 196.9666
    444    1 Au   79     12.438000      6.219000     24.159000  11.0000 196.9666
    445    1 Au   79     12.438000     10.365000     24.159000  11.0000 196.9666
    446    1 Au   79     12.438000     14.511000     24.159000  11.0000 196.9666
    447    1 Au   79     12.438000     18.657000     24.159000  11.0000 196.9666
    448    1 Au   79     14.511000      0.000000     24.159000  11.0000 196.9666
    449    1 Au   79     14.511000      4.146000     24.159000  11.0000 196.9666
    450    1 Au   79     14.511000      8.292000     24.159000  11.0000 196.9666
    451    1 Au   79     14.511000     12.438000     24.159000  11.0000 196.9666
    452    1 Au   79     14.511000     16.584000     24.159000  11.0000 196.9666
    453    1 Au   79     16.584000      2.073000     24.159000  11.0000 196.9666
    454    1 Au   79     16.584000      6.219000     24.159000  11.0000 196.9666
    455    1 Au   79     16.584000     10.365000     24.159000  11.0000 196.9666
    456    1 Au   79     16.584000     14.511000     24.159000  11.0000 196.9666
    457    1 Au   79     16.584000     18.657000     24.159000  11.0000 196.9666
    458    1 Au   79     18.657000      0.000000     24.159000  11.0000 196.9666
    459    1 Au   79     18.657000      4.146000     24.159000  11.0000 196.9666
    460    1 Au   79     18.657000      8.292000     24.159000  11.0000 196.9666
    461    1 Au   79     18.657000     12.438000     24.159000  11.0000 196.9666
    462    1 Au   79     18.657000     16.584000     24.159000  11.0000 196.9666
    463    1 Au   79      0.000000      0.000000     26.232000  11.0000 196.9666
    464    1 Au   79      0.000000      4.146000     26.232000  11.0000 196.9666
    465    1 Au   79      0.000000      8.292000     26.232000  11.0000 196.9666
    466    1 Au   79      0.000000     12.438000     26.232000  11.0000 196.9666
    467    1 Au   79      0.000000     16.584000     26.232000  11.0000 196.9666
    468    1 Au   79      2.073000      2.073000     26.232000  11.0000 196.9666
    469    1 Au   79      2.073000      6.219000     26.232000  11.0000 196.9666
    470    1 Au   79      2.073000     10.365000     26.232000  11.0000 196.9666
    471    1 Au   79      2.073000     14.511000     26.232000  11.0000 196.9666
    472    1 Au   79      2.073000     18.657000     26.232000  11.0000 196.9666
    473    1 Au   79      4.146000      0.000000     26.232000  11.0000 196.9666
    474    1 Au   79      4.146000      4.146000     26.232000  11.0000 196.9666
    475    1 Au   79      4.146000      8.292000     26.232000  11.0000 196.9666
    476    1 Au   79      4.146000     12.438000     26.232000  11.0000 196.9666
    477    1 Au   79      4.146000     16.584000     26.232000  11.0000 196.9666
    478    1 Au   79      6.219000      2.073000     26.232000  11.0000 196.9666
    479    1 Au   79      6.219000      6.219000     26.232000  11.0000 196.9666
    480    1 Au   79      6.219000     10.365000     26.232000  11.0000 196.9666
    481    1 Au   79      6.219000     14.511000     26.232000  11.0000 196.9666
    482    1 Au   79      6.219000     18.657000     26.232000  11.0000 196.9666
[...]
                                                charge density mixing in g-space
                        --------------------------------------------------------
                        Smear method:                                FERMI_DIRAC
                        Electronic temperature [K]:                        300.0
                        Electronic temperature [a.u.]:                  9.50E-04
                        Accuracy threshold:                             1.00E-10
                        --------------------------------------------------------
                        No outer SCF

 PW_GRID| Information for grid number                                          1
 PW_GRID| Grid distributed over                                    64 processors
 PW_GRID| Real space group dimensions                                    64    1
 PW_GRID| the grid is blocked:                                                NO
 PW_GRID| Cutoff [a.u.]                                                    200.0
 PW_GRID| spherical cutoff:                                                   NO
 PW_GRID|   Bounds   1           -126     125                Points:         252
 PW_GRID|   Bounds   2           -126     125                Points:         252
 PW_GRID|   Bounds   3           -210     209                Points:         420
 PW_GRID| Volume element (a.u.^3)  0.3754E-02     Volume (a.u.^3)    100118.9575
 PW_GRID| Grid span                                                    FULLSPACE
 PW_GRID|   Distribution                         Average         Max         Min
 PW_GRID|   G-Vectors                           416745.0      416808      416556
 PW_GRID|   G-Rays                                1653.8        1654        1653
 PW_GRID|   Real Space Points                   416745.0      423360      317520

 PW_GRID| Information for grid number                                          2
 PW_GRID| Number of the reference grid                                         1
 PW_GRID| Grid distributed over                                    64 processors
 PW_GRID| Real space group dimensions                                    64    1
 PW_GRID| the grid is blocked:                                                NO
 PW_GRID| Cutoff [a.u.]                                                     66.7
 PW_GRID| spherical cutoff:                                                   NO
 PW_GRID|   Bounds   1            -72      71                Points:         144
 PW_GRID|   Bounds   2            -72      71                Points:         144
 PW_GRID|   Bounds   3           -120     119                Points:         240
 PW_GRID| Volume element (a.u.^3)  0.2012E-01     Volume (a.u.^3)    100118.9575
 PW_GRID| Grid span                                                    FULLSPACE
 PW_GRID|   Distribution                         Average         Max         Min
 PW_GRID|   G-Vectors                            77760.0       78624       76464
 PW_GRID|   G-Rays                                 540.0         546         531
 PW_GRID|   Real Space Points                    77760.0      103680       69120

 PW_GRID| Information for grid number                                          3
 PW_GRID| Number of the reference grid                                         1
 PW_GRID| Grid distributed over                                    64 processors
 PW_GRID| Real space group dimensions                                    64    1
 PW_GRID| the grid is blocked:                                                NO
 PW_GRID| Cutoff [a.u.]                                                     22.2
 PW_GRID| spherical cutoff:                                                   NO
 PW_GRID|   Bounds   1            -42      41                Points:          84
 PW_GRID|   Bounds   2            -42      41                Points:          84
 PW_GRID|   Bounds   3            -70      69                Points:         140
 PW_GRID| Volume element (a.u.^3)  0.1014         Volume (a.u.^3)    100118.9575
 PW_GRID| Grid span                                                    FULLSPACE
 PW_GRID|   Distribution                         Average         Max         Min
 PW_GRID|   G-Vectors                            15435.0       16212       14196
 PW_GRID|   G-Rays                                 183.8         193         169
 PW_GRID|   Real Space Points                    15435.0       23520       11760

 PW_GRID| Information for grid number                                          4
 PW_GRID| Number of the reference grid                                         1
 PW_GRID| Grid distributed over                                    64 processors
 PW_GRID| Real space group dimensions                                     8    8
 PW_GRID| the grid is blocked:                                                NO
 PW_GRID| Cutoff [a.u.]                                                      7.4
 PW_GRID| spherical cutoff:                                                   NO
 PW_GRID|   Bounds   1            -24      23                Points:          48
 PW_GRID|   Bounds   2            -24      23                Points:          48
 PW_GRID|   Bounds   3            -40      39                Points:          80
 PW_GRID| Volume element (a.u.^3)  0.5432         Volume (a.u.^3)    100118.9575
 PW_GRID| Grid span                                                    FULLSPACE
 PW_GRID|   Distribution                         Average         Max         Min
 PW_GRID|   G-Vectors                             2880.0        2976        2688
 PW_GRID|   G-Rays                                  60.0          62          56
 PW_GRID|   Real Space Points                     2880.0        2880        2880

 POISSON| Solver                                                        PERIODIC
 POISSON| Periodicity                                                        XYZ

 RS_GRID| Information for grid number                                          1
 RS_GRID|   Bounds   1           -126     125                Points:         252
 RS_GRID|   Bounds   2           -126     125                Points:         252
 RS_GRID|   Bounds   3           -210     209                Points:         420
 RS_GRID| Real space distribution over                                  4 groups
 RS_GRID| Real space distribution along direction                              1
 RS_GRID| Border size                                                         29
 RS_GRID| Real space distribution over                                  4 groups
 RS_GRID| Real space distribution along direction                              2
 RS_GRID| Border size                                                         29
 RS_GRID| Real space distribution over                                  4 groups
 RS_GRID| Real space distribution along direction                              3
 RS_GRID| Border size                                                         29
 RS_GRID|   Distribution                         Average         Max         Min
 RS_GRID|   Planes                                 121.0         121         121
 RS_GRID|   Distribution                         Average         Max         Min
 RS_GRID|   Planes                                 121.0         121         121
 RS_GRID|   Distribution                         Average         Max         Min
 RS_GRID|   Planes                                 163.0         163         163

 RS_GRID| Information for grid number                                          2
 RS_GRID|   Bounds   1            -72      71                Points:         144
 RS_GRID|   Bounds   2            -72      71                Points:         144
 RS_GRID|   Bounds   3           -120     119                Points:         240
 RS_GRID| Real space distribution over                                  4 groups
 RS_GRID| Real space distribution along direction                              1
 RS_GRID| Border size                                                         22
 RS_GRID| Real space distribution over                                  4 groups
 RS_GRID| Real space distribution along direction                              2
 RS_GRID| Border size                                                         22
 RS_GRID| Real space distribution over                                  4 groups
 RS_GRID| Real space distribution along direction                              3
 RS_GRID| Border size                                                         22
 RS_GRID|   Distribution                         Average         Max         Min
 RS_GRID|   Planes                                  80.0          80          80
 RS_GRID|   Distribution                         Average         Max         Min
 RS_GRID|   Planes                                  80.0          80          80
 RS_GRID|   Distribution                         Average         Max         Min
 RS_GRID|   Planes                                 104.0         104         104

 RS_GRID| Information for grid number                                          3
 RS_GRID|   Bounds   1            -42      41                Points:          84
 RS_GRID|   Bounds   2            -42      41                Points:          84
 RS_GRID|   Bounds   3            -70      69                Points:         140
 RS_GRID| Real space fully replicated
 RS_GRID| Group size                                                           1

 RS_GRID| Information for grid number                                          4
 RS_GRID|   Bounds   1            -24      23                Points:          48
 RS_GRID|   Bounds   2            -24      23                Points:          48
 RS_GRID|   Bounds   3            -40      39                Points:          80
 RS_GRID| Real space fully replicated
 RS_GRID| Group size                                                           1

 KPOINTS| Number of kpoint groups                                              1
 KPOINTS| Size of each kpoint group                                           64
 KPOINTS| Number of kpoints per group                                          1

 Number of electrons:                                                       7190
 Number of occupied orbitals:                                               3595
 Number of molecular orbitals:                                              3695

 Number of orbital functions:                                               5974
 Number of independent orbital functions:                                   5974

 Extrapolation method: initial_guess

 Atomic guess: The first density matrix is obtained in terms of atomic orbitals
               and electronic configurations assigned to each atomic kind

 Guess for atomic kind: Au

 Electronic structure
    Total number of core electrons                                         68.00
    Total number of valence electrons                                      11.00
    Total number of electrons                                              79.00
    Multiplicity                                                   not specified
    S   [  2.00  2.00  2.00  2.00  2.00] 1.00
    P   [  6.00  6.00  6.00  6.00]
    D   [ 10.00 10.00]10.00
    F   [ 14.00]


 *******************************************************************************
                  Iteration          Convergence                     Energy [au]
 *******************************************************************************
                          1         0.00000                     -33.033218197848

 Energy components [Hartree]           Total Energy ::          -33.033218197848
                                        Band Energy ::           -1.147505983145
                                     Kinetic Energy ::           24.744064437587
                                   Potential Energy ::          -57.777282635435
                                      Virial (-V/T) ::            2.334995642336
                                        Core Energy ::          -60.197309615488
                                          XC Energy ::           -5.116883226844
                                     Coulomb Energy ::           32.280974644483
                       Total Pseudopotential Energy ::          -85.042885173964
                       Local Pseudopotential Energy ::          -66.341694915099
                    Nonlocal Pseudopotential Energy ::          -18.701190258865
                                        Confinement ::            1.015111208892

 Orbital energies  State     L     Occupation   Energy[a.u.]          Energy[eV]

                       1     0          1.000      -0.213792           -5.817572

                       1     2         10.000      -0.093371           -2.540765


 Total Electron Density at R=0:                                         0.000035

 Guess for atomic kind: S

 Electronic structure
    Total number of core electrons                                         10.00
    Total number of valence electrons                                       6.00
    Total number of electrons                                              16.00
    Multiplicity                                                   not specified
    S   [  2.00  2.00] 2.00
    P   [  6.00] 4.00


 *******************************************************************************
                  Iteration          Convergence                     Energy [au]
 *******************************************************************************
                          1        0.660537E-01                  -9.999037742061
                          2        0.355079E-01                  -9.999866133925
                          3        0.643643E-04                 -10.000216348790
                          4        0.796885E-07                 -10.000216349869

 Energy components [Hartree]           Total Energy ::          -10.000216349869
                                        Band Energy ::           -2.121494693893
                                     Kinetic Energy ::            3.789396533726
                                   Potential Energy ::          -13.789612883596
                                      Virial (-V/T) ::            3.638999709021
                                        Core Energy ::          -16.443520246889
                                          XC Energy ::           -2.069152856162
                                     Coulomb Energy ::            8.512456753182
                       Total Pseudopotential Energy ::          -20.288997453216
                       Local Pseudopotential Energy ::          -22.511640900540
                    Nonlocal Pseudopotential Energy ::            2.222643447324
                                        Confinement ::            0.560806726004

 Orbital energies  State     L     Occupation   Energy[a.u.]          Energy[eV]

                       1     0          2.000      -0.602923          -16.406376

                       1     1          4.000      -0.228912           -6.229013


 Total Electron Density at R=0:                                         0.000007

 Guess for atomic kind: C

 Electronic structure
    Total number of core electrons                                          2.00
    Total number of valence electrons                                       4.00
    Total number of electrons                                               6.00
    Multiplicity                                                   not specified
    S   [  2.00] 2.00
    P      2.00


 *******************************************************************************
                  Iteration          Convergence                     Energy [au]
 *******************************************************************************
                          1        0.186766E-01                  -5.268668754005
                          2        0.653829E-02                  -5.268804464977
                          3        0.876072E-04                  -5.268823127995
                          4        0.591072E-08                  -5.268823131348

 Energy components [Hartree]           Total Energy ::           -5.268823131348
                                        Band Energy ::           -1.059831606115
                                     Kinetic Energy ::            3.570408314829
                                   Potential Energy ::           -8.839231446178
                                      Virial (-V/T) ::            2.475692040449
                                        Core Energy ::           -8.468185581767
                                          XC Energy ::           -1.456932885419
                                     Coulomb Energy ::            4.656295335838
                       Total Pseudopotential Energy ::          -12.068029384961
                       Local Pseudopotential Energy ::          -12.916317339773
                    Nonlocal Pseudopotential Energy ::            0.848287954812
                                        Confinement ::            0.294354883653

 Orbital energies  State     L     Occupation   Energy[a.u.]          Energy[eV]

                       1     0          2.000      -0.408420          -11.113669

                       1     1          2.000      -0.121496           -3.306073


 Total Electron Density at R=0:                                         0.001169

 Guess for atomic kind: H

 Electronic structure
    Total number of core electrons                                          0.00
    Total number of valence electrons                                       1.00
    Total number of electrons                                               1.00
    Multiplicity                                                   not specified
    S      1.00


 *******************************************************************************
                  Iteration          Convergence                     Energy [au]
 *******************************************************************************
                          1        0.250941E-02                  -0.375252439250
                          2        0.570686E-04                  -0.375254289096
                          3        0.832213E-09                  -0.375254290053

 Energy components [Hartree]           Total Energy ::           -0.375254290053
                                        Band Energy ::           -0.076313317586
                                     Kinetic Energy ::            0.771359175731
                                   Potential Energy ::           -1.146613465784
                                      Virial (-V/T) ::            1.486484509239
                                        Core Energy ::           -0.456086259369
                                          XC Energy ::           -0.314218638424
                                     Coulomb Energy ::            0.395050607740
                       Total Pseudopotential Energy ::           -1.238480442282
                       Local Pseudopotential Energy ::           -1.238480442282
                    Nonlocal Pseudopotential Energy ::            0.000000000000
                                        Confinement ::            0.110350071812

 Orbital energies  State     L     Occupation   Energy[a.u.]          Energy[eV]

                       1     0          1.000      -0.076313           -2.076591


 Total Electron Density at R=0:                                         0.425028
 Re-scaling the density matrix to get the right number of electrons
                  # Electrons              Trace(P)               Scaling factor
                         7190              7190.000                        1.000


 SCF WAVEFUNCTION OPTIMIZATION

  Step     Update method      Time    Convergence         Total energy    Change
  ------------------------------------------------------------------------------
 SMEAGOL DEBUG| Number of electrons in the unit cell =      7189.9999999020
