     113
 i =        1, E =     -3690.6404521224
 Au         1.7870000000        1.2810000000        0.0000000000
 Au         0.3090000000        2.7590000000        2.0900000000
 Au         1.7870000000        1.2810000000        4.1800000000
 Au         0.3090000000        2.7590000000        6.2700000000
 Au         4.7430000000        1.2810000000        0.0000000000
 Au         3.2650000000        2.7590000000        2.0900000000
 Au         4.7430000000        1.2810000000        4.1800000000
 Au         3.2650000000        2.7590000000        6.2700000000
 Au         7.6990000000        1.2810000000        0.0000000000
 Au         6.2210000000        2.7590000000        2.0900000000
 Au         7.6990000000        1.2810000000        4.1800000000
 Au         6.2210000000        2.7590000000        6.2700000000
 Au         1.7870000000        4.2360000000        0.0000000000
 Au         0.3090000000        5.7140000000        2.0900000000
 Au         1.7870000000        4.2360000000        4.1800000000
 Au         0.3090000000        5.7140000000        6.2700000000
 Au         4.7430000000        4.2360000000        0.0000000000
 Au         3.2650000000        5.7140000000        2.0900000000
 Au         4.7430000000        4.2360000000        4.1800000000
 Au         3.2650000000        5.7140000000        6.2700000000
 Au         7.6990000000        4.2360000000        0.0000000000
 Au         6.2210000000        5.7140000000        2.0900000000
 Au         7.6990000000        4.2360000000        4.1800000000
 Au         6.2210000000        5.7140000000        6.2700000000
 Au         1.7870000000        7.1920000000        0.0000000000
 Au         0.3090000000        8.6700000000        2.0900000000
 Au         1.7870000000        7.1920000000        4.1800000000
 Au         0.3090000000        8.6700000000        6.2700000000
 Au         4.7430000000        7.1920000000        0.0000000000
 Au         3.2650000000        8.6700000000        2.0900000000
 Au         4.7430000000        7.1920000000        4.1800000000
 Au         3.2650000000        8.6700000000        6.2700000000
 Au         7.6990000000        7.1920000000        0.0000000000
 Au         6.2210000000        8.6700000000        2.0900000000
 Au         7.6990000000        7.1920000000        4.1800000000
 Au         6.2210000000        8.6700000000        6.2700000000
 Au         1.7870000000        1.2810000000        8.3600000000
 Au         1.7870000000        4.2360000000        8.3600000000
 Au         1.7870000000        7.1920000000        8.3600000000
 Au         4.7430000000        1.2810000000        8.3600000000
 Au         4.7430000000        4.2360000000        8.3600000000
 Au         4.7430000000        7.1920000000        8.3600000000
 Au         7.6990000000        1.2810000000        8.3600000000
 Au         7.6990000000        4.2360000000        8.3600000000
 Au         7.6990000000        7.1920000000        8.3600000000
 Au         0.3090000000        2.7590000000       10.4500000000
 Au         0.3090000000        5.7140000000       10.4500000000
 Au         0.3090000000        8.6700000000       10.4500000000
 Au         3.2650000000        2.7590000000       10.4500000000
 Au         3.2650000000        5.7140000000       10.4500000000
 Au         3.2650000000        8.6700000000       10.4500000000
 Au         6.2210000000        2.7590000000       10.4500000000
 Au         6.2210000000        5.7140000000       10.4500000000
 Au         6.2210000000        8.6700000000       10.4500000000
 Au         1.7670000000        4.2150000000       12.4460000000
 Au         1.7660000000        7.2140000000       12.4460000000
 Au         4.7650000000        4.2130000000       12.4460000000
 Au         4.7670000000        7.2140000000       12.4450000000
 Au         3.2659811527        5.7141288508       14.4144947869
 Au         3.4965221471        5.9360464183       17.1454229531
  H         3.2106912037        5.6611885992       18.9236895484
  H         3.3195924420        5.7662559886       19.7984476322
 Au         3.0495480122        5.5056522372       21.5808676302
 Au         3.2544016528        5.7037604184       24.2630989856
 Au         1.7650000000        4.2130000000       26.2750000000
 Au         1.7650000000        7.2140000000       26.2740000000
 Au         4.7650000000        4.2140000000       26.2740000000
 Au         4.7650000000        7.2140000000       26.2750000000
 Au         0.3090000000        2.7590000000       28.2700000000
 Au         0.3090000000        5.7140000000       28.2700000000
 Au         0.3090000000        8.6700000000       28.2700000000
 Au         3.2650000000        2.7590000000       28.2700000000
 Au         3.2650000000        5.7140000000       28.2700000000
 Au         3.2650000000        8.6700000000       28.2700000000
 Au         6.2210000000        2.7590000000       28.2700000000
 Au         6.2210000000        5.7140000000       28.2700000000
 Au         6.2210000000        8.6700000000       28.2700000000
 Au         1.7870000000        1.2810000000       30.3600000000
 Au         0.3090000000        2.7590000000       32.4500000000
 Au         1.7870000000        1.2810000000       34.5400000000
 Au         0.3090000000        2.7590000000       36.6300000000
 Au         4.7430000000        1.2810000000       30.3600000000
 Au         3.2650000000        2.7590000000       32.4500000000
 Au         4.7430000000        1.2810000000       34.5400000000
 Au         3.2650000000        2.7590000000       36.6300000000
 Au         7.6990000000        1.2810000000       30.3600000000
 Au         6.2210000000        2.7590000000       32.4500000000
 Au         7.6990000000        1.2810000000       34.5400000000
 Au         6.2210000000        2.7590000000       36.6300000000
 Au         1.7870000000        4.2360000000       30.3600000000
 Au         0.3090000000        5.7140000000       32.4500000000
 Au         1.7870000000        4.2360000000       34.5400000000
 Au         0.3090000000        5.7140000000       36.6300000000
 Au         4.7430000000        4.2360000000       30.3600000000
 Au         3.2650000000        5.7140000000       32.4500000000
 Au         4.7430000000        4.2360000000       34.5400000000
 Au         3.2650000000        5.7140000000       36.6300000000
 Au         7.6990000000        4.2360000000       30.3600000000
 Au         6.2210000000        5.7140000000       32.4500000000
 Au         7.6990000000        4.2360000000       34.5400000000
 Au         6.2210000000        5.7140000000       36.6300000000
 Au         1.7870000000        7.1920000000       30.3600000000
 Au         0.3090000000        8.6700000000       32.4500000000
 Au         1.7870000000        7.1920000000       34.5400000000
 Au         0.3090000000        8.6700000000       36.6300000000
 Au         4.7430000000        7.1920000000       30.3600000000
 Au         3.2650000000        8.6700000000       32.4500000000
 Au         4.7430000000        7.1920000000       34.5400000000
 Au         3.2650000000        8.6700000000       36.6300000000
 Au         7.6990000000        7.1920000000       30.3600000000
 Au         6.2210000000        8.6700000000       32.4500000000
 Au         7.6990000000        7.1920000000       34.5400000000
 Au         6.2210000000        8.6700000000       36.6300000000
     113
 i =        2, E =     -3690.6402280721
 Au         1.7870000000        1.2810000000        0.0000000000
 Au         0.3090000000        2.7590000000        2.0900000000
 Au         1.7870000000        1.2810000000        4.1800000000
 Au         0.3090000000        2.7590000000        6.2700000000
 Au         4.7430000000        1.2810000000        0.0000000000
 Au         3.2650000000        2.7590000000        2.0900000000
 Au         4.7430000000        1.2810000000        4.1800000000
 Au         3.2650000000        2.7590000000        6.2700000000
 Au         7.6990000000        1.2810000000        0.0000000000
 Au         6.2210000000        2.7590000000        2.0900000000
 Au         7.6990000000        1.2810000000        4.1800000000
 Au         6.2210000000        2.7590000000        6.2700000000
 Au         1.7870000000        4.2360000000        0.0000000000
 Au         0.3090000000        5.7140000000        2.0900000000
 Au         1.7870000000        4.2360000000        4.1800000000
 Au         0.3090000000        5.7140000000        6.2700000000
 Au         4.7430000000        4.2360000000        0.0000000000
 Au         3.2650000000        5.7140000000        2.0900000000
 Au         4.7430000000        4.2360000000        4.1800000000
 Au         3.2650000000        5.7140000000        6.2700000000
 Au         7.6990000000        4.2360000000        0.0000000000
 Au         6.2210000000        5.7140000000        2.0900000000
 Au         7.6990000000        4.2360000000        4.1800000000
 Au         6.2210000000        5.7140000000        6.2700000000
 Au         1.7870000000        7.1920000000        0.0000000000
 Au         0.3090000000        8.6700000000        2.0900000000
 Au         1.7870000000        7.1920000000        4.1800000000
 Au         0.3090000000        8.6700000000        6.2700000000
 Au         4.7430000000        7.1920000000        0.0000000000
 Au         3.2650000000        8.6700000000        2.0900000000
 Au         4.7430000000        7.1920000000        4.1800000000
 Au         3.2650000000        8.6700000000        6.2700000000
 Au         7.6990000000        7.1920000000        0.0000000000
 Au         6.2210000000        8.6700000000        2.0900000000
 Au         7.6990000000        7.1920000000        4.1800000000
 Au         6.2210000000        8.6700000000        6.2700000000
 Au         1.7870000000        1.2810000000        8.3600000000
 Au         1.7870000000        4.2360000000        8.3600000000
 Au         1.7870000000        7.1920000000        8.3600000000
 Au         4.7430000000        1.2810000000        8.3600000000
 Au         4.7430000000        4.2360000000        8.3600000000
 Au         4.7430000000        7.1920000000        8.3600000000
 Au         7.6990000000        1.2810000000        8.3600000000
 Au         7.6990000000        4.2360000000        8.3600000000
 Au         7.6990000000        7.1920000000        8.3600000000
 Au         0.3090000000        2.7590000000       10.4500000000
 Au         0.3090000000        5.7140000000       10.4500000000
 Au         0.3090000000        8.6700000000       10.4500000000
 Au         3.2650000000        2.7590000000       10.4500000000
 Au         3.2650000000        5.7140000000       10.4500000000
 Au         3.2650000000        8.6700000000       10.4500000000
 Au         6.2210000000        2.7590000000       10.4500000000
 Au         6.2210000000        5.7140000000       10.4500000000
 Au         6.2210000000        8.6700000000       10.4500000000
 Au         1.7670000000        4.2150000000       12.4460000000
 Au         1.7660000000        7.2140000000       12.4460000000
 Au         4.7650000000        4.2130000000       12.4460000000
 Au         4.7670000000        7.2140000000       12.4450000000
 Au         3.2626143459        5.7108906451       14.4068129107
 Au         3.4979965208        5.9374788382       17.1367534360
  H         3.2132990924        5.6636892573       18.9156765636
  H         3.3130486950        5.7599404892       19.8015833289
 Au         3.0573299563        5.5131659603       21.5780472011
 Au         3.2472448626        5.6968721716       24.2609075838
 Au         1.7650000000        4.2130000000       26.2750000000
 Au         1.7650000000        7.2140000000       26.2740000000
 Au         4.7650000000        4.2140000000       26.2740000000
 Au         4.7650000000        7.2140000000       26.2750000000
 Au         0.3090000000        2.7590000000       28.2700000000
 Au         0.3090000000        5.7140000000       28.2700000000
 Au         0.3090000000        8.6700000000       28.2700000000
 Au         3.2650000000        2.7590000000       28.2700000000
 Au         3.2650000000        5.7140000000       28.2700000000
 Au         3.2650000000        8.6700000000       28.2700000000
 Au         6.2210000000        2.7590000000       28.2700000000
 Au         6.2210000000        5.7140000000       28.2700000000
 Au         6.2210000000        8.6700000000       28.2700000000
 Au         1.7870000000        1.2810000000       30.3600000000
 Au         0.3090000000        2.7590000000       32.4500000000
 Au         1.7870000000        1.2810000000       34.5400000000
 Au         0.3090000000        2.7590000000       36.6300000000
 Au         4.7430000000        1.2810000000       30.3600000000
 Au         3.2650000000        2.7590000000       32.4500000000
 Au         4.7430000000        1.2810000000       34.5400000000
 Au         3.2650000000        2.7590000000       36.6300000000
 Au         7.6990000000        1.2810000000       30.3600000000
 Au         6.2210000000        2.7590000000       32.4500000000
 Au         7.6990000000        1.2810000000       34.5400000000
 Au         6.2210000000        2.7590000000       36.6300000000
 Au         1.7870000000        4.2360000000       30.3600000000
 Au         0.3090000000        5.7140000000       32.4500000000
 Au         1.7870000000        4.2360000000       34.5400000000
 Au         0.3090000000        5.7140000000       36.6300000000
 Au         4.7430000000        4.2360000000       30.3600000000
 Au         3.2650000000        5.7140000000       32.4500000000
 Au         4.7430000000        4.2360000000       34.5400000000
 Au         3.2650000000        5.7140000000       36.6300000000
 Au         7.6990000000        4.2360000000       30.3600000000
 Au         6.2210000000        5.7140000000       32.4500000000
 Au         7.6990000000        4.2360000000       34.5400000000
 Au         6.2210000000        5.7140000000       36.6300000000
 Au         1.7870000000        7.1920000000       30.3600000000
 Au         0.3090000000        8.6700000000       32.4500000000
 Au         1.7870000000        7.1920000000       34.5400000000
 Au         0.3090000000        8.6700000000       36.6300000000
 Au         4.7430000000        7.1920000000       30.3600000000
 Au         3.2650000000        8.6700000000       32.4500000000
 Au         4.7430000000        7.1920000000       34.5400000000
 Au         3.2650000000        8.6700000000       36.6300000000
 Au         7.6990000000        7.1920000000       30.3600000000
 Au         6.2210000000        8.6700000000       32.4500000000
 Au         7.6990000000        7.1920000000       34.5400000000
 Au         6.2210000000        8.6700000000       36.6300000000
     113
 i =        3, E =     -3690.6369234659
 Au         1.7870000000        1.2810000000        0.0000000000
 Au         0.3090000000        2.7590000000        2.0900000000
 Au         1.7870000000        1.2810000000        4.1800000000
 Au         0.3090000000        2.7590000000        6.2700000000
 Au         4.7430000000        1.2810000000        0.0000000000
 Au         3.2650000000        2.7590000000        2.0900000000
 Au         4.7430000000        1.2810000000        4.1800000000
 Au         3.2650000000        2.7590000000        6.2700000000
 Au         7.6990000000        1.2810000000        0.0000000000
 Au         6.2210000000        2.7590000000        2.0900000000
 Au         7.6990000000        1.2810000000        4.1800000000
 Au         6.2210000000        2.7590000000        6.2700000000
 Au         1.7870000000        4.2360000000        0.0000000000
 Au         0.3090000000        5.7140000000        2.0900000000
 Au         1.7870000000        4.2360000000        4.1800000000
 Au         0.3090000000        5.7140000000        6.2700000000
 Au         4.7430000000        4.2360000000        0.0000000000
 Au         3.2650000000        5.7140000000        2.0900000000
 Au         4.7430000000        4.2360000000        4.1800000000
 Au         3.2650000000        5.7140000000        6.2700000000
 Au         7.6990000000        4.2360000000        0.0000000000
 Au         6.2210000000        5.7140000000        2.0900000000
 Au         7.6990000000        4.2360000000        4.1800000000
 Au         6.2210000000        5.7140000000        6.2700000000
 Au         1.7870000000        7.1920000000        0.0000000000
 Au         0.3090000000        8.6700000000        2.0900000000
 Au         1.7870000000        7.1920000000        4.1800000000
 Au         0.3090000000        8.6700000000        6.2700000000
 Au         4.7430000000        7.1920000000        0.0000000000
 Au         3.2650000000        8.6700000000        2.0900000000
 Au         4.7430000000        7.1920000000        4.1800000000
 Au         3.2650000000        8.6700000000        6.2700000000
 Au         7.6990000000        7.1920000000        0.0000000000
 Au         6.2210000000        8.6700000000        2.0900000000
 Au         7.6990000000        7.1920000000        4.1800000000
 Au         6.2210000000        8.6700000000        6.2700000000
 Au         1.7870000000        1.2810000000        8.3600000000
 Au         1.7870000000        4.2360000000        8.3600000000
 Au         1.7870000000        7.1920000000        8.3600000000
 Au         4.7430000000        1.2810000000        8.3600000000
 Au         4.7430000000        4.2360000000        8.3600000000
 Au         4.7430000000        7.1920000000        8.3600000000
 Au         7.6990000000        1.2810000000        8.3600000000
 Au         7.6990000000        4.2360000000        8.3600000000
 Au         7.6990000000        7.1920000000        8.3600000000
 Au         0.3090000000        2.7590000000       10.4500000000
 Au         0.3090000000        5.7140000000       10.4500000000
 Au         0.3090000000        8.6700000000       10.4500000000
 Au         3.2650000000        2.7590000000       10.4500000000
 Au         3.2650000000        5.7140000000       10.4500000000
 Au         3.2650000000        8.6700000000       10.4500000000
 Au         6.2210000000        2.7590000000       10.4500000000
 Au         6.2210000000        5.7140000000       10.4500000000
 Au         6.2210000000        8.6700000000       10.4500000000
 Au         1.7670000000        4.2150000000       12.4460000000
 Au         1.7660000000        7.2140000000       12.4460000000
 Au         4.7650000000        4.2130000000       12.4460000000
 Au         4.7670000000        7.2140000000       12.4450000000
 Au         3.2538036800        5.7024083923       14.3951115133
 Au         3.5008262572        5.9402458438       17.1184878405
  H         3.2240084962        5.6739679355       18.8889966045
  H         3.2927888979        5.7403880486       19.7980049956
 Au         3.0802645012        5.5353193358       21.5655338418
 Au         3.2288616277        5.6791717911       24.2631355353
 Au         1.7650000000        4.2130000000       26.2750000000
 Au         1.7650000000        7.2140000000       26.2740000000
 Au         4.7650000000        4.2140000000       26.2740000000
 Au         4.7650000000        7.2140000000       26.2750000000
 Au         0.3090000000        2.7590000000       28.2700000000
 Au         0.3090000000        5.7140000000       28.2700000000
 Au         0.3090000000        8.6700000000       28.2700000000
 Au         3.2650000000        2.7590000000       28.2700000000
 Au         3.2650000000        5.7140000000       28.2700000000
 Au         3.2650000000        8.6700000000       28.2700000000
 Au         6.2210000000        2.7590000000       28.2700000000
 Au         6.2210000000        5.7140000000       28.2700000000
 Au         6.2210000000        8.6700000000       28.2700000000
 Au         1.7870000000        1.2810000000       30.3600000000
 Au         0.3090000000        2.7590000000       32.4500000000
 Au         1.7870000000        1.2810000000       34.5400000000
 Au         0.3090000000        2.7590000000       36.6300000000
 Au         4.7430000000        1.2810000000       30.3600000000
 Au         3.2650000000        2.7590000000       32.4500000000
 Au         4.7430000000        1.2810000000       34.5400000000
 Au         3.2650000000        2.7590000000       36.6300000000
 Au         7.6990000000        1.2810000000       30.3600000000
 Au         6.2210000000        2.7590000000       32.4500000000
 Au         7.6990000000        1.2810000000       34.5400000000
 Au         6.2210000000        2.7590000000       36.6300000000
 Au         1.7870000000        4.2360000000       30.3600000000
 Au         0.3090000000        5.7140000000       32.4500000000
 Au         1.7870000000        4.2360000000       34.5400000000
 Au         0.3090000000        5.7140000000       36.6300000000
 Au         4.7430000000        4.2360000000       30.3600000000
 Au         3.2650000000        5.7140000000       32.4500000000
 Au         4.7430000000        4.2360000000       34.5400000000
 Au         3.2650000000        5.7140000000       36.6300000000
 Au         7.6990000000        4.2360000000       30.3600000000
 Au         6.2210000000        5.7140000000       32.4500000000
 Au         7.6990000000        4.2360000000       34.5400000000
 Au         6.2210000000        5.7140000000       36.6300000000
 Au         1.7870000000        7.1920000000       30.3600000000
 Au         0.3090000000        8.6700000000       32.4500000000
 Au         1.7870000000        7.1920000000       34.5400000000
 Au         0.3090000000        8.6700000000       36.6300000000
 Au         4.7430000000        7.1920000000       30.3600000000
 Au         3.2650000000        8.6700000000       32.4500000000
 Au         4.7430000000        7.1920000000       34.5400000000
 Au         3.2650000000        8.6700000000       36.6300000000
 Au         7.6990000000        7.1920000000       30.3600000000
 Au         6.2210000000        8.6700000000       32.4500000000
 Au         7.6990000000        7.1920000000       34.5400000000
 Au         6.2210000000        8.6700000000       36.6300000000
     113
 i =        4, E =     -3690.6367411797
 Au         1.7870000000        1.2810000000        0.0000000000
 Au         0.3090000000        2.7590000000        2.0900000000
 Au         1.7870000000        1.2810000000        4.1800000000
 Au         0.3090000000        2.7590000000        6.2700000000
 Au         4.7430000000        1.2810000000        0.0000000000
 Au         3.2650000000        2.7590000000        2.0900000000
 Au         4.7430000000        1.2810000000        4.1800000000
 Au         3.2650000000        2.7590000000        6.2700000000
 Au         7.6990000000        1.2810000000        0.0000000000
 Au         6.2210000000        2.7590000000        2.0900000000
 Au         7.6990000000        1.2810000000        4.1800000000
 Au         6.2210000000        2.7590000000        6.2700000000
 Au         1.7870000000        4.2360000000        0.0000000000
 Au         0.3090000000        5.7140000000        2.0900000000
 Au         1.7870000000        4.2360000000        4.1800000000
 Au         0.3090000000        5.7140000000        6.2700000000
 Au         4.7430000000        4.2360000000        0.0000000000
 Au         3.2650000000        5.7140000000        2.0900000000
 Au         4.7430000000        4.2360000000        4.1800000000
 Au         3.2650000000        5.7140000000        6.2700000000
 Au         7.6990000000        4.2360000000        0.0000000000
 Au         6.2210000000        5.7140000000        2.0900000000
 Au         7.6990000000        4.2360000000        4.1800000000
 Au         6.2210000000        5.7140000000        6.2700000000
 Au         1.7870000000        7.1920000000        0.0000000000
 Au         0.3090000000        8.6700000000        2.0900000000
 Au         1.7870000000        7.1920000000        4.1800000000
 Au         0.3090000000        8.6700000000        6.2700000000
 Au         4.7430000000        7.1920000000        0.0000000000
 Au         3.2650000000        8.6700000000        2.0900000000
 Au         4.7430000000        7.1920000000        4.1800000000
 Au         3.2650000000        8.6700000000        6.2700000000
 Au         7.6990000000        7.1920000000        0.0000000000
 Au         6.2210000000        8.6700000000        2.0900000000
 Au         7.6990000000        7.1920000000        4.1800000000
 Au         6.2210000000        8.6700000000        6.2700000000
 Au         1.7870000000        1.2810000000        8.3600000000
 Au         1.7870000000        4.2360000000        8.3600000000
 Au         1.7870000000        7.1920000000        8.3600000000
 Au         4.7430000000        1.2810000000        8.3600000000
 Au         4.7430000000        4.2360000000        8.3600000000
 Au         4.7430000000        7.1920000000        8.3600000000
 Au         7.6990000000        1.2810000000        8.3600000000
 Au         7.6990000000        4.2360000000        8.3600000000
 Au         7.6990000000        7.1920000000        8.3600000000
 Au         0.3090000000        2.7590000000       10.4500000000
 Au         0.3090000000        5.7140000000       10.4500000000
 Au         0.3090000000        8.6700000000       10.4500000000
 Au         3.2650000000        2.7590000000       10.4500000000
 Au         3.2650000000        5.7140000000       10.4500000000
 Au         3.2650000000        8.6700000000       10.4500000000
 Au         6.2210000000        2.7590000000       10.4500000000
 Au         6.2210000000        5.7140000000       10.4500000000
 Au         6.2210000000        8.6700000000       10.4500000000
 Au         1.7670000000        4.2150000000       12.4460000000
 Au         1.7660000000        7.2140000000       12.4460000000
 Au         4.7650000000        4.2130000000       12.4460000000
 Au         4.7670000000        7.2140000000       12.4450000000
 Au         3.2502755114        5.6990011146       14.3954287538
 Au         3.5023608375        5.9417512093       17.1108500102
  H         3.2306090109        5.6803044593       18.8714288317
  H         3.2814499012        5.7294385309       19.7874354139
 Au         3.0943090184        5.5488863509       21.5625772293
 Au         3.2217327442        5.6723134873       24.2601018583
 Au         1.7650000000        4.2130000000       26.2750000000
 Au         1.7650000000        7.2140000000       26.2740000000
 Au         4.7650000000        4.2140000000       26.2740000000
 Au         4.7650000000        7.2140000000       26.2750000000
 Au         0.3090000000        2.7590000000       28.2700000000
 Au         0.3090000000        5.7140000000       28.2700000000
 Au         0.3090000000        8.6700000000       28.2700000000
 Au         3.2650000000        2.7590000000       28.2700000000
 Au         3.2650000000        5.7140000000       28.2700000000
 Au         3.2650000000        8.6700000000       28.2700000000
 Au         6.2210000000        2.7590000000       28.2700000000
 Au         6.2210000000        5.7140000000       28.2700000000
 Au         6.2210000000        8.6700000000       28.2700000000
 Au         1.7870000000        1.2810000000       30.3600000000
 Au         0.3090000000        2.7590000000       32.4500000000
 Au         1.7870000000        1.2810000000       34.5400000000
 Au         0.3090000000        2.7590000000       36.6300000000
 Au         4.7430000000        1.2810000000       30.3600000000
 Au         3.2650000000        2.7590000000       32.4500000000
 Au         4.7430000000        1.2810000000       34.5400000000
 Au         3.2650000000        2.7590000000       36.6300000000
 Au         7.6990000000        1.2810000000       30.3600000000
 Au         6.2210000000        2.7590000000       32.4500000000
 Au         7.6990000000        1.2810000000       34.5400000000
 Au         6.2210000000        2.7590000000       36.6300000000
 Au         1.7870000000        4.2360000000       30.3600000000
 Au         0.3090000000        5.7140000000       32.4500000000
 Au         1.7870000000        4.2360000000       34.5400000000
 Au         0.3090000000        5.7140000000       36.6300000000
 Au         4.7430000000        4.2360000000       30.3600000000
 Au         3.2650000000        5.7140000000       32.4500000000
 Au         4.7430000000        4.2360000000       34.5400000000
 Au         3.2650000000        5.7140000000       36.6300000000
 Au         7.6990000000        4.2360000000       30.3600000000
 Au         6.2210000000        5.7140000000       32.4500000000
 Au         7.6990000000        4.2360000000       34.5400000000
 Au         6.2210000000        5.7140000000       36.6300000000
 Au         1.7870000000        7.1920000000       30.3600000000
 Au         0.3090000000        8.6700000000       32.4500000000
 Au         1.7870000000        7.1920000000       34.5400000000
 Au         0.3090000000        8.6700000000       36.6300000000
 Au         4.7430000000        7.1920000000       30.3600000000
 Au         3.2650000000        8.6700000000       32.4500000000
 Au         4.7430000000        7.1920000000       34.5400000000
 Au         3.2650000000        8.6700000000       36.6300000000
 Au         7.6990000000        7.1920000000       30.3600000000
 Au         6.2210000000        8.6700000000       32.4500000000
 Au         7.6990000000        7.1920000000       34.5400000000
 Au         6.2210000000        8.6700000000       36.6300000000
     113
 i =        5, E =     -3690.6366240990
 Au         1.7870000000        1.2810000000        0.0000000000
 Au         0.3090000000        2.7590000000        2.0900000000
 Au         1.7870000000        1.2810000000        4.1800000000
 Au         0.3090000000        2.7590000000        6.2700000000
 Au         4.7430000000        1.2810000000        0.0000000000