 DBCSR| CPU Multiplication driver                                           XSMM
 DBCSR| Multrec recursion limit                                              512
 DBCSR| Multiplication stack size                                           1000
 DBCSR| Maximum elements for images                                    UNLIMITED
 DBCSR| Multiplicative factor virtual images                                   1
 DBCSR| Use multiplication densification                                       T
 DBCSR| Multiplication size stacks                                             3
 DBCSR| Use memory pool for CPU allocation                                     F
 DBCSR| Number of 3D layers                                               SINGLE
 DBCSR| Use MPI memory allocation                                              F
 DBCSR| Use RMA algorithm                                                      F
 DBCSR| Use Communication thread                                               T
 DBCSR| Communication thread load                                             87
 DBCSR| MPI: My node id                                                        0
 DBCSR| MPI: Number of nodes                                                 240
 DBCSR| OMP: Current number of threads                                         1
 DBCSR| OMP: Max number of threads                                             1
 DBCSR| Split modifier for TAS multiplication algorithm                  1.0E+00


  **** **** ******  **  PROGRAM STARTED AT               2023-03-17 10:45:01.588
 ***** ** ***  *** **   PROGRAM STARTED ON                 cn1000.scarf.rl.ac.uk
 **    ****   ******    PROGRAM STARTED BY                             scarf1157
 ***** **    ** ** **   PROGRAM PROCESS ID                                 35652
  **** **  *******  **  PROGRAM STARTED IN /work4/scd/scarf1157/work/testing/cp2
                                           k-smeagol/bdt/cp2k/hollow-site/transp
                                           ort-cp2k/5-4/geometry-ordered/3x3-4/s
                                           z/bulk_layers-4/transmission/exp/capa
                                           citor/sergey-equal/auto/kpoints-20/V-
                                           0_kpoints_bulk-4-4-20_em-4-4-1_hlb-au
                                           to

 CP2K| version string:                 CP2K version 2022.1 (Development Version)
 CP2K| source code revision number:                                  git:e136ce5
 CP2K| cp2kflags: omp fftw3 libxc parallel mpi3 scalapack xsmm spglib           
 CP2K| is freely available from                            https://www.cp2k.org/
 CP2K| Program compiled at                          Thu  9 Mar 17:17:16 GMT 2023
 CP2K| Program compiled on                                 cn1108.scarf.rl.ac.uk
 CP2K| Program compiled for                                                local
 CP2K| Data directory path    /home/vol07/scarf1157/code/smeagol/cp2k-smeagol/sc
 CP2K| Input file name                                              1_bulkLR.inp

 GLOBAL| Force Environment number                                              1
 GLOBAL| Basis set file name                                        BASIS_MOLOPT
 GLOBAL| Potential file name                                      GTH_POTENTIALS
 GLOBAL| MM Potential file name                                     MM_POTENTIAL
 GLOBAL| Coordinate file name                                           bulk.xyz
 GLOBAL| Method name                                                        CP2K
 GLOBAL| Project name                                                       bulk
 GLOBAL| Run type                                                         ENERGY
 GLOBAL| FFT library                                                       FFTW3
 GLOBAL| Diagonalization library                                       ScaLAPACK
 GLOBAL| Orthonormality check for eigenvectors                          DISABLED
 GLOBAL| Matrix multiplication library                                 ScaLAPACK
 GLOBAL| All-to-all communication in single precision                          F
 GLOBAL| FFTs using library dependent lengths                                  T
 GLOBAL| Grid backend                                                       AUTO
 GLOBAL| Global print level                                               MEDIUM
 GLOBAL| MPI I/O enabled                                                       T
 GLOBAL| Total number of message passing processes                           240
 GLOBAL| Number of threads for this process                                    1
 GLOBAL| This output is from process                                           0
 GLOBAL| Stack size for threads created by OpenMP (OMP_STACKSIZE)        default
 GLOBAL| CPU model name                         AMD EPYC 7502P 32-Core Processor
 GLOBAL| CPUID                                                              1002

 MEMORY| system memory details [Kb]
 MEMORY|                        rank 0           min           max       average
 MEMORY| MemTotal            263897776     263896980     263897776     263897081
 MEMORY| MemFree              96337084      96336436     228683320     201960483
 MEMORY| Buffers                  2476           728          3452          2385
 MEMORY| Cached              148093716      19601576     148093716      45733763
 MEMORY| Slab                  1740868       1003428       1740868       1305520
 MEMORY| SReclaimable          1208920        509212       1208920        768268
 MEMORY| MemLikelyFree       245642196     245641060     249238836     248464901


 *** Fundamental physical constants (SI units) ***

 *** Literature: B. J. Mohr and B. N. Taylor,
 ***             CODATA recommended values of the fundamental physical
 ***             constants: 2006, Web Version 5.1
 ***             http://physics.nist.gov/constants

 Speed of light in vacuum [m/s]                             2.99792458000000E+08
 Magnetic constant or permeability of vacuum [N/A**2]       1.25663706143592E-06
 Electric constant or permittivity of vacuum [F/m]          8.85418781762039E-12
 Planck constant (h) [J*s]                                  6.62606896000000E-34
 Planck constant (h-bar) [J*s]                              1.05457162825177E-34
 Elementary charge [C]                                      1.60217648700000E-19
 Electron mass [kg]                                         9.10938215000000E-31
 Electron g factor [ ]                                     -2.00231930436220E+00
 Proton mass [kg]                                           1.67262163700000E-27
 Fine-structure constant                                    7.29735253760000E-03
 Rydberg constant [1/m]                                     1.09737315685270E+07
 Avogadro constant [1/mol]                                  6.02214179000000E+23
 Boltzmann constant [J/K]                                   1.38065040000000E-23
 Atomic mass unit [kg]                                      1.66053878200000E-27
 Bohr radius [m]                                            5.29177208590000E-11

 *** Conversion factors ***

 [u] -> [a.u.]                                              1.82288848426455E+03
 [Angstrom] -> [Bohr] = [a.u.]                              1.88972613288564E+00
 [a.u.] = [Bohr] -> [Angstrom]                              5.29177208590000E-01
 [a.u.] -> [s]                                              2.41888432650478E-17
 [a.u.] -> [fs]                                             2.41888432650478E-02
 [a.u.] -> [J]                                              4.35974393937059E-18
 [a.u.] -> [N]                                              8.23872205491840E-08
 [a.u.] -> [K]                                              3.15774647902944E+05
 [a.u.] -> [kJ/mol]                                         2.62549961709828E+03
 [a.u.] -> [kcal/mol]                                       6.27509468713739E+02
 [a.u.] -> [Pa]                                             2.94210107994716E+13
 [a.u.] -> [bar]                                            2.94210107994716E+08
 [a.u.] -> [atm]                                            2.90362800883016E+08
 [a.u.] -> [eV]                                             2.72113838565563E+01
 [a.u.] -> [Hz]                                             6.57968392072181E+15
 [a.u.] -> [1/cm] (wave numbers)                            2.19474631370540E+05
 [a.u./Bohr**2] -> [1/cm]                                   5.14048714338585E+03
 

 CELL_TOP| Volume [angstrom^3]:                                       579.259437
 CELL_TOP| Vector a [angstrom     8.336     0.000     0.000   |a| =     8.336000
 CELL_TOP| Vector b [angstrom     0.000     8.336     0.000   |b| =     8.336000
 CELL_TOP| Vector c [angstrom     0.000     0.000     8.336   |c| =     8.336000
 CELL_TOP| Angle (b,c), alpha [degree]:                                90.000000
 CELL_TOP| Angle (a,c), beta  [degree]:                                90.000000
 CELL_TOP| Angle (a,b), gamma [degree]:                                90.000000
 CELL_TOP| Numerically orthorhombic:                                         YES
 CELL_TOP| Periodicity                                                       XYZ

 GENERATE|  Preliminary Number of Bonds generated:                             0
 GENERATE|  Achieved consistency in connectivity generation.

 CELL| Volume [angstrom^3]:                                           579.259437
 CELL| Vector a [angstrom]:       8.336     0.000     0.000   |a| =     8.336000
 CELL| Vector b [angstrom]:       0.000     8.336     0.000   |b| =     8.336000
 CELL| Vector c [angstrom]:       0.000     0.000     8.336   |c| =     8.336000
 CELL| Angle (b,c), alpha [degree]:                                    90.000000
 CELL| Angle (a,c), beta  [degree]:                                    90.000000
 CELL| Angle (a,b), gamma [degree]:                                    90.000000
 CELL| Numerically orthorhombic:                                             YES
 CELL| Periodicity                                                           XYZ

 CELL_REF| Volume [angstrom^3]:                                       579.259437
 CELL_REF| Vector a [angstrom     8.336     0.000     0.000   |a| =     8.336000
 CELL_REF| Vector b [angstrom     0.000     8.336     0.000   |b| =     8.336000
 CELL_REF| Vector c [angstrom     0.000     0.000     8.336   |c| =     8.336000
 CELL_REF| Angle (b,c), alpha [degree]:                                90.000000
 CELL_REF| Angle (a,c), beta  [degree]:                                90.000000
 CELL_REF| Angle (a,b), gamma [degree]:                                90.000000
 CELL_REF| Numerically orthorhombic:                                         YES
 CELL_REF| Periodicity                                                       XYZ

 *******************************************************************************
                                    Kpoints
 *******************************************************************************
 BRILLOUIN| K-point scheme                                        Monkhorst-Pack
 BRILLOUIN| K-Point grid                                             4    4   20
 BRILLOUIN| Accuracy in Symmetry determination                      0.100000E-07
 BRILLOUIN| K-Point point group symmetrization                               OFF
 BRILLOUIN| Wavefunction type                                            COMPLEX
 BRILLOUIN| Use full k-point grid     
 BRILLOUIN| List of Kpoints [2 Pi/Bohr]                                      320
 BRILLOUIN| Number           Weight            X              Y              Z
 BRILLOUIN|     1           0.00313       -0.37500       -0.37500       -0.47500
 BRILLOUIN|     2           0.00313       -0.37500       -0.37500       -0.42500
 BRILLOUIN|     3           0.00313       -0.37500       -0.37500       -0.37500
 BRILLOUIN|     4           0.00313       -0.37500       -0.37500       -0.32500
 BRILLOUIN|     5           0.00313       -0.37500       -0.37500       -0.27500
 BRILLOUIN|     6           0.00313       -0.37500       -0.37500       -0.22500
 BRILLOUIN|     7           0.00313       -0.37500       -0.37500       -0.17500
 BRILLOUIN|     8           0.00313       -0.37500       -0.37500       -0.12500
 BRILLOUIN|     9           0.00313       -0.37500       -0.37500       -0.07500
 BRILLOUIN|    10           0.00313       -0.37500       -0.37500       -0.02500
 BRILLOUIN|    11           0.00313       -0.37500       -0.37500        0.02500
 BRILLOUIN|    12           0.00313       -0.37500       -0.37500        0.07500
 BRILLOUIN|    13           0.00313       -0.37500       -0.37500        0.12500
 BRILLOUIN|    14           0.00313       -0.37500       -0.37500        0.17500
 BRILLOUIN|    15           0.00313       -0.37500       -0.37500        0.22500
 BRILLOUIN|    16           0.00313       -0.37500       -0.37500        0.27500
 BRILLOUIN|    17           0.00313       -0.37500       -0.37500        0.32500
 BRILLOUIN|    18           0.00313       -0.37500       -0.37500        0.37500
 BRILLOUIN|    19           0.00313       -0.37500       -0.37500        0.42500
 BRILLOUIN|    20           0.00313       -0.37500       -0.37500        0.47500
 BRILLOUIN|    21           0.00313       -0.37500       -0.12500       -0.47500
 BRILLOUIN|    22           0.00313       -0.37500       -0.12500       -0.42500
 BRILLOUIN|    23           0.00313       -0.37500       -0.12500       -0.37500
 BRILLOUIN|    24           0.00313       -0.37500       -0.12500       -0.32500
 BRILLOUIN|    25           0.00313       -0.37500       -0.12500       -0.27500
 BRILLOUIN|    26           0.00313       -0.37500       -0.12500       -0.22500
 BRILLOUIN|    27           0.00313       -0.37500       -0.12500       -0.17500
 BRILLOUIN|    28           0.00313       -0.37500       -0.12500       -0.12500
 BRILLOUIN|    29           0.00313       -0.37500       -0.12500       -0.07500
 BRILLOUIN|    30           0.00313       -0.37500       -0.12500       -0.02500
 BRILLOUIN|    31           0.00313       -0.37500       -0.12500        0.02500
 BRILLOUIN|    32           0.00313       -0.37500       -0.12500        0.07500
 BRILLOUIN|    33           0.00313       -0.37500       -0.12500        0.12500
 BRILLOUIN|    34           0.00313       -0.37500       -0.12500        0.17500
 BRILLOUIN|    35           0.00313       -0.37500       -0.12500        0.22500
 BRILLOUIN|    36           0.00313       -0.37500       -0.12500        0.27500
 BRILLOUIN|    37           0.00313       -0.37500       -0.12500        0.32500
 BRILLOUIN|    38           0.00313       -0.37500       -0.12500        0.37500
 BRILLOUIN|    39           0.00313       -0.37500       -0.12500        0.42500
 BRILLOUIN|    40           0.00313       -0.37500       -0.12500        0.47500
 BRILLOUIN|    41           0.00313       -0.37500        0.12500       -0.47500
 BRILLOUIN|    42           0.00313       -0.37500        0.12500       -0.42500
 BRILLOUIN|    43           0.00313       -0.37500        0.12500       -0.37500
 BRILLOUIN|    44           0.00313       -0.37500        0.12500       -0.32500
 BRILLOUIN|    45           0.00313       -0.37500        0.12500       -0.27500
 BRILLOUIN|    46           0.00313       -0.37500        0.12500       -0.22500
 BRILLOUIN|    47           0.00313       -0.37500        0.12500       -0.17500
 BRILLOUIN|    48           0.00313       -0.37500        0.12500       -0.12500
 BRILLOUIN|    49           0.00313       -0.37500        0.12500       -0.07500
 BRILLOUIN|    50           0.00313       -0.37500        0.12500       -0.02500
 BRILLOUIN|    51           0.00313       -0.37500        0.12500        0.02500
 BRILLOUIN|    52           0.00313       -0.37500        0.12500        0.07500
 BRILLOUIN|    53           0.00313       -0.37500        0.12500        0.12500
 BRILLOUIN|    54           0.00313       -0.37500        0.12500        0.17500
 BRILLOUIN|    55           0.00313       -0.37500        0.12500        0.22500
 BRILLOUIN|    56           0.00313       -0.37500        0.12500        0.27500
 BRILLOUIN|    57           0.00313       -0.37500        0.12500        0.32500
 BRILLOUIN|    58           0.00313       -0.37500        0.12500        0.37500
 BRILLOUIN|    59           0.00313       -0.37500        0.12500        0.42500
 BRILLOUIN|    60           0.00313       -0.37500        0.12500        0.47500
 BRILLOUIN|    61           0.00313       -0.37500        0.37500       -0.47500
 BRILLOUIN|    62           0.00313       -0.37500        0.37500       -0.42500
 BRILLOUIN|    63           0.00313       -0.37500        0.37500       -0.37500
 BRILLOUIN|    64           0.00313       -0.37500        0.37500       -0.32500
 BRILLOUIN|    65           0.00313       -0.37500        0.37500       -0.27500
 BRILLOUIN|    66           0.00313       -0.37500        0.37500       -0.22500
 BRILLOUIN|    67           0.00313       -0.37500        0.37500       -0.17500
 BRILLOUIN|    68           0.00313       -0.37500        0.37500       -0.12500
 BRILLOUIN|    69           0.00313       -0.37500        0.37500       -0.07500
 BRILLOUIN|    70           0.00313       -0.37500        0.37500       -0.02500
 BRILLOUIN|    71           0.00313       -0.37500        0.37500        0.02500
 BRILLOUIN|    72           0.00313       -0.37500        0.37500        0.07500
 BRILLOUIN|    73           0.00313       -0.37500        0.37500        0.12500
 BRILLOUIN|    74           0.00313       -0.37500        0.37500        0.17500
 BRILLOUIN|    75           0.00313       -0.37500        0.37500        0.22500
 BRILLOUIN|    76           0.00313       -0.37500        0.37500        0.27500
 BRILLOUIN|    77           0.00313       -0.37500        0.37500        0.32500
 BRILLOUIN|    78           0.00313       -0.37500        0.37500        0.37500
 BRILLOUIN|    79           0.00313       -0.37500        0.37500        0.42500
 BRILLOUIN|    80           0.00313       -0.37500        0.37500        0.47500
 BRILLOUIN|    81           0.00313       -0.12500       -0.37500       -0.47500
 BRILLOUIN|    82           0.00313       -0.12500       -0.37500       -0.42500
 BRILLOUIN|    83           0.00313       -0.12500       -0.37500       -0.37500
 BRILLOUIN|    84           0.00313       -0.12500       -0.37500       -0.32500
 BRILLOUIN|    85           0.00313       -0.12500       -0.37500       -0.27500
 BRILLOUIN|    86           0.00313       -0.12500       -0.37500       -0.22500
 BRILLOUIN|    87           0.00313       -0.12500       -0.37500       -0.17500
 BRILLOUIN|    88           0.00313       -0.12500       -0.37500       -0.12500
 BRILLOUIN|    89           0.00313       -0.12500       -0.37500       -0.07500
 BRILLOUIN|    90           0.00313       -0.12500       -0.37500       -0.02500
 BRILLOUIN|    91           0.00313       -0.12500       -0.37500        0.02500
 BRILLOUIN|    92           0.00313       -0.12500       -0.37500        0.07500
 BRILLOUIN|    93           0.00313       -0.12500       -0.37500        0.12500
 BRILLOUIN|    94           0.00313       -0.12500       -0.37500        0.17500
 BRILLOUIN|    95           0.00313       -0.12500       -0.37500        0.22500
 BRILLOUIN|    96           0.00313       -0.12500       -0.37500        0.27500
 BRILLOUIN|    97           0.00313       -0.12500       -0.37500        0.32500
 BRILLOUIN|    98           0.00313       -0.12500       -0.37500        0.37500
 BRILLOUIN|    99           0.00313       -0.12500       -0.37500        0.42500
 BRILLOUIN|   100           0.00313       -0.12500       -0.37500        0.47500
 BRILLOUIN|   101           0.00313       -0.12500       -0.12500       -0.47500
 BRILLOUIN|   102           0.00313       -0.12500       -0.12500       -0.42500
 BRILLOUIN|   103           0.00313       -0.12500       -0.12500       -0.37500
 BRILLOUIN|   104           0.00313       -0.12500       -0.12500       -0.32500
 BRILLOUIN|   105           0.00313       -0.12500       -0.12500       -0.27500
 BRILLOUIN|   106           0.00313       -0.12500       -0.12500       -0.22500
 BRILLOUIN|   107           0.00313       -0.12500       -0.12500       -0.17500
 BRILLOUIN|   108           0.00313       -0.12500       -0.12500       -0.12500
 BRILLOUIN|   109           0.00313       -0.12500       -0.12500       -0.07500
 BRILLOUIN|   110           0.00313       -0.12500       -0.12500       -0.02500
 BRILLOUIN|   111           0.00313       -0.12500       -0.12500        0.02500
 BRILLOUIN|   112           0.00313       -0.12500       -0.12500        0.07500
 BRILLOUIN|   113           0.00313       -0.12500       -0.12500        0.12500
 BRILLOUIN|   114           0.00313       -0.12500       -0.12500        0.17500
 BRILLOUIN|   115           0.00313       -0.12500       -0.12500        0.22500
 BRILLOUIN|   116           0.00313       -0.12500       -0.12500        0.27500
 BRILLOUIN|   117           0.00313       -0.12500       -0.12500        0.32500
 BRILLOUIN|   118           0.00313       -0.12500       -0.12500        0.37500
 BRILLOUIN|   119           0.00313       -0.12500       -0.12500        0.42500
 BRILLOUIN|   120           0.00313       -0.12500       -0.12500        0.47500
 BRILLOUIN|   121           0.00313       -0.12500        0.12500       -0.47500
 BRILLOUIN|   122           0.00313       -0.12500        0.12500       -0.42500
 BRILLOUIN|   123           0.00313       -0.12500        0.12500       -0.37500
 BRILLOUIN|   124           0.00313       -0.12500        0.12500       -0.32500
 BRILLOUIN|   125           0.00313       -0.12500        0.12500       -0.27500
 BRILLOUIN|   126           0.00313       -0.12500        0.12500       -0.22500
 BRILLOUIN|   127           0.00313       -0.12500        0.12500       -0.17500
 BRILLOUIN|   128           0.00313       -0.12500        0.12500       -0.12500
 BRILLOUIN|   129           0.00313       -0.12500        0.12500       -0.07500
 BRILLOUIN|   130           0.00313       -0.12500        0.12500       -0.02500
 BRILLOUIN|   131           0.00313       -0.12500        0.12500        0.02500
 BRILLOUIN|   132           0.00313       -0.12500        0.12500        0.07500
 BRILLOUIN|   133           0.00313       -0.12500        0.12500        0.12500
 BRILLOUIN|   134           0.00313       -0.12500        0.12500        0.17500
 BRILLOUIN|   135           0.00313       -0.12500        0.12500        0.22500
 BRILLOUIN|   136           0.00313       -0.12500        0.12500        0.27500
 BRILLOUIN|   137           0.00313       -0.12500        0.12500        0.32500
 BRILLOUIN|   138           0.00313       -0.12500        0.12500        0.37500
 BRILLOUIN|   139           0.00313       -0.12500        0.12500        0.42500
 BRILLOUIN|   140           0.00313       -0.12500        0.12500        0.47500
 BRILLOUIN|   141           0.00313       -0.12500        0.37500       -0.47500
 BRILLOUIN|   142           0.00313       -0.12500        0.37500       -0.42500
 BRILLOUIN|   143           0.00313       -0.12500        0.37500       -0.37500
 BRILLOUIN|   144           0.00313       -0.12500        0.37500       -0.32500
 BRILLOUIN|   145           0.00313       -0.12500        0.37500       -0.27500
 BRILLOUIN|   146           0.00313       -0.12500        0.37500       -0.22500
 BRILLOUIN|   147           0.00313       -0.12500        0.37500       -0.17500
 BRILLOUIN|   148           0.00313       -0.12500        0.37500       -0.12500
 BRILLOUIN|   149           0.00313       -0.12500        0.37500       -0.07500
 BRILLOUIN|   150           0.00313       -0.12500        0.37500       -0.02500
 BRILLOUIN|   151           0.00313       -0.12500        0.37500        0.02500
 BRILLOUIN|   152           0.00313       -0.12500        0.37500        0.07500
 BRILLOUIN|   153           0.00313       -0.12500        0.37500        0.12500
 BRILLOUIN|   154           0.00313       -0.12500        0.37500        0.17500
 BRILLOUIN|   155           0.00313       -0.12500        0.37500        0.22500
 BRILLOUIN|   156           0.00313       -0.12500        0.37500        0.27500
 BRILLOUIN|   157           0.00313       -0.12500        0.37500        0.32500
 BRILLOUIN|   158           0.00313       -0.12500        0.37500        0.37500
 BRILLOUIN|   159           0.00313       -0.12500        0.37500        0.42500
 BRILLOUIN|   160           0.00313       -0.12500        0.37500        0.47500
 BRILLOUIN|   161           0.00313        0.12500       -0.37500       -0.47500
 BRILLOUIN|   162           0.00313        0.12500       -0.37500       -0.42500
 BRILLOUIN|   163           0.00313        0.12500       -0.37500       -0.37500
 BRILLOUIN|   164           0.00313        0.12500       -0.37500       -0.32500
 BRILLOUIN|   165           0.00313        0.12500       -0.37500       -0.27500
 BRILLOUIN|   166           0.00313        0.12500       -0.37500       -0.22500
 BRILLOUIN|   167           0.00313        0.12500       -0.37500       -0.17500
 BRILLOUIN|   168           0.00313        0.12500       -0.37500       -0.12500
 BRILLOUIN|   169           0.00313        0.12500       -0.37500       -0.07500
 BRILLOUIN|   170           0.00313        0.12500       -0.37500       -0.02500
 BRILLOUIN|   171           0.00313        0.12500       -0.37500        0.02500
 BRILLOUIN|   172           0.00313        0.12500       -0.37500        0.07500
 BRILLOUIN|   173           0.00313        0.12500       -0.37500        0.12500
 BRILLOUIN|   174           0.00313        0.12500       -0.37500        0.17500
 BRILLOUIN|   175           0.00313        0.12500       -0.37500        0.22500
 BRILLOUIN|   176           0.00313        0.12500       -0.37500        0.27500
 BRILLOUIN|   177           0.00313        0.12500       -0.37500        0.32500
 BRILLOUIN|   178           0.00313        0.12500       -0.37500        0.37500
 BRILLOUIN|   179           0.00313        0.12500       -0.37500        0.42500
 BRILLOUIN|   180           0.00313        0.12500       -0.37500        0.47500
 BRILLOUIN|   181           0.00313        0.12500       -0.12500       -0.47500
 BRILLOUIN|   182           0.00313        0.12500       -0.12500       -0.42500
 BRILLOUIN|   183           0.00313        0.12500       -0.12500       -0.37500
 BRILLOUIN|   184           0.00313        0.12500       -0.12500       -0.32500
 BRILLOUIN|   185           0.00313        0.12500       -0.12500       -0.27500
 BRILLOUIN|   186           0.00313        0.12500       -0.12500       -0.22500
 BRILLOUIN|   187           0.00313        0.12500       -0.12500       -0.17500
 BRILLOUIN|   188           0.00313        0.12500       -0.12500       -0.12500
 BRILLOUIN|   189           0.00313        0.12500       -0.12500       -0.07500
 BRILLOUIN|   190           0.00313        0.12500       -0.12500       -0.02500
 BRILLOUIN|   191           0.00313        0.12500       -0.12500        0.02500
 BRILLOUIN|   192           0.00313        0.12500       -0.12500        0.07500
 BRILLOUIN|   193           0.00313        0.12500       -0.12500        0.12500
 BRILLOUIN|   194           0.00313        0.12500       -0.12500        0.17500
 BRILLOUIN|   195           0.00313        0.12500       -0.12500        0.22500
 BRILLOUIN|   196           0.00313        0.12500       -0.12500        0.27500
 BRILLOUIN|   197           0.00313        0.12500       -0.12500        0.32500
 BRILLOUIN|   198           0.00313        0.12500       -0.12500        0.37500
 BRILLOUIN|   199           0.00313        0.12500       -0.12500        0.42500
 BRILLOUIN|   200           0.00313        0.12500       -0.12500        0.47500
 BRILLOUIN|   201           0.00313        0.12500        0.12500       -0.47500
 BRILLOUIN|   202           0.00313        0.12500        0.12500       -0.42500
 BRILLOUIN|   203           0.00313        0.12500        0.12500       -0.37500
 BRILLOUIN|   204           0.00313        0.12500        0.12500       -0.32500
 BRILLOUIN|   205           0.00313        0.12500        0.12500       -0.27500
 BRILLOUIN|   206           0.00313        0.12500        0.12500       -0.22500
 BRILLOUIN|   207           0.00313        0.12500        0.12500       -0.17500
 BRILLOUIN|   208           0.00313        0.12500        0.12500       -0.12500
 BRILLOUIN|   209           0.00313        0.12500        0.12500       -0.07500
 BRILLOUIN|   210           0.00313        0.12500        0.12500       -0.02500
 BRILLOUIN|   211           0.00313        0.12500        0.12500        0.02500
 BRILLOUIN|   212           0.00313        0.12500        0.12500        0.07500
 BRILLOUIN|   213           0.00313        0.12500        0.12500        0.12500
 BRILLOUIN|   214           0.00313        0.12500        0.12500        0.17500
 BRILLOUIN|   215           0.00313        0.12500        0.12500        0.22500
 BRILLOUIN|   216           0.00313        0.12500        0.12500        0.27500
 BRILLOUIN|   217           0.00313        0.12500        0.12500        0.32500
 BRILLOUIN|   218           0.00313        0.12500        0.12500        0.37500
 BRILLOUIN|   219           0.00313        0.12500        0.12500        0.42500
 BRILLOUIN|   220           0.00313        0.12500        0.12500        0.47500
 BRILLOUIN|   221           0.00313        0.12500        0.37500       -0.47500
 BRILLOUIN|   222           0.00313        0.12500        0.37500       -0.42500
 BRILLOUIN|   223           0.00313        0.12500        0.37500       -0.37500
 BRILLOUIN|   224           0.00313        0.12500        0.37500       -0.32500
 BRILLOUIN|   225           0.00313        0.12500        0.37500       -0.27500
 BRILLOUIN|   226           0.00313        0.12500        0.37500       -0.22500
 BRILLOUIN|   227           0.00313        0.12500        0.37500       -0.17500
 BRILLOUIN|   228           0.00313        0.12500        0.37500       -0.12500
 BRILLOUIN|   229           0.00313        0.12500        0.37500       -0.07500
 BRILLOUIN|   230           0.00313        0.12500        0.37500       -0.02500
 BRILLOUIN|   231           0.00313        0.12500        0.37500        0.02500
 BRILLOUIN|   232           0.00313        0.12500        0.37500        0.07500
 BRILLOUIN|   233           0.00313        0.12500        0.37500        0.12500
 BRILLOUIN|   234           0.00313        0.12500        0.37500        0.17500
 BRILLOUIN|   235           0.00313        0.12500        0.37500        0.22500
 BRILLOUIN|   236           0.00313        0.12500        0.37500        0.27500
 BRILLOUIN|   237           0.00313        0.12500        0.37500        0.32500
 BRILLOUIN|   238           0.00313        0.12500        0.37500        0.37500
 BRILLOUIN|   239           0.00313        0.12500        0.37500        0.42500
 BRILLOUIN|   240           0.00313        0.12500        0.37500        0.47500
 BRILLOUIN|   241           0.00313        0.37500       -0.37500       -0.47500
 BRILLOUIN|   242           0.00313        0.37500       -0.37500       -0.42500
 BRILLOUIN|   243           0.00313        0.37500       -0.37500       -0.37500
 BRILLOUIN|   244           0.00313        0.37500       -0.37500       -0.32500
 BRILLOUIN|   245           0.00313        0.37500       -0.37500       -0.27500
 BRILLOUIN|   246           0.00313        0.37500       -0.37500       -0.22500
 BRILLOUIN|   247           0.00313        0.37500       -0.37500       -0.17500
 BRILLOUIN|   248           0.00313        0.37500       -0.37500       -0.12500
 BRILLOUIN|   249           0.00313        0.37500       -0.37500       -0.07500
 BRILLOUIN|   250           0.00313        0.37500       -0.37500       -0.02500
 BRILLOUIN|   251           0.00313        0.37500       -0.37500        0.02500
 BRILLOUIN|   252           0.00313        0.37500       -0.37500        0.07500
 BRILLOUIN|   253           0.00313        0.37500       -0.37500        0.12500
 BRILLOUIN|   254           0.00313        0.37500       -0.37500        0.17500
 BRILLOUIN|   255           0.00313        0.37500       -0.37500        0.22500
 BRILLOUIN|   256           0.00313        0.37500       -0.37500        0.27500
 BRILLOUIN|   257           0.00313        0.37500       -0.37500        0.32500
 BRILLOUIN|   258           0.00313        0.37500       -0.37500        0.37500
 BRILLOUIN|   259           0.00313        0.37500       -0.37500        0.42500
 BRILLOUIN|   260           0.00313        0.37500       -0.37500        0.47500
 BRILLOUIN|   261           0.00313        0.37500       -0.12500       -0.47500
 BRILLOUIN|   262           0.00313        0.37500       -0.12500       -0.42500
 BRILLOUIN|   263           0.00313        0.37500       -0.12500       -0.37500
 BRILLOUIN|   264           0.00313        0.37500       -0.12500       -0.32500
 BRILLOUIN|   265           0.00313        0.37500       -0.12500       -0.27500
 BRILLOUIN|   266           0.00313        0.37500       -0.12500       -0.22500
 BRILLOUIN|   267           0.00313        0.37500       -0.12500       -0.17500
 BRILLOUIN|   268           0.00313        0.37500       -0.12500       -0.12500
 BRILLOUIN|   269           0.00313        0.37500       -0.12500       -0.07500
 BRILLOUIN|   270           0.00313        0.37500       -0.12500       -0.02500
 BRILLOUIN|   271           0.00313        0.37500       -0.12500        0.02500
 BRILLOUIN|   272           0.00313        0.37500       -0.12500        0.07500
 BRILLOUIN|   273           0.00313        0.37500       -0.12500        0.12500
 BRILLOUIN|   274           0.00313        0.37500       -0.12500        0.17500
 BRILLOUIN|   275           0.00313        0.37500       -0.12500        0.22500
 BRILLOUIN|   276           0.00313        0.37500       -0.12500        0.27500
 BRILLOUIN|   277           0.00313        0.37500       -0.12500        0.32500
 BRILLOUIN|   278           0.00313        0.37500       -0.12500        0.37500
 BRILLOUIN|   279           0.00313        0.37500       -0.12500        0.42500
 BRILLOUIN|   280           0.00313        0.37500       -0.12500        0.47500
 BRILLOUIN|   281           0.00313        0.37500        0.12500       -0.47500
 BRILLOUIN|   282           0.00313        0.37500        0.12500       -0.42500
 BRILLOUIN|   283           0.00313        0.37500        0.12500       -0.37500
 BRILLOUIN|   284           0.00313        0.37500        0.12500       -0.32500
 BRILLOUIN|   285           0.00313        0.37500        0.12500       -0.27500
 BRILLOUIN|   286           0.00313        0.37500        0.12500       -0.22500
 BRILLOUIN|   287           0.00313        0.37500        0.12500       -0.17500
 BRILLOUIN|   288           0.00313        0.37500        0.12500       -0.12500
 BRILLOUIN|   289           0.00313        0.37500        0.12500       -0.07500
 BRILLOUIN|   290           0.00313        0.37500        0.12500       -0.02500
 BRILLOUIN|   291           0.00313        0.37500        0.12500        0.02500
 BRILLOUIN|   292           0.00313        0.37500        0.12500        0.07500
 BRILLOUIN|   293           0.00313        0.37500        0.12500        0.12500
 BRILLOUIN|   294           0.00313        0.37500        0.12500        0.17500
 BRILLOUIN|   295           0.00313        0.37500        0.12500        0.22500
 BRILLOUIN|   296           0.00313        0.37500        0.12500        0.27500
 BRILLOUIN|   297           0.00313        0.37500        0.12500        0.32500
 BRILLOUIN|   298           0.00313        0.37500        0.12500        0.37500
 BRILLOUIN|   299           0.00313        0.37500        0.12500        0.42500
 BRILLOUIN|   300           0.00313        0.37500        0.12500        0.47500
 BRILLOUIN|   301           0.00313        0.37500        0.37500       -0.47500
 BRILLOUIN|   302           0.00313        0.37500        0.37500       -0.42500
 BRILLOUIN|   303           0.00313        0.37500        0.37500       -0.37500
 BRILLOUIN|   304           0.00313        0.37500        0.37500       -0.32500
 BRILLOUIN|   305           0.00313        0.37500        0.37500       -0.27500
 BRILLOUIN|   306           0.00313        0.37500        0.37500       -0.22500
 BRILLOUIN|   307           0.00313        0.37500        0.37500       -0.17500
 BRILLOUIN|   308           0.00313        0.37500        0.37500       -0.12500
 BRILLOUIN|   309           0.00313        0.37500        0.37500       -0.07500
 BRILLOUIN|   310           0.00313        0.37500        0.37500       -0.02500
 BRILLOUIN|   311           0.00313        0.37500        0.37500        0.02500
 BRILLOUIN|   312           0.00313        0.37500        0.37500        0.07500
 BRILLOUIN|   313           0.00313        0.37500        0.37500        0.12500
 BRILLOUIN|   314           0.00313        0.37500        0.37500        0.17500
 BRILLOUIN|   315           0.00313        0.37500        0.37500        0.22500
 BRILLOUIN|   316           0.00313        0.37500        0.37500        0.27500
 BRILLOUIN|   317           0.00313        0.37500        0.37500        0.32500
 BRILLOUIN|   318           0.00313        0.37500        0.37500        0.37500
 BRILLOUIN|   319           0.00313        0.37500        0.37500        0.42500
 BRILLOUIN|   320           0.00313        0.37500        0.37500        0.47500
 *******************************************************************************

 *******************************************************************************
 *******************************************************************************
 **                                                                           **
 **     #####                         ##              ##                      **
 **    ##   ##            ##          ##              ##                      **
 **   ##     ##                       ##            ######                    **
 **   ##     ##  ##   ##  ##   #####  ##  ##   ####   ##    #####    #####    **
 **   ##     ##  ##   ##  ##  ##      ## ##   ##      ##   ##   ##  ##   ##   **
 **   ##  ## ##  ##   ##  ##  ##      ####     ###    ##   ######   ######    **
 **    ##  ###   ##   ##  ##  ##      ## ##      ##   ##   ##       ##        **
 **     #######   #####   ##   #####  ##  ##  ####    ##    #####   ##        **
 **           ##                                                    ##        **
 **                                                                           **
 **                                                ... make the atoms dance   **
 **                                                                           **
 **            Copyright (C) by CP2K developers group (2000-2022)             **
 **                      J. Chem. Phys. 152, 194103 (2020)                    **
 **                                                                           **
 *******************************************************************************

 DFT| Spin restricted Kohn-Sham (RKS) calculation                            RKS
 DFT| Multiplicity                                                             1
 DFT| Number of spin states                                                    1
 DFT| Charge                                                                   0
 DFT| Self-interaction correction (SIC)                                       NO
 DFT| Cutoffs: density                                              1.000000E-10
 DFT|          gradient                                             1.000000E-10
 DFT|          tau                                                  1.000000E-10
 DFT|          cutoff_smoothing_range                               0.000000E+00
 DFT| XC density smoothing                                                  NONE
 DFT| XC derivatives                                                          PW

 FUNCTIONAL| PADE:
 FUNCTIONAL| S. Goedecker, M. Teter and J. Hutter, Phys. Rev. B 54, 1703 (1996) 


 QS| Method:                                                                 GPW
 QS| Density plane wave grid type                        NON-SPHERICAL FULLSPACE
 QS| Number of grid levels:                                                    4
 QS| Density cutoff [a.u.]:                                                200.0
 QS| Multi grid cutoff [a.u.]: 1) grid level                               200.0
 QS|                           2) grid level                                66.7
 QS|                           3) grid level                                22.2
 QS|                           4) grid level                                 7.4
 QS| Grid level progression factor:                                          3.0
 QS| Relative density cutoff [a.u.]:                                        20.0
 QS| Interaction thresholds: eps_pgf_orb:                                1.0E-05
 QS|                         eps_filter_matrix:                          0.0E+00
 QS|                         eps_core_charge:                            1.0E-12
 QS|                         eps_rho_gspace:                             1.0E-10
 QS|                         eps_rho_rspace:                             1.0E-10
 QS|                         eps_gvg_rspace:                             1.0E-05
 QS|                         eps_ppl:                                    1.0E-02
 QS|                         eps_ppnl:                                   1.0E-07


 ATOMIC KIND INFORMATION

  1. Atomic kind: Au                                    Number of atoms:      32

     Orbital Basis Set                                         SZV-MOLOPT-SR-GTH

       Number of orbital shell sets:                                           1
       Number of orbital shells:                                               3
       Number of primitive Cartesian functions:                                5
       Number of Cartesian basis functions:                                   10
       Number of spherical basis functions:                                    9
       Norm type:                                                              2

       Normalised Cartesian orbitals:

                        Set   Shell   Orbital            Exponent    Coefficient

                          1       1    2s                2.950008       0.074626
                                                         1.563057      -0.007898
                                                         0.666664      -0.297688
                                                         0.251083       0.136809
                                                         0.081714       0.088198

                          1       2    3px               2.950008       0.148824
                                                         1.563057       0.025430
                                                         0.666664      -0.123003
                                                         0.251083       0.033648
                                                         0.081714       0.059008
                          1       2    3py               2.950008       0.148824
                                                         1.563057       0.025430
                                                         0.666664      -0.123003
                                                         0.251083       0.033648
                                                         0.081714       0.059008
                          1       2    3pz               2.950008       0.148824
                                                         1.563057       0.025430
                                                         0.666664      -0.123003
                                                         0.251083       0.033648
                                                         0.081714       0.059008

                          1       3    4dx2              2.950008      -0.139595
                                                         1.563057       1.319655
                                                         0.666664       0.377081
                                                         0.251083       0.046872
                                                         0.081714       0.001393
                          1       3    4dxy              2.950008      -0.241786
                                                         1.563057       2.285709
                                                         0.666664       0.653124
                                                         0.251083       0.081185
                                                         0.081714       0.002412
                          1       3    4dxz              2.950008      -0.241786
                                                         1.563057       2.285709
                                                         0.666664       0.653124
                                                         0.251083       0.081185
                                                         0.081714       0.002412
                          1       3    4dy2              2.950008      -0.139595
                                                         1.563057       1.319655
                                                         0.666664       0.377081
                                                         0.251083       0.046872
                                                         0.081714       0.001393
                          1       3    4dyz              2.950008      -0.241786
                                                         1.563057       2.285709
                                                         0.666664       0.653124
                                                         0.251083       0.081185
                                                         0.081714       0.002412
                          1       3    4dz2              2.950008      -0.139595
                                                         1.563057       1.319655
                                                         0.666664       0.377081
                                                         0.251083       0.046872
                                                         0.081714       0.001393

       Atomic covalent radius [Angstrom]:                                  1.340

       Atomic van der Waals radius [Angstrom]:                             1.660

     GTH Potential information for                                  GTH-PADE-q11

       Description:                       Goedecker-Teter-Hutter pseudopotential
                                           Goedecker et al., PRB 54, 1703 (1996)
                                          Hartwigsen et al., PRB 58, 3641 (1998)
                                                      Krack, TCA 114, 145 (2005)

       Gaussian exponent of the core charge distribution:               1.436369
       Electronic configuration (s p d ...):                           1   0  10

       Parameters of the local part of the GTH pseudopotential:

                          rloc        C1          C2          C3          C4
                        0.590000   11.604428

       Parameters of the non-local part of the GTH pseudopotential:

                   l      r(l)      h(i,j,l)

                   0    0.521180    2.538614   -1.046137
                                   -1.046137    2.701113
                   1    0.630613    0.394853   -0.869592
                                   -0.869592    2.057831
                   2    0.440706   -4.719070    0.727771
                                    0.727771   -1.650429


 MOLECULE KIND INFORMATION


 All atoms are their own molecule, skipping detailed information


 TOTAL NUMBERS AND MAXIMUM NUMBERS

  Total number of            - Atomic kinds:                                   1
                             - Atoms:                                         32
                             - Shell sets:                                    32
                             - Shells:                                        96
                             - Primitive Cartesian functions:                160
                             - Cartesian basis functions:                    320
                             - Spherical basis functions:                    288

  Maximum angular momentum of- Orbital basis functions:                        2
                             - Local part of the GTH pseudopotential:          0
                             - Non-local part of the GTH pseudopotential:      4


 MODULE QUICKSTEP: ATOMIC COORDINATES IN ANGSTROM

   Atom Kind Element         X             Y             Z       Z(eff)     Mass
      1    1 Au   79      0.000000      0.000000      0.000000  11.0000 196.9666
      2    1 Au   79      0.000000      4.168000      0.000000  11.0000 196.9666
      3    1 Au   79      2.084000      2.084000      0.000000  11.0000 196.9666
      4    1 Au   79      2.084000      6.252000      0.000000  11.0000 196.9666
      5    1 Au   79      4.168000      0.000000      0.000000  11.0000 196.9666
      6    1 Au   79      4.168000      4.168000      0.000000  11.0000 196.9666
      7    1 Au   79      6.252000      2.084000      0.000000  11.0000 196.9666
      8    1 Au   79      6.252000      6.252000      0.000000  11.0000 196.9666
      9    1 Au   79      0.000000      2.084000      2.084000  11.0000 196.9666
     10    1 Au   79      0.000000      6.252000      2.084000  11.0000 196.9666
     11    1 Au   79      2.084000      0.000000      2.084000  11.0000 196.9666
     12    1 Au   79      2.084000      4.168000      2.084000  11.0000 196.9666
     13    1 Au   79      4.168000      2.084000      2.084000  11.0000 196.9666
     14    1 Au   79      4.168000      6.252000      2.084000  11.0000 196.9666
     15    1 Au   79      6.252000      0.000000      2.084000  11.0000 196.9666
     16    1 Au   79      6.252000      4.168000      2.084000  11.0000 196.9666
     17    1 Au   79      0.000000      0.000000      4.168000  11.0000 196.9666
     18    1 Au   79      0.000000      4.168000      4.168000  11.0000 196.9666
     19    1 Au   79      2.084000      2.084000      4.168000  11.0000 196.9666
     20    1 Au   79      2.084000      6.252000      4.168000  11.0000 196.9666
     21    1 Au   79      4.168000      0.000000      4.168000  11.0000 196.9666
     22    1 Au   79      4.168000      4.168000      4.168000  11.0000 196.9666
     23    1 Au   79      6.252000      2.084000      4.168000  11.0000 196.9666
     24    1 Au   79      6.252000      6.252000      4.168000  11.0000 196.9666
     25    1 Au   79      0.000000      2.084000      6.252000  11.0000 196.9666
     26    1 Au   79      0.000000      6.252000      6.252000  11.0000 196.9666
     27    1 Au   79      2.084000      0.000000      6.252000  11.0000 196.9666
     28    1 Au   79      2.084000      4.168000      6.252000  11.0000 196.9666
     29    1 Au   79      4.168000      2.084000      6.252000  11.0000 196.9666
     30    1 Au   79      4.168000      6.252000      6.252000  11.0000 196.9666
     31    1 Au   79      6.252000      0.000000      6.252000  11.0000 196.9666
     32    1 Au   79      6.252000      4.168000      6.252000  11.0000 196.9666



 SCF PARAMETERS         Density guess:                                    ATOMIC
                        --------------------------------------------------------
                        max_scf:                                             100
                        max_scf_history:                                       0
                        max_diis:                                              4
                        --------------------------------------------------------
                        eps_scf:                                        1.00E-07
                        eps_scf_history:                                0.00E+00
                        eps_diis:                                       1.00E-01
                        eps_eigval:                                     1.00E-05
                        --------------------------------------------------------
                        level_shift [a.u.]:                             0.000000
                        added MOs                                       100    0
                        --------------------------------------------------------
                        Mixing method:                            BROYDEN_MIXING
                                                charge density mixing in g-space
                        --------------------------------------------------------
                        Smear method:                                FERMI_DIRAC
                        Electronic temperature [K]:                        293.0
                        Electronic temperature [a.u.]:                  9.28E-04
                        Accuracy threshold:                             1.00E-10
                        --------------------------------------------------------
                        No outer SCF

 PW_GRID| Information for grid number                                          1
 PW_GRID| Grid distributed over                                   240 processors
 PW_GRID| Real space group dimensions                                    12   20
 PW_GRID| the grid is blocked:                                               YES
 PW_GRID| Cutoff [a.u.]                                                    200.0
 PW_GRID| spherical cutoff:                                                   NO
 PW_GRID|   Bounds   1            -52      52                Points:         105
 PW_GRID|   Bounds   2            -52      52                Points:         105
 PW_GRID|   Bounds   3            -52      52                Points:         105
 PW_GRID| Volume element (a.u.^3)  0.3377E-02     Volume (a.u.^3)      3909.0365
 PW_GRID| Grid span                                                    FULLSPACE
 PW_GRID|   Distribution                         Average         Max         Min
 PW_GRID|   G-Vectors                             4823.4        5670        4200
 PW_GRID|   G-Rays                                  45.9          54          40
 PW_GRID|   Real Space Points                     4823.4        5670        4200

 PW_GRID| Information for grid number                                          2
 PW_GRID| Number of the reference grid                                         1
 PW_GRID| Grid distributed over                                   240 processors
 PW_GRID| Real space group dimensions                                    12   20
 PW_GRID| the grid is blocked:                                                NO
 PW_GRID| Cutoff [a.u.]                                                     66.7
 PW_GRID| spherical cutoff:                                                   NO
 PW_GRID|   Bounds   1            -30      29                Points:          60
 PW_GRID|   Bounds   2            -30      29                Points:          60
 PW_GRID|   Bounds   3            -30      29                Points:          60
 PW_GRID| Volume element (a.u.^3)  0.1810E-01     Volume (a.u.^3)      3909.0365
 PW_GRID| Grid span                                                    FULLSPACE
 PW_GRID|   Distribution                         Average         Max         Min
 PW_GRID|   G-Vectors                              900.0        3240           0
 PW_GRID|   G-Rays                                  15.0          54           0
 PW_GRID|   Real Space Points                      900.0         900         900

 PW_GRID| Information for grid number                                          3
 PW_GRID| Number of the reference grid                                         1
 PW_GRID| Grid distributed over                                   240 processors
 PW_GRID| Real space group dimensions                                    12   20
 PW_GRID| the grid is blocked:                                                NO
 PW_GRID| Cutoff [a.u.]                                                     22.2
 PW_GRID| spherical cutoff:                                                   NO
 PW_GRID|   Bounds   1            -16      16                Points:          33
 PW_GRID|   Bounds   2            -16      16                Points:          33
 PW_GRID|   Bounds   3            -16      16                Points:          33
 PW_GRID| Volume element (a.u.^3)  0.1088         Volume (a.u.^3)      3909.0365
 PW_GRID| Grid span                                                    FULLSPACE
 PW_GRID|   Distribution                         Average         Max         Min
 PW_GRID|   G-Vectors                              149.7        1782           0
 PW_GRID|   G-Rays                                   4.5          54           0
 PW_GRID|   Real Space Points                      149.7         198          66

 PW_GRID| Information for grid number                                          4
 PW_GRID| Number of the reference grid                                         1
 PW_GRID| Grid distributed over                                   240 processors
 PW_GRID| Real space group dimensions                                    12   20
 PW_GRID| the grid is blocked:                                                NO
 PW_GRID| Cutoff [a.u.]                                                      7.4
 PW_GRID| spherical cutoff:                                                   NO
 PW_GRID|   Bounds   1            -10       9                Points:          20
 PW_GRID|   Bounds   2            -10       9                Points:          20
 PW_GRID|   Bounds   3            -10       9                Points:          20
 PW_GRID| Volume element (a.u.^3)  0.4886         Volume (a.u.^3)      3909.0365
 PW_GRID| Grid span                                                    FULLSPACE
 PW_GRID|   Distribution                         Average         Max         Min
 PW_GRID|   G-Vectors                               33.3         900           0
 PW_GRID|   G-Rays                                   1.7          45           0
 PW_GRID|   Real Space Points                       33.3          40          20

 POISSON| Solver                                                        PERIODIC
 POISSON| Periodicity                                                        XYZ

 RS_GRID| Information for grid number                                          1
 RS_GRID|   Bounds   1            -52      52                Points:         105
 RS_GRID|   Bounds   2            -52      52                Points:         105
 RS_GRID|   Bounds   3            -52      52                Points:         105
 RS_GRID| Real space distribution over                                 15 groups
 RS_GRID| Real space distribution along direction                              2
 RS_GRID| Border size                                                         30
 RS_GRID| Real space distribution over                                 16 groups
 RS_GRID| Real space distribution along direction                              3
 RS_GRID| Border size                                                         30
 RS_GRID|   Distribution                         Average         Max         Min
 RS_GRID|   Planes                                  67.0          67          67
 RS_GRID|   Distribution                         Average         Max         Min
 RS_GRID|   Planes                                  66.6          67          66

 RS_GRID| Information for grid number                                          2
 RS_GRID|   Bounds   1            -30      29                Points:          60
 RS_GRID|   Bounds   2            -30      29                Points:          60
 RS_GRID|   Bounds   3            -30      29                Points:          60
 RS_GRID| Real space fully replicated
 RS_GRID| Group size                                                           1

 RS_GRID| Information for grid number                                          3
 RS_GRID|   Bounds   1            -16      16                Points:          33
 RS_GRID|   Bounds   2            -16      16                Points:          33
 RS_GRID|   Bounds   3            -16      16                Points:          33
 RS_GRID| Real space fully replicated
 RS_GRID| Group size                                                           1

 RS_GRID| Information for grid number                                          4
 RS_GRID|   Bounds   1            -10       9                Points:          20
 RS_GRID|   Bounds   2            -10       9                Points:          20
 RS_GRID|   Bounds   3            -10       9                Points:          20
 RS_GRID| Real space fully replicated
 RS_GRID| Group size                                                           1

 KPOINTS| Number of kpoint groups                                              1
 KPOINTS| Size of each kpoint group                                          240
 KPOINTS| Number of kpoints per group                                        320

 Number of electrons:                                                        352
 Number of occupied orbitals:                                                176
 Number of molecular orbitals:                                               276

 Number of orbital functions:                                                288
 Number of independent orbital functions:                                    288

 Extrapolation method: initial_guess

 Atomic guess: The first density matrix is obtained in terms of atomic orbitals
               and electronic configurations assigned to each atomic kind

 Guess for atomic kind: Au

 Electronic structure
    Total number of core electrons                                         68.00
    Total number of valence electrons                                      11.00
    Total number of electrons                                              79.00
    Multiplicity                                                   not specified
    S   [  2.00  2.00  2.00  2.00  2.00] 1.00
    P   [  6.00  6.00  6.00  6.00]
    D   [ 10.00 10.00]10.00
    F   [ 14.00]


 *******************************************************************************
                  Iteration          Convergence                     Energy [au]
 *******************************************************************************
                          1         0.00000                     -33.033218197848

 Energy components [Hartree]           Total Energy ::          -33.033218197848
                                        Band Energy ::           -1.147505983145
                                     Kinetic Energy ::           24.744064437587
                                   Potential Energy ::          -57.777282635435
                                      Virial (-V/T) ::            2.334995642336
                                        Core Energy ::          -60.197309615488
                                          XC Energy ::           -5.116883226844
                                     Coulomb Energy ::           32.280974644483
                       Total Pseudopotential Energy ::          -85.042885173964
                       Local Pseudopotential Energy ::          -66.341694915099
                    Nonlocal Pseudopotential Energy ::          -18.701190258865
                                        Confinement ::            1.015111208892

 Orbital energies  State     L     Occupation   Energy[a.u.]          Energy[eV]

                       1     0          1.000      -0.213792           -5.817572

                       1     2         10.000      -0.093371           -2.540765


 Total Electron Density at R=0:                                         0.000035
 Re-scaling the density matrix to get the right number of electrons
                  # Electrons              Trace(P)               Scaling factor
                          352               352.000                        1.000


 SCF WAVEFUNCTION OPTIMIZATION

  Step     Update method      Time    Convergence         Total energy    Change
  ------------------------------------------------------------------------------
     1 NoMix/Diag. 0.30E+00   24.8     0.24997064     -1065.6557037562 -1.07E+03
     2 Broy./Diag. 0.30E+00   24.5     0.03482279     -1089.1087414620 -2.35E+01
     3 Broy./Diag. 0.30E+00   24.7     0.03903175     -1072.3378951404  1.68E+01
     4 Broy./Diag. 0.30E+00   24.7     0.00064039     -1065.3023145707  7.04E+00
     5 Broy./Diag. 0.30E+00   24.9     0.00017189     -1065.1751547399  1.27E-01
     6 Broy./Diag. 0.30E+00   24.7     0.00002387     -1065.1631950994  1.20E-02
     7 Broy./Diag. 0.30E+00   24.7     0.00001752     -1065.1698888270 -6.69E-03
     8 Broy./Diag. 0.30E+00   24.7     0.00000099     -1065.1699293043 -4.05E-05
     9 Broy./Diag. 0.30E+00   24.8     0.00000140     -1065.1697696226  1.60E-04
    10 Broy./Diag. 0.30E+00   25.3     0.00000006     -1065.1697794456 -9.82E-06

  *** SCF run converged in    10 steps ***


  Electronic density on regular grids:       -351.9999999960        0.0000000040
  Core density on regular grids:              351.9999999422       -0.0000000578
  Total charge density on r-space grids:       -0.0000000539
  Total charge density g-space grids:          -0.0000000539

  Overlap energy of the core charge distribution:               0.00000010320122
  Self energy of the core charge distribution:              -1851.30683686179054
  Core Hamiltonian energy:                                    586.13666106435562
  Hartree energy:                                             366.05497145331259
  Exchange-correlation energy:                               -166.05387111694614
  Electronic entropic energy:                                  -0.00070408779161
  Fermi energy:                                                 0.33610547137445

  Total energy:                                             -1065.16977944558244

 The electron density is written in cube file format to the file:

 bulk-ELECTRON_DENSITY-1_0.cube

 !-----------------------------------------------------------------------------!
                     Mulliken Population Analysis

 #  Atom  Element  Kind  Atomic population                           Net charge
       1     Au       1         10.999999                              0.000001
       2     Au       1         11.000000                              0.000000
       3     Au       1         11.000000                              0.000000
       4     Au       1         11.000000                              0.000000
       5     Au       1         11.000000                              0.000000
       6     Au       1         11.000000                             -0.000000
       7     Au       1         11.000000                              0.000000
       8     Au       1         11.000000                              0.000000
       9     Au       1         11.000000                              0.000000
      10     Au       1         11.000000                              0.000000
      11     Au       1         11.000000                              0.000000
      12     Au       1         11.000000                             -0.000000
      13     Au       1         11.000000                             -0.000000
      14     Au       1         11.000000                             -0.000000
      15     Au       1         11.000000                              0.000000
      16     Au       1         11.000000                             -0.000000
      17     Au       1         11.000000                              0.000000
      18     Au       1         11.000000                             -0.000000
      19     Au       1         11.000000                             -0.000000
      20     Au       1         11.000000                             -0.000000
      21     Au       1         11.000000                             -0.000000
      22     Au       1         11.000001                             -0.000001
      23     Au       1         11.000000                             -0.000000
      24     Au       1         11.000000                             -0.000000
      25     Au       1         11.000000                              0.000000
      26     Au       1         11.000000                              0.000000
      27     Au       1         11.000000                              0.000000
      28     Au       1         11.000000                             -0.000000
      29     Au       1         11.000000                             -0.000000
      30     Au       1         11.000000                             -0.000000
      31     Au       1         11.000000                              0.000000
      32     Au       1         11.000000                             -0.000000
 # Total charge                            352.000000                  0.000000

 !-----------------------------------------------------------------------------!

 !-----------------------------------------------------------------------------!
                           Hirshfeld Charges

  #Atom  Element  Kind  Ref Charge     Population                    Net charge
      1       Au     1      11.000         11.000                         0.000
      2       Au     1      11.000         11.000                         0.000
      3       Au     1      11.000         11.000                         0.000
      4       Au     1      11.000         11.000                         0.000
      5       Au     1      11.000         11.000                         0.000
      6       Au     1      11.000         11.000                        -0.000
      7       Au     1      11.000         11.000                         0.000
      8       Au     1      11.000         11.000                         0.000
      9       Au     1      11.000         11.000                         0.000
     10       Au     1      11.000         11.000                         0.000
     11       Au     1      11.000         11.000                         0.000
     12       Au     1      11.000         11.000                        -0.000
     13       Au     1      11.000         11.000                        -0.000
     14       Au     1      11.000         11.000                        -0.000
     15       Au     1      11.000         11.000                         0.000
     16       Au     1      11.000         11.000                        -0.000
     17       Au     1      11.000         11.000                         0.000
     18       Au     1      11.000         11.000                        -0.000
     19       Au     1      11.000         11.000                        -0.000
     20       Au     1      11.000         11.000                        -0.000
     21       Au     1      11.000         11.000                        -0.000
     22       Au     1      11.000         11.000                        -0.000
     23       Au     1      11.000         11.000                        -0.000
     24       Au     1      11.000         11.000                        -0.000
     25       Au     1      11.000         11.000                         0.000
     26       Au     1      11.000         11.000                         0.000
     27       Au     1      11.000         11.000                         0.000
     28       Au     1      11.000         11.000                        -0.000
     29       Au     1      11.000         11.000                        -0.000
     30       Au     1      11.000         11.000                        -0.000
     31       Au     1      11.000         11.000                         0.000
     32       Au     1      11.000         11.000                        -0.000

  Total Charge                                                           -0.000
 !-----------------------------------------------------------------------------!

 BULKTRANSP| E_FERMI [a.u.] =                                   3.3610547137E-01
 BULKTRANSP| HartreeLeadsBottom [a.u.] =                       -4.0420933195E-01

 ENERGY| Total FORCE_EVAL ( QS ) energy [a.u.]:            -1065.169779445582435

 -------------------------------------------------------------------------------
 -                                                                             -
 -                                DBCSR STATISTICS                             -
 -                                                                             -
 -------------------------------------------------------------------------------
 COUNTER                                    TOTAL       BLAS       SMM       ACC
 flops inhomo. stacks                           0       0.0%      0.0%      0.0%
 flops total                         0.000000E+00       0.0%      0.0%      0.0%
 flops max/rank                      0.000000E+00       0.0%      0.0%      0.0%
 matmuls inhomo. stacks                         0       0.0%      0.0%      0.0%
 matmuls total                                  0       0.0%      0.0%      0.0%
 number of processed stacks                     0       0.0%      0.0%      0.0%
 average stack size                                     0.0       0.0       0.0
 marketing flops                     0.000000E+00
 -------------------------------------------------------------------------------
 -                                                                             -
 -                      DBCSR MESSAGE PASSING PERFORMANCE                      -
 -                                                                             -
 -------------------------------------------------------------------------------
 ROUTINE             CALLS      AVE VOLUME [Bytes]
 MP_Bcast                1                     12.
 MP_Allreduce         1400                      8.
 MP_Alltoall        267708                 159375.
 -------------------------------------------------------------------------------

 -------------------------------------------------------------------------------
 -                                                                             -
 -                                DBM STATISTICS                               -
 -                                                                             -
 -------------------------------------------------------------------------------
    M  x    N  x    K                                          COUNT     PERCENT
 -------------------------------------------------------------------------------

 -------------------------------------------------------------------------------
 -                                                                             -
 -                                GRID STATISTICS                              -
 -                                                                             -
 -------------------------------------------------------------------------------
 LP    KERNEL             BACKEND                              COUNT     PERCENT
 4     collocate ortho    REF                                 366080      44.14%
 4     integrate ortho    REF                                 332800      40.12%
 0     collocate general  REF                                  69120       8.33%
 0     integrate general  REF                                  61440       7.41%
 -------------------------------------------------------------------------------

 MEMORY| Estimated peak process memory [MiB]                                1509

 -------------------------------------------------------------------------------
 ----                             MULTIGRID INFO                            ----
 -------------------------------------------------------------------------------
 count for grid        1:          43744          cutoff [a.u.]          200.00
 count for grid        2:         119648          cutoff [a.u.]           66.67
 count for grid        3:          54016          cutoff [a.u.]           22.22
 count for grid        4:          46272          cutoff [a.u.]            7.41
 total gridlevel count  :         263680

 -------------------------------------------------------------------------------
 -                                                                             -
 -                         MESSAGE PASSING PERFORMANCE                         -
 -                                                                             -
 -------------------------------------------------------------------------------

 ROUTINE             CALLS      AVE VOLUME [Bytes]
 MP_Group                5
 MP_Bcast           120295                   2274.
 MP_Allreduce         1220                   6199.
 MP_Sync               130
 MP_Alltoall           203
 MP_ISendRecv        15057                   3035.
 MP_Wait            115599
 MP_ISend           143081                   1426.
 MP_IRecv           144449                   1422.
 MP_Recv              1311                  34560.
 MP_Write_All            2                  62235.
 -------------------------------------------------------------------------------


 -------------------------------------------------------------------------------
 -                                                                             -
 -                           R E F E R E N C E S                               -
 -                                                                             -
 -------------------------------------------------------------------------------
 
 CP2K version 2022.1 (Development Version), the CP2K developers group (2022).
 CP2K is freely available from https://www.cp2k.org/ .

 Kuehne,Thomas D.; Iannuzzi,Marcella; Del Ben,Mauro;
 Rybkin,Vladimir V.; Seewald,Patrick; Stein,Frederick; Laino,Teodoro;
 Khaliullin,Rustam Z.; Schuett,Ole; Schiffmann,Florian; Golze,Dorothea;
 Wilhelm,Jan; Chulkov,Sergey; Bani-Hashemian,Mohammad Hossein;
 Weber,Valery; Borstnik,Urban; Taillefumier,Mathieu;
 Jakobovits,Alice Shoshana; Lazzaro,Alfio; Pabst,Hans; Mueller,Tiziano;
 Schade,Robert; Guidon,Manuel; Andermatt,Samuel; Holmberg,Nico;
 Schenter,Gregory K.; Hehn,Anna; Bussy,Augustin; Belleflamme,Fabian;
 Tabacchi,Gloria; Gloess,Andreas; Lass,Michael; Bethune,Iain;
 Mundy,Christopher J.; Plessl,Christian; Watkins,Matt;
 VandeVondele,Joost; Krack,Matthias; Hutter,Juerg. 
 The Journal of Chemical Physics, 152 (19), (2020). 
 CP2K: An electronic structure and molecular dynamics software package -
 Quickstep: Efficient and accurate electronic structure calculations.
 https://doi.org/10.1063/5.0007045

 Togo, Atsushi; Tanaka, Isao. arXiv, 1808.01590 (2018). 
 Spglib : a software library for crystal symmetry search.
 https://doi.org/xxx

 Schuett, Ole; Messmer, Peter; Hutter, Juerg; VandeVondele, Joost. 
 Electronic Structure Calculations on Graphics Processing Units, John
 Wiley & Sons, Ltd, 173-190 (2016). 
 GPU-Accelerated Sparse Matrix-Matrix Multiplication for
 Linear Scaling Density Functional Theory.
 https://doi.org/10.1002/9781118670712.ch8

 Heinecke, A; Henry, G; Hutchinson, M; Pabst, H. 
 Proceedings of Intl. Supercomputing Conference, 981-991 (2016). 
 LIBXSMM: Accelerating Small Matrix Multiplications
 by Runtime Code Generation.
 https://doi.org/10.1109/SC.2016.83

 Borstnik, U; VandeVondele, J; Weber, V; Hutter, J. 
 PARALLEL COMPUTING, 40 (5-6), 47-58 (2014). 
 Sparse matrix multiplication: The distributed block-compressed sparse
 row library.
 https://doi.org/10.1016/j.parco.2014.03.012

 Hutter, J; Iannuzzi, M; Schiffmann, F; VandeVondele, J. 
 WIREs Comput Mol Sci., 4 (1), 15-25 (2014). 
 CP2K: atomistic simulations of condensed matter systems.
 https://doi.org/10.1002/wcms.1159

 VandeVondele, J; Hutter, J. 
 JOURNAL OF CHEMICAL PHYSICS, 127 (11), 114105 (2007). 
 Gaussian basis sets for accurate calculations on molecular systems in
 gas and condensed phases.
 https://doi.org/10.1063/1.2770708

 Krack, M. 
 THEORETICAL CHEMISTRY ACCOUNTS, 114 (1-3), 145-152 (2005). 
 Pseudopotentials for H to Kr optimized for gradient-corrected
 exchange-correlation functionals.
 https://doi.org/10.1007/s00214-005-0655-y

 VandeVondele, J; Krack, M; Mohamed, F; Parrinello, M; Chassaing, T;
 Hutter, J. COMPUTER PHYSICS COMMUNICATIONS, 167 (2), 103-128 (2005). 
 QUICKSTEP: Fast and accurate density functional calculations using a
 mixed Gaussian and plane waves approach.
 https://doi.org/10.1016/j.cpc.2004.12.014

 Frigo, M; Johnson, SG. 
 PROCEEDINGS OF THE IEEE, 93 (2), 216-231 (2005). 
 The design and implementation of FFTW3.
 https://doi.org/10.1109/JPROC.2004.840301

 Hartwigsen, C; Goedecker, S; Hutter, J. 
 PHYSICAL REVIEW B, 58 (7), 3641-3662 (1998). 
 Relativistic separable dual-space Gaussian pseudopotentials from H to Rn.
 https://doi.org/10.1103/PhysRevB.58.3641

 Lippert, G; Hutter, J; Parrinello, M. 
 MOLECULAR PHYSICS, 92 (3), 477-487 (1997). 
 A hybrid Gaussian and plane wave density functional scheme.
 https://doi.org/10.1080/002689797170220

 Goedecker, S; Teter, M; Hutter, J. 
 PHYSICAL REVIEW B, 54 (3), 1703-1710 (1996). 
 Separable dual-space Gaussian pseudopotentials.
 https://doi.org/10.1103/PhysRevB.54.1703


 -------------------------------------------------------------------------------
 -                                                                             -
 -                                T I M I N G                                  -
 -                                                                             -
 -------------------------------------------------------------------------------
 SUBROUTINE                       CALLS  ASD         SELF TIME        TOTAL TIME
                                MAXIMUM       AVERAGE  MAXIMUM  AVERAGE  MAXIMUM
 CP2K                                 1  1.0    0.053    0.087  262.661  262.666
 qs_energies                          1  2.0    0.000    0.001  262.396  262.434
 scf_env_do_scf                       1  3.0    0.000    0.000  248.192  248.236
 scf_env_do_scf_inner_loop           10  4.0    0.003    0.081  248.191  248.236
 qs_scf_new_mos_kp                   10  5.0    0.000    0.000  246.723  246.731
 do_general_diag_kp                  10  6.0    0.072    0.081  246.723  246.730
 cp_cfm_geeig                      3200  7.0    0.033    0.041  143.470  143.546
 cp_cfm_heevd                      3200  8.0  124.664  125.282  124.664  125.282
 copy_dbcsr_to_fm                 12869  7.0    0.108    0.124   45.235   46.116
 dbcsr_complete_redistribute      19909  8.3    0.605    0.701   38.337   39.184
 dbcsr_desymmetrize_deep          25669  7.5    0.341    0.418   37.455   38.311
 mp_alltoall_d11v                136755  9.4   32.753   38.234   32.753   38.234
 mp_alltoall_i11v                 85396  9.0   29.283   31.573   29.283   31.573
 kpoint_density_matrices             11  6.8    0.096    0.098   25.871   25.918
 cp_gemm                          14080  7.8    0.010    0.011   25.769   25.818
 cp_gemm_fm_gemm                  14080  8.8    0.012    0.013   25.760   25.809
 cp_fm_gemm                       14080  9.8   25.748   25.797   25.748   25.797
 hybrid_alltoall_any              25669  8.5    0.109    0.124   18.734   21.879
 mp_alltoall_i22                  45578  8.8    8.372   16.806    8.372   16.806
 kpoint_density_transform            11  6.8    0.016    0.018   13.563   13.573
 run_smeagol_bulktrans                1  3.0    0.042    9.363   13.317   13.355
 copy_fm_to_dbcsr                  7040  7.8    0.016    0.020   12.612   12.703
 cp_cfm_cholesky_decompose         3200  8.0    5.801   10.535    5.801   10.535
 convert_dbcsr_to_replsiesta          4  4.0    0.052    0.058    9.598    9.644
 mp_max_iv                            6  5.0    9.271    9.335    9.271    9.335
 cp_cfm_to_cfm_columns             3200  8.0    5.550    8.526    5.550    8.526
 cp_cfm_triangular_multiply        9600  8.0    5.005    5.462    5.005    5.462
 -------------------------------------------------------------------------------

 The number of warnings for this run is : 0
 
 -------------------------------------------------------------------------------
  **** **** ******  **  PROGRAM ENDED AT                 2023-03-17 10:49:26.069
 ***** ** ***  *** **   PROGRAM RAN ON                     cn1000.scarf.rl.ac.uk
 **    ****   ******    PROGRAM RAN BY                                 scarf1157
 ***** **    ** ** **   PROGRAM PROCESS ID                                 35652
  **** **  *******  **  PROGRAM STOPPED IN /work4/scd/scarf1157/work/testing/cp2
                                           k-smeagol/bdt/cp2k/hollow-site/transp
                                           ort-cp2k/5-4/geometry-ordered/3x3-4/s
                                           z/bulk_layers-4/transmission/exp/capa
                                           citor/sergey-equal/auto/kpoints-20/V-
                                           0_kpoints_bulk-4-4-20_em-4-4-1_hlb-au
                                           to
