     183
 i =       0, E =    -5729.2598182693
 Au        -0.0003973693       -0.0002528834        0.0005225090
 Au        -0.0005481776        2.9547471127        0.0005438958
 Au        -0.0006990370        5.9107471088        0.0005652899
 Au         2.9556026269       -0.0001020240        0.0005219533
 Au         2.9554518185        2.9548979721        0.0005433402
 Au         2.9553009591        5.9108979682        0.0005647343
 Au         5.9116026230        0.0000488354        0.0005213977
 Au         5.9114518147        2.9550488315        0.0005427845
 Au         5.9113009553        5.9110488276        0.0005641786
 Au         8.6696026194        0.0001895899        0.0005208793
 Au         8.6694518111        2.9551895859        0.0005422661
 Au         8.6693009517        5.9111895820        0.0005636602
 Au        11.6256026156        0.0003404492        0.0005203236
 Au        11.6254518072        2.9553404453        0.0005417104
 Au        11.6253009479        5.9113404414        0.0005631045
 Au         1.4775275927        1.4778074180        2.0905329282
 Au         1.4773767844        4.4328074141        2.0905543150
 Au         1.4772259250        7.3888074101        2.0905757091
 Au         4.4335275889        1.4779582774        2.0905323725
 Au         4.4333767805        4.4329582735        2.0905537593
 Au         4.4332259212        7.3889582695        2.0905751534
 Au         7.1915275853        1.4780990318        2.0905318541
 Au         7.1913767770        4.4330990279        2.0905532409
 Au         7.1912259176        7.3890990240        2.0905746350
 Au        10.1475275814        1.4782498912        2.0905312984
 Au        10.1473767731        4.4332498873        2.0905526853
 Au        10.1472259137        7.3892498834        2.0905740793
 Au        13.1035275776        1.4784007506        2.0905307428
 Au        13.1033767693        4.4334007467        2.0905521296
 Au        13.1032259099        7.3894007427        2.0905735237
 Au        -0.0003965820       -0.0002831361        4.1805225089
 Au        -0.0005473904        2.9547168600        4.1805438957
 Au        -0.0006982497        5.9107168560        4.1805652898
 Au         2.9556034141       -0.0001322767        4.1805219532
 Au         2.9554526058        2.9548677194        4.1805433401
 Au         2.9553017464        5.9108677154        4.1805647341
 Au         5.9116034103        0.0000185827        4.1805213976
 Au         5.9114526019        2.9550185787        4.1805427844
 Au         5.9113017426        5.9110185748        4.1805641785
 Au         8.6696034067        0.0001593371        4.1805208792
 Au         8.6694525984        2.9551593332        4.1805422660
 Au         8.6693017390        5.9111593293        4.1805636601
 Au        11.6256034028        0.0003101965        4.1805203235
 Au        11.6254525945        2.9553101926        4.1805417103
 Au        11.6253017351        5.9113101886        4.1805631044
 Au         1.4775283800        1.4777771653        6.2705329280
 Au         1.4773775717        4.4327771613        6.2705543149
 Au         1.4772267123        7.3887771574        6.2705757089
 Au         4.4335283762        1.4779280246        6.2705323724
 Au         4.4333775678        4.4329280207        6.2705537592
 Au         4.4332267084        7.3889280168        6.2705751533
 Au         7.1915283726        1.4780687791        6.2705318540
 Au         7.1913775642        4.4330687752        6.2705532408
 Au         7.1912267048        7.3890687712        6.2705746349
 Au        10.1475283687        1.4782196385        6.2705312983
 Au        10.1473775604        4.4332196346        6.2705526851
 Au        10.1472267010        7.3892196306        6.2705740792
 Au        13.1035283649        1.4783704979        6.2705307427
 Au        13.1033775565        4.4333704939        6.2705521295
 Au        13.1032266971        7.3893704900        6.2705735236
 Au        -0.0003957947       -0.0003133888        8.3605225088
 Au        -0.0005466031        2.9546866072        8.3605438956
 Au        -0.0006974625        5.9106866033        8.3605652897
 Au         2.9556042014       -0.0001625295        8.3605219531
 Au         2.9554533931        2.9548374666        8.3605433400
 Au         2.9553025337        5.9108374627        8.3605647340
 Au         5.9116041976       -0.0000116701        8.3605213975
 Au         5.9114533892        2.9549883260        8.3605427843
 Au         5.9113025298        5.9109883221        8.3605641784
 Au         8.6696041940        0.0001290844        8.3605208790
 Au         8.6694533856        2.9551290805        8.3605422659
 Au         8.6693025262        5.9111290765        8.3605636600
 Au        11.6256041901        0.0002799438        8.3605203234
 Au        11.6254533818        2.9552799398        8.3605417102
 Au        11.6253025224        5.9112799359        8.3605631043
 Au         1.4775291673        1.4777469125       10.4505329279
 Au         1.4773783589        4.4327469086       10.4505543148
 Au         1.4772274996        7.3887469047       10.4505757088
 Au         4.4335291634        1.4778977719       10.4505323723
 Au         4.4333783551        4.4328977680       10.4505537591
 Au         4.4332274957        7.3888977640       10.4505751532
 Au         7.1915291598        1.4780385264       10.4505318539
 Au         7.1913783515        4.4330385224       10.4505532407
 Au         7.1912274921        7.3890385185       10.4505746348
 Au        10.1475291560        1.4781893857       10.4505312982
 Au        10.1473783476        4.4331893818       10.4505526850
 Au        10.1472274883        7.3891893779       10.4505740791
 Au        13.1035291521        1.4783402451       10.4505307426
 Au        13.1033783438        4.4333402412       10.4505521294
 Au        13.1032274844        7.3893402373       10.4505735235
  N         4.8547031768        5.9118078239       12.0323643834
  N         9.5273030793        5.9138462740       12.0345635181
  N         7.1913020475        5.9340270128       12.0405641041
  H        10.3182088570        5.9089613034       12.6863104070
  H         4.0666375954        5.9058621796       12.6883058577
  C         8.3731737232        5.9180600959       12.7320210182
  C         5.9982585696        5.9152170952       12.7932066039
  N         8.3220564787        5.9052235622       14.0810613249
  N         5.9337327714        5.8981083973       14.1023140507
  C         9.1736619626        5.8877395967       14.6415811311
  N         7.1032701791        5.8899434057       14.8292670208
  H         7.2409084001        5.8657703225       16.1070303582
  H         6.3111319725        5.8547072345       16.5401650022
 Au         7.3113037430        5.9339679778       21.0435640814
 Au         5.8122275595        7.4338773685       22.9925752193
 Au         8.8123806605        4.4340304774       22.9925529429
 Au         5.8123807155        4.4328773725       22.9925534996
 Au         8.8122275556        7.4340304734       22.9925746554
 Au         1.4775319231        1.4776410134       25.0825329275
 Au         1.4773811148        4.4326410095       25.0825543144
 Au         1.4772302554        7.3886410056       25.0825757085
 Au         4.4335319193        1.4777918728       25.0825323719
 Au         4.4333811109        4.4327918689       25.0825537587
 Au         4.4332302515        7.3887918650       25.0825751528
 Au         7.1915319157        1.4779326273       25.0825318535
 Au         7.1913811073        4.4329326233       25.0825532403
 Au         7.1912302480        7.3889326194       25.0825746344
 Au        10.1475319118        1.4780834867       25.0825312978
 Au        10.1473811035        4.4330834827       25.0825526847
 Au        10.1472302441        7.3890834788       25.0825740787
 Au        13.1035319080        1.4782343460       25.0825307422
 Au        13.1033810996        4.4332343421       25.0825521290
 Au        13.1032302403        7.3892343382       25.0825735231
 Au        -0.0003922516       -0.0004495407       27.1725225083
 Au        -0.0005430600        2.9545504554       27.1725438951
 Au        -0.0006939194        5.9105504515       27.1725652892
 Au         2.9556077445       -0.0002986813       27.1725219526
 Au         2.9554569362        2.9547013148       27.1725433395
 Au         2.9553060768        5.9107013109       27.1725647335
 Au         5.9116077407       -0.0001478219       27.1725213970
 Au         5.9114569323        2.9548521742       27.1725427838
 Au         5.9113060729        5.9108521702       27.1725641779
 Au         8.6696077371       -0.0000070674       27.1725208786
 Au         8.6694569287        2.9549929286       27.1725422654
 Au         8.6693060694        5.9109929247       27.1725636595
 Au        11.6256077332        0.0001437919       27.1725203229
 Au        11.6254569249        2.9551437880       27.1725417097
 Au        11.6253060655        5.9111437841       27.1725631038
 Au         1.4775327104        1.4776107607       29.2625329274
 Au         1.4773819020        4.4326107568       29.2625543143
 Au         1.4772310427        7.3886107528       29.2625757083
 Au         4.4335327065        1.4777616201       29.2625323718
 Au         4.4333818982        4.4327616161       29.2625537586
 Au         4.4332310388        7.3887616122       29.2625751527
 Au         7.1915327029        1.4779023745       29.2625318534
 Au         7.1913818946        4.4329023706       29.2625532402
 Au         7.1912310352        7.3889023667       29.2625746343
 Au        10.1475326991        1.4780532339       29.2625312977
 Au        10.1473818908        4.4330532300       29.2625526845
 Au        10.1472310314        7.3890532261       29.2625740786
 Au        13.1035326952        1.4782040933       29.2625307421
 Au        13.1033818869        4.4332040894       29.2625521289
 Au        13.1032310275        7.3892040854       29.2625735230
 Au        -0.0003914644       -0.0004797934       31.3525225082
 Au        -0.0005422727        2.9545202027       31.3525438950
 Au        -0.0006931321        5.9105201987       31.3525652891
 Au         2.9556085318       -0.0003289340       31.3525219525
 Au         2.9554577234        2.9546710620       31.3525433394
 Au         2.9553068641        5.9106710581       31.3525647334
 Au         5.9116085279       -0.0001780746       31.3525213969
 Au         5.9114577196        2.9548219214       31.3525427837
 Au         5.9113068602        5.9108219175       31.3525641778
 Au         8.6696085243       -0.0000373202       31.3525208784
 Au         8.6694577160        2.9549626759       31.3525422653
 Au         8.6693068566        5.9109626720       31.3525636594
 Au        11.6256085205        0.0001135392       31.3525203228
 Au        11.6254577122        2.9551135353       31.3525417096
 Au        11.6253068528        5.9111135313       31.3525631037
 Au         1.4775334977        1.4775805079       33.4425329273
 Au         1.4773826893        4.4325805040       33.4425543142
 Au         1.4772318299        7.3885805001       33.4425757082
 Au         4.4335334938        1.4777313673       33.4425323717
 Au         4.4333826855        4.4327313634       33.4425537585
 Au         4.4332318261        7.3887313595       33.4425751526
 Au         7.1915334902        1.4778721218       33.4425318532
 Au         7.1913826819        4.4328721179       33.4425532401
 Au         7.1912318225        7.3888721139       33.4425746342
 Au        10.1475334864        1.4780229812       33.4425312976
 Au        10.1473826780        4.4330229772       33.4425526844
 Au        10.1472318186        7.3890229733       33.4425740785
 Au        13.1035334825        1.4781738406       33.4425307419
 Au        13.1033826742        4.4331738366       33.4425521288
 Au        13.1032318148        7.3891738327       33.4425735229
     183
 i =       1, E =    -5729.2598182693
 Au        -0.0003973693       -0.0002528834        0.0005225090
 Au        -0.0005481776        2.9547471127        0.0005438958
 Au        -0.0006990370        5.9107471088        0.0005652899
 Au         2.9556026269       -0.0001020240        0.0005219533
 Au         2.9554518185        2.9548979721        0.0005433402
 Au         2.9553009591        5.9108979682        0.0005647343
 Au         5.9116026230        0.0000488354        0.0005213977
 Au         5.9114518147        2.9550488315        0.0005427845
 Au         5.9113009553        5.9110488276        0.0005641786
 Au         8.6696026194        0.0001895899        0.0005208793
 Au         8.6694518111        2.9551895859        0.0005422661
 Au         8.6693009517        5.9111895820        0.0005636602
 Au        11.6256026156        0.0003404492        0.0005203236
 Au        11.6254518072        2.9553404453        0.0005417104
 Au        11.6253009479        5.9113404414        0.0005631045
 Au         1.4775275927        1.4778074180        2.0905329282
 Au         1.4773767844        4.4328074141        2.0905543150
 Au         1.4772259250        7.3888074101        2.0905757091
 Au         4.4335275889        1.4779582774        2.0905323725
 Au         4.4333767805        4.4329582735        2.0905537593
 Au         4.4332259212        7.3889582695        2.0905751534
 Au         7.1915275853        1.4780990318        2.0905318541
 Au         7.1913767770        4.4330990279        2.0905532409
 Au         7.1912259176        7.3890990240        2.0905746350
 Au        10.1475275814        1.4782498912        2.0905312984
 Au        10.1473767731        4.4332498873        2.0905526853
 Au        10.1472259137        7.3892498834        2.0905740793
 Au        13.1035275776        1.4784007506        2.0905307428
 Au        13.1033767693        4.4334007467        2.0905521296
 Au        13.1032259099        7.3894007427        2.0905735237
 Au        -0.0003965820       -0.0002831361        4.1805225089
 Au        -0.0005473904        2.9547168600        4.1805438957
 Au        -0.0006982497        5.9107168560        4.1805652898
 Au         2.9556034141       -0.0001322767        4.1805219532
 Au         2.9554526058        2.9548677194        4.1805433401
 Au         2.9553017464        5.9108677154        4.1805647341
 Au         5.9116034103        0.0000185827        4.1805213976
 Au         5.9114526019        2.9550185787        4.1805427844
 Au         5.9113017426        5.9110185748        4.1805641785
 Au         8.6696034067        0.0001593371        4.1805208792
 Au         8.6694525984        2.9551593332        4.1805422660
 Au         8.6693017390        5.9111593293        4.1805636601
 Au        11.6256034028        0.0003101965        4.1805203235
 Au        11.6254525945        2.9553101926        4.1805417103
 Au        11.6253017351        5.9113101886        4.1805631044
 Au         1.4775283800        1.4777771653        6.2705329280
 Au         1.4773775717        4.4327771613        6.2705543149
 Au         1.4772267123        7.3887771574        6.2705757089
 Au         4.4335283762        1.4779280246        6.2705323724
 Au         4.4333775678        4.4329280207        6.2705537592
 Au         4.4332267084        7.3889280168        6.2705751533
 Au         7.1915283726        1.4780687791        6.2705318540
 Au         7.1913775642        4.4330687752        6.2705532408
 Au         7.1912267048        7.3890687712        6.2705746349
 Au        10.1475283687        1.4782196385        6.2705312983
 Au        10.1473775604        4.4332196346        6.2705526851
 Au        10.1472267010        7.3892196306        6.2705740792
 Au        13.1035283649        1.4783704979        6.2705307427
 Au        13.1033775565        4.4333704939        6.2705521295
 Au        13.1032266971        7.3893704900        6.2705735236
 Au        -0.0003957947       -0.0003133888        8.3605225088
 Au        -0.0005466031        2.9546866072        8.3605438956
 Au        -0.0006974625        5.9106866033        8.3605652897
 Au         2.9556042014       -0.0001625295        8.3605219531
 Au         2.9554533931        2.9548374666        8.3605433400
 Au         2.9553025337        5.9108374627        8.3605647340
 Au         5.9116041976       -0.0000116701        8.3605213975
 Au         5.9114533892        2.9549883260        8.3605427843
 Au         5.9113025298        5.9109883221        8.3605641784
 Au         8.6696041940        0.0001290844        8.3605208790
 Au         8.6694533856        2.9551290805        8.3605422659
 Au         8.6693025262        5.9111290765        8.3605636600
 Au        11.6256041901        0.0002799438        8.3605203234
 Au        11.6254533818        2.9552799398        8.3605417102
 Au        11.6253025224        5.9112799359        8.3605631043
 Au         1.4775291673        1.4777469125       10.4505329279
 Au         1.4773783589        4.4327469086       10.4505543148
 Au         1.4772274996        7.3887469047       10.4505757088
 Au         4.4335291634        1.4778977719       10.4505323723
 Au         4.4333783551        4.4328977680       10.4505537591
 Au         4.4332274957        7.3888977640       10.4505751532
 Au         7.1915291598        1.4780385264       10.4505318539
 Au         7.1913783515        4.4330385224       10.4505532407
 Au         7.1912274921        7.3890385185       10.4505746348
 Au        10.1475291560        1.4781893857       10.4505312982
 Au        10.1473783476        4.4331893818       10.4505526850
 Au        10.1472274883        7.3891893779       10.4505740791
 Au        13.1035291521        1.4783402451       10.4505307426
 Au        13.1033783438        4.4333402412       10.4505521294
 Au        13.1032274844        7.3893402373       10.4505735235
  N         4.8547031768        5.9118078239       12.0323643834
  N         9.5273030793        5.9138462740       12.0345635181
  N         7.1913020475        5.9340270128       12.0405641041
  H        10.3182088570        5.9089613034       12.6863104070
  H         4.0666375954        5.9058621796       12.6883058577
  C         8.3731737232        5.9180600959       12.7320210182
  C         5.9982585696        5.9152170952       12.7932066039
  N         8.3220564787        5.9052235622       14.0810613249
  N         5.9337327714        5.8981083973       14.1023140507
  C         9.1736619626        5.8877395967       14.6415811311
  N         7.1032701791        5.8899434057       14.8292670208
  H         7.2409084001        5.8657703225       16.1070303582
  H         6.3111319725        5.8547072345       16.5401650022
 Au         7.3113037430        5.9339679778       21.0435640814
 Au         5.8122275595        7.4338773685       22.9925752193
 Au         8.8123806605        4.4340304774       22.9925529429
 Au         5.8123807155        4.4328773725       22.9925534996
 Au         8.8122275556        7.4340304734       22.9925746554
 Au         1.4775319231        1.4776410134       25.0825329275
 Au         1.4773811148        4.4326410095       25.0825543144
 Au         1.4772302554        7.3886410056       25.0825757085
 Au         4.4335319193        1.4777918728       25.0825323719
 Au         4.4333811109        4.4327918689       25.0825537587
 Au         4.4332302515        7.3887918650       25.0825751528
 Au         7.1915319157        1.4779326273       25.0825318535
 Au         7.1913811073        4.4329326233       25.0825532403
 Au         7.1912302480        7.3889326194       25.0825746344
 Au        10.1475319118        1.4780834867       25.0825312978
 Au        10.1473811035        4.4330834827       25.0825526847
 Au        10.1472302441        7.3890834788       25.0825740787
 Au        13.1035319080        1.4782343460       25.0825307422
 Au        13.1033810996        4.4332343421       25.0825521290
 Au        13.1032302403        7.3892343382       25.0825735231
 Au        -0.0003922516       -0.0004495407       27.1725225083
 Au        -0.0005430600        2.9545504554       27.1725438951
 Au        -0.0006939194        5.9105504515       27.1725652892
 Au         2.9556077445       -0.0002986813       27.1725219526
 Au         2.9554569362        2.9547013148       27.1725433395
 Au         2.9553060768        5.9107013109       27.1725647335
 Au         5.9116077407       -0.0001478219       27.1725213970
 Au         5.9114569323        2.9548521742       27.1725427838
 Au         5.9113060729        5.9108521702       27.1725641779
 Au         8.6696077371       -0.0000070674       27.1725208786
 Au         8.6694569287        2.9549929286       27.1725422654
 Au         8.6693060694        5.9109929247       27.1725636595
 Au        11.6256077332        0.0001437919       27.1725203229
 Au        11.6254569249        2.9551437880       27.1725417097
 Au        11.6253060655        5.9111437841       27.1725631038
 Au         1.4775327104        1.4776107607       29.2625329274
 Au         1.4773819020        4.4326107568       29.2625543143
 Au         1.4772310427        7.3886107528       29.2625757083
 Au         4.4335327065        1.4777616201       29.2625323718
 Au         4.4333818982        4.4327616161       29.2625537586
 Au         4.4332310388        7.3887616122       29.2625751527
 Au         7.1915327029        1.4779023745       29.2625318534
 Au         7.1913818946        4.4329023706       29.2625532402
 Au         7.1912310352        7.3889023667       29.2625746343
 Au        10.1475326991        1.4780532339       29.2625312977
 Au        10.1473818908        4.4330532300       29.2625526845
 Au        10.1472310314        7.3890532261       29.2625740786
 Au        13.1035326952        1.4782040933       29.2625307421
 Au        13.1033818869        4.4332040894       29.2625521289
 Au        13.1032310275        7.3892040854       29.2625735230
 Au        -0.0003914644       -0.0004797934       31.3525225082
 Au        -0.0005422727        2.9545202027       31.3525438950
 Au        -0.0006931321        5.9105201987       31.3525652891
 Au         2.9556085318       -0.0003289340       31.3525219525
 Au         2.9554577234        2.9546710620       31.3525433394
 Au         2.9553068641        5.9106710581       31.3525647334
 Au         5.9116085279       -0.0001780746       31.3525213969
 Au         5.9114577196        2.9548219214       31.3525427837
 Au         5.9113068602        5.9108219175       31.3525641778
 Au         8.6696085243       -0.0000373202       31.3525208784
 Au         8.6694577160        2.9549626759       31.3525422653
 Au         8.6693068566        5.9109626720       31.3525636594
 Au        11.6256085205        0.0001135392       31.3525203228
 Au        11.6254577122        2.9551135353       31.3525417096
 Au        11.6253068528        5.9111135313       31.3525631037
 Au         1.4775334977        1.4775805079       33.4425329273
 Au         1.4773826893        4.4325805040       33.4425543142
 Au         1.4772318299        7.3885805001       33.4425757082
 Au         4.4335334938        1.4777313673       33.4425323717
 Au         4.4333826855        4.4327313634       33.4425537585
 Au         4.4332318261        7.3887313595       33.4425751526
 Au         7.1915334902        1.4778721218       33.4425318532
 Au         7.1913826819        4.4328721179       33.4425532401
 Au         7.1912318225        7.3888721139       33.4425746342
 Au        10.1475334864        1.4780229812       33.4425312976
 Au        10.1473826780        4.4330229772       33.4425526844
 Au        10.1472318186        7.3890229733       33.4425740785
 Au        13.1035334825        1.4781738406       33.4425307419
 Au        13.1033826742        4.4331738366       33.4425521288
 Au        13.1032318148        7.3891738327       33.4425735229
     183
 i =       2, E =    -5729.2598182696
 Au        -0.0003973693       -0.0002528834        0.0005225090
 Au        -0.0005481776        2.9547471127        0.0005438958
 Au        -0.0006990370        5.9107471088        0.0005652899
 Au         2.9556026269       -0.0001020240        0.0005219533
 Au         2.9554518185        2.9548979721        0.0005433402
 Au         2.9553009591        5.9108979682        0.0005647343
 Au         5.9116026230        0.0000488354        0.0005213977
 Au         5.9114518147        2.9550488315        0.0005427845
 Au         5.9113009553        5.9110488276        0.0005641786
 Au         8.6696026194        0.0001895899        0.0005208793
 Au         8.6694518111        2.9551895859        0.0005422661
 Au         8.6693009517        5.9111895820        0.0005636602
 Au        11.6256026156        0.0003404492        0.0005203236
 Au        11.6254518072        2.9553404453        0.0005417104
 Au        11.6253009479        5.9113404414        0.0005631045
 Au         1.4775275927        1.4778074180        2.0905329282
 Au         1.4773767844        4.4328074141        2.0905543150
 Au         1.4772259250        7.3888074101        2.0905757091
 Au         4.4335275889        1.4779582774        2.0905323725
 Au         4.4333767805        4.4329582735        2.0905537593
 Au         4.4332259212        7.3889582695        2.0905751534
 Au         7.1915275853        1.4780990318        2.0905318541
 Au         7.1913767770        4.4330990279        2.0905532409
 Au         7.1912259176        7.3890990240        2.0905746350
 Au        10.1475275814        1.4782498912        2.0905312984
 Au        10.1473767731        4.4332498873        2.0905526853
 Au        10.1472259137        7.3892498834        2.0905740793
 Au        13.1035275776        1.4784007506        2.0905307428
 Au        13.1033767693        4.4334007467        2.0905521296
 Au        13.1032259099        7.3894007427        2.0905735237
 Au        -0.0003965820       -0.0002831361        4.1805225089
 Au        -0.0005473904        2.9547168600        4.1805438957
 Au        -0.0006982497        5.9107168560        4.1805652898
 Au         2.9556034141       -0.0001322767        4.1805219532
 Au         2.9554526058        2.9548677194        4.1805433401
 Au         2.9553017464        5.9108677154        4.1805647341
 Au         5.9116034103        0.0000185827        4.1805213976
 Au         5.9114526019        2.9550185787        4.1805427844
 Au         5.9113017426        5.9110185748        4.1805641785
 Au         8.6696034067        0.0001593371        4.1805208792
 Au         8.6694525984        2.9551593332        4.1805422660
 Au         8.6693017390        5.9111593293        4.1805636601
 Au        11.6256034028        0.0003101965        4.1805203235
 Au        11.6254525945        2.9553101926        4.1805417103
 Au        11.6253017351        5.9113101886        4.1805631044
 Au         1.4775283800        1.4777771653        6.2705329280
 Au         1.4773775717        4.4327771613        6.2705543149
 Au         1.4772267123        7.3887771574        6.2705757089
 Au         4.4335283762        1.4779280246        6.2705323724
 Au         4.4333775678        4.4329280207        6.2705537592
 Au         4.4332267084        7.3889280168        6.2705751533
 Au         7.1915283726        1.4780687791        6.2705318540
 Au         7.1913775642        4.4330687752        6.2705532408
 Au         7.1912267048        7.3890687712        6.2705746349
 Au        10.1475283687        1.4782196385        6.2705312983
 Au        10.1473775604        4.4332196346        6.2705526851
 Au        10.1472267010        7.3892196306        6.2705740792
 Au        13.1035283649        1.4783704979        6.2705307427
 Au        13.1033775565        4.4333704939        6.2705521295
 Au        13.1032266971        7.3893704900        6.2705735236
 Au        -0.0003957947       -0.0003133888        8.3605225088
 Au        -0.0005466031        2.9546866072        8.3605438956
 Au        -0.0006974625        5.9106866033        8.3605652897
 Au         2.9556042014       -0.0001625295        8.3605219531
 Au         2.9554533931        2.9548374666        8.3605433400
 Au         2.9553025337        5.9108374627        8.3605647340
 Au         5.9116041976       -0.0000116701        8.3605213975
 Au         5.9114533892        2.9549883260        8.3605427843
 Au         5.9113025298        5.9109883221        8.3605641784
 Au         8.6696041940        0.0001290844        8.3605208790
 Au         8.6694533856        2.9551290805        8.3605422659
 Au         8.6693025262        5.9111290765        8.3605636600
 Au        11.6256041901        0.0002799438        8.3605203234
 Au        11.6254533818        2.9552799398        8.3605417102
 Au        11.6253025224        5.9112799359        8.3605631043
 Au         1.4775291673        1.4777469125       10.4505329279
 Au         1.4773783589        4.4327469086       10.4505543148
 Au         1.4772274996        7.3887469047       10.4505757088
 Au         4.4335291634        1.4778977719       10.4505323723
 Au         4.4333783551        4.4328977680       10.4505537591
 Au         4.4332274957        7.3888977640       10.4505751532
 Au         7.1915291598        1.4780385264       10.4505318539
 Au         7.1913783515        4.4330385224       10.4505532407
 Au         7.1912274921        7.3890385185       10.4505746348
 Au        10.1475291560        1.4781893857       10.4505312982
 Au        10.1473783476        4.4331893818       10.4505526850
 Au        10.1472274883        7.3891893779       10.4505740791
 Au        13.1035291521        1.4783402451       10.4505307426
 Au        13.1033783438        4.4333402412       10.4505521294
 Au        13.1032274844        7.3893402373       10.4505735235
  N         4.8547031768        5.9118078239       12.0323643834
  N         9.5273030793        5.9138462740       12.0345635181
  N         7.1913020475        5.9340270128       12.0405641041