     183
 i =       0, E =    -5726.3490251164
 Au         0.0000249306        0.0002060286        0.0002608406
 Au         0.0000152223        2.9552060235        0.0001749310
 Au         0.0000055107        5.9112060185        0.0000889924
 Au         2.9560249299        0.0002157368        0.0002318452
 Au         2.9560152216        2.9552157318        0.0001459356
 Au         2.9560055100        5.9112157267        0.0000599970
 Au         5.9120249293        0.0002254450        0.0002028498
 Au         5.9120152210        2.9552254400        0.0001169402
 Au         5.9120055094        5.9112254349        0.0000310015
 Au         8.6700249287        0.0002345030        0.0001757965
 Au         8.6700152204        2.9552344979        0.0000898869
 Au         8.6700055088        5.9112344929        0.0000039483
 Au        11.6260249281        0.0002442112        0.0001468011
 Au        11.6260152198        2.9552442061        0.0000608915
 Au        11.6260055082        5.9112442011       -0.0000250471
 Au         1.4780405745        1.4782716422        2.0902033697
 Au         1.4780308662        4.4332716372        2.0901174601
 Au         1.4780211546        7.3892716321        2.0900315214
 Au         4.4340405739        1.4782813504        2.0901743742
 Au         4.4340308655        4.4332813454        2.0900884646
 Au         4.4340211540        7.3892813403        2.0900025260
 Au         7.1920405733        1.4782904084        2.0901473210
 Au         7.1920308650        4.4332904033        2.0900614114
 Au         7.1920211534        7.3892903983        2.0899754727
 Au        10.1480405726        1.4783001166        2.0901183256
 Au        10.1480308643        4.4333001115        2.0900324160
 Au        10.1480211527        7.3893001065        2.0899464773
 Au        13.1040405720        1.4783098248        2.0900893301
 Au        13.1040308637        4.4333098198        2.0900034205
 Au        13.1040211521        7.3893098147        2.0899174819
 Au         0.0000659306        0.0003275527        4.1802608328
 Au         0.0000562223        2.9553275476        4.1801749232
 Au         0.0000465107        5.9113275426        4.1800889845
 Au         2.9560659300        0.0003372609        4.1802318373
 Au         2.9560562217        2.9553372558        4.1801459277
 Au         2.9560465101        5.9113372508        4.1800599891
 Au         5.9120659294        0.0003469691        4.1802028419
 Au         5.9120562211        2.9553469641        4.1801169323
 Au         5.9120465095        5.9113469590        4.1800309937
 Au         8.6700659288        0.0003560271        4.1801757887
 Au         8.6700562205        2.9553560220        4.1800898791
 Au         8.6700465089        5.9113560169        4.1800039404
 Au        11.6260659281        0.0003657353        4.1801467932
 Au        11.6260562198        2.9553657302        4.1800608837
 Au        11.6260465082        5.9113657252        4.1799749450
 Au         1.4780815745        1.4783931663        6.2702033618
 Au         1.4780718662        4.4333931613        6.2701174522
 Au         1.4780621546        7.3893931562        6.2700315135
 Au         4.4340815739        1.4784028745        6.2701743664
 Au         4.4340718656        4.4334028695        6.2700884568
 Au         4.4340621540        7.3894028644        6.2700025181
 Au         7.1920815733        1.4784119325        6.2701473131
 Au         7.1920718650        4.4334119274        6.2700614035
 Au         7.1920621534        7.3894119224        6.2699754649
 Au        10.1480815727        1.4784216407        6.2701183177
 Au        10.1480718644        4.4334216356        6.2700324081
 Au        10.1480621528        7.3894216306        6.2699464694
 Au        13.1040815721        1.4784313489        6.2700893223
 Au        13.1040718637        4.4334313439        6.2700034127
 Au        13.1040621522        7.3894313388        6.2699174740
 Au         0.0001069307        0.0004490768        8.3602608249
 Au         0.0000972224        2.9554490717        8.3601749153
 Au         0.0000875108        5.9114490667        8.3600889766
 Au         2.9561069300        0.0004587850        8.3602318295
 Au         2.9560972217        2.9554587799        8.3601459199
 Au         2.9560875101        5.9114587749        8.3600599812
 Au         5.9121069294        0.0004684932        8.3602028340
 Au         5.9120972211        2.9554684882        8.3601169245
 Au         5.9120875095        5.9114684831        8.3600309858
 Au         8.6701069288        0.0004775512        8.3601757808
 Au         8.6700972205        2.9554775461        8.3600898712
 Au         8.6700875089        5.9114775410        8.3600039325
 Au        11.6261069282        0.0004872594        8.3601467854
 Au        11.6260972199        2.9554872543        8.3600608758
 Au        11.6260875083        5.9114872493        8.3599749371
 Au         1.4781225746        1.4785146904       10.4502033539
 Au         1.4781128663        4.4335146854       10.4501174443
 Au         1.4781031547        7.3895146803       10.4500315057
 Au         4.4341225740        1.4785243986       10.4501743585
 Au         4.4341128657        4.4335243936       10.4500884489
 Au         4.4341031541        7.3895243885       10.4500025102
 Au         7.1921225734        1.4785334566       10.4501473052
 Au         7.1921128651        4.4335334515       10.4500613957
 Au         7.1921031535        7.3895334465       10.4499754570
 Au        10.1481225727        1.4785431648       10.4501183098
 Au        10.1481128644        4.4335431597       10.4500324002
 Au        10.1481031528        7.3895431547       10.4499464616
 Au        13.1041225721        1.4785528730       10.4500893144
 Au        13.1041128638        4.4335528680       10.4500034048
 Au        13.1041031522        7.3895528629       10.4499174661
  N         4.8554235270        5.9122467668       12.0318913470
  N         9.5281235391        5.9141121722       12.0339954513
  N         7.1921235294        5.9345796746       12.0400177547
  H         5.6419535482        5.9055443765       12.6851957455
  H         8.7337710208        5.9061982401       12.7036739467
  C         6.6032053399        5.9137679592       12.7570964345
  C         7.7807164472        5.9145683726       12.7574898393
  N         6.5689811260        5.8923061397       14.0885621115
  N         7.7824933652        5.8935762074       14.0955768316
  C         7.1706104427        5.8840695886       14.7056586973
  N         7.5651278704        5.8574092433       15.8674219287
  H         6.5979636598        5.8638859693       16.4097715060
  H         7.7438145331        5.8582688292       16.5978411953
 Au         7.2822118365        5.9348414166       21.0430177377
 Au         5.8379768208        7.3743938734       22.9919937162
 Au         8.7774858812        4.4349029361       22.9920468453
 Au         5.8379858851        4.4338938781       22.9920739276
 Au         8.7774768202        7.3744029313       22.9919666630
 Au         1.4782660944        1.4789400829       25.0822033264
 Au         1.4782563861        4.4339400778       25.0821174168
 Au         1.4782466745        7.3899400728       25.0820314781
 Au         4.4342660938        1.4789497911       25.0821743309
 Au         4.4342563855        4.4339497861       25.0820884213
 Au         4.4342466739        7.3899497810       25.0820024827
 Au         7.1922660932        1.4789588491       25.0821472777
 Au         7.1922563849        4.4339588440       25.0820613681
 Au         7.1922466733        7.3899588389       25.0819754294
 Au        10.1482660926        1.4789685573       25.0821182823
 Au        10.1482563842        4.4339685522       25.0820323727
 Au        10.1482466727        7.3899685472       25.0819464340
 Au        13.1042660919        1.4789782655       25.0820892868
 Au        13.1042563836        4.4339782604       25.0820033772
 Au        13.1042466720        7.3899782554       25.0819174386
 Au         0.0002914505        0.0009959934       27.1722607895
 Au         0.0002817422        2.9559959883       27.1721748799
 Au         0.0002720306        5.9119959832       27.1720889412
 Au         2.9562914499        0.0010057016       27.1722317941
 Au         2.9562817416        2.9560056965       27.1721458845
 Au         2.9562720300        5.9120056915       27.1720599458
 Au         5.9122914493        0.0010154098       27.1722027986
 Au         5.9122817410        2.9560154047       27.1721168890
 Au         5.9122720294        5.9120153997       27.1720309504
 Au         8.6702914487        0.0010244677       27.1721757454
 Au         8.6702817404        2.9560244627       27.1720898358
 Au         8.6702720288        5.9120244576       27.1720038971
 Au        11.6262914481        0.0010341760       27.1721467500
 Au        11.6262817398        2.9560341709       27.1720608404
 Au        11.6262720282        5.9120341658       27.1719749017
 Au         1.4783070945        1.4790616070       29.2622033185
 Au         1.4782973862        4.4340616019       29.2621174089
 Au         1.4782876746        7.3900615969       29.2620314702
 Au         4.4343070938        1.4790713152       29.2621743231
 Au         4.4342973855        4.4340713101       29.2620884135
 Au         4.4342876739        7.3900713051       29.2620024748
 Au         7.1923070932        1.4790803731       29.2621472698
 Au         7.1922973849        4.4340803681       29.2620613602
 Au         7.1922876733        7.3900803630       29.2619754216
 Au        10.1483070926        1.4790900814       29.2621182744
 Au        10.1482973843        4.4340900763       29.2620323648
 Au        10.1482876727        7.3900900712       29.2619464261
 Au        13.1043070920        1.4790997896       29.2620892790
 Au        13.1042973837        4.4340997845       29.2620033694
 Au        13.1042876721        7.3900997795       29.2619174307
 Au         0.0003324506        0.0011175175       31.3522607816
 Au         0.0003227423        2.9561175124       31.3521748720
 Au         0.0003130307        5.9121175073       31.3520889333
 Au         2.9563324500        0.0011272257       31.3522317862
 Au         2.9563227417        2.9561272206       31.3521458766
 Au         2.9563130301        5.9121272156       31.3520599379
 Au         5.9123324493        0.0011369339       31.3522027908
 Au         5.9123227410        2.9561369288       31.3521168812
 Au         5.9123130294        5.9121369238       31.3520309425
 Au         8.6703324487        0.0011459918       31.3521757375
 Au         8.6703227404        2.9561459868       31.3520898279
 Au         8.6703130288        5.9121459817       31.3520038892
 Au        11.6263324481        0.0011557001       31.3521467421
 Au        11.6263227398        2.9561556950       31.3520608325
 Au        11.6263130282        5.9121556899       31.3519748938
 Au         1.4783480945        1.4791831311       33.4422033106
 Au         1.4783383862        4.4341831260       33.4421174010
 Au         1.4783286746        7.3901831210       33.4420314624
 Au         4.4343480939        1.4791928393       33.4421743152
 Au         4.4343383856        4.4341928342       33.4420884056
 Au         4.4343286740        7.3901928292       33.4420024669
 Au         7.1923480933        1.4792018972       33.4421472620
 Au         7.1923383850        4.4342018922       33.4420613524
 Au         7.1923286734        7.3902018871       33.4419754137
 Au        10.1483480927        1.4792116055       33.4421182665
 Au        10.1483383844        4.4342116004       33.4420323569
 Au        10.1483286728        7.3902115953       33.4419464183
 Au        13.1043480920        1.4792213137       33.4420892711
 Au        13.1043383837        4.4342213086       33.4420033615
 Au        13.1043286721        7.3902213036       33.4419174228
     183
 i =       1, E =    -5726.3497072499
 Au         0.0000249308        0.0002060307        0.0002608434
 Au         0.0000152224        2.9552060257        0.0001749329
 Au         0.0000055107        5.9112060206        0.0000889933
 Au         2.9560249302        0.0002157391        0.0002318476
 Au         2.9560152218        2.9552157340        0.0001459371
 Au         2.9560055101        5.9112157289        0.0000599976
 Au         5.9120249296        0.0002254474        0.0002028519
 Au         5.9120152212        2.9552254423        0.0001169414
 Au         5.9120055095        5.9112254373        0.0000310018
 Au         8.6700249290        0.0002345054        0.0001757984
 Au         8.6700152206        2.9552345004        0.0000898879
 Au         8.6700055089        5.9112344953        0.0000039483
 Au        11.6260249283        0.0002442137        0.0001468027
 Au        11.6260152199        2.9552442087        0.0000608922
 Au        11.6260055082        5.9112442036       -0.0000250474
 Au         1.4780405749        1.4782716451        2.0902033718
 Au         1.4780308665        4.4332716400        2.0901174613
 Au         1.4780211548        7.3892716349        2.0900315217
 Au         4.4340405743        1.4782813534        2.0901743761
 Au         4.4340308659        4.4332813483        2.0900884656
 Au         4.4340211542        7.3892813433        2.0900025260
 Au         7.1920405737        1.4782904114        2.0901473225
 Au         7.1920308653        4.4332904064        2.0900614120
 Au         7.1920211536        7.3892904013        2.0899754725
 Au        10.1480405731        1.4783001197        2.0901183268
 Au        10.1480308646        4.4333001147        2.0900324163
 Au        10.1480211530        7.3893001096        2.0899464767
 Au        13.1040405724        1.4783098281        2.0900893311
 Au        13.1040308640        4.4333098230        2.0900034206
 Au        13.1040211523        7.3893098179        2.0899174810
 Au         0.0000659313        0.0003275561        4.1802608355
 Au         0.0000562229        2.9553275511        4.1801749250
 Au         0.0000465112        5.9113275460        4.1800889854
 Au         2.9560659307        0.0003372644        4.1802318398
 Au         2.9560562223        2.9553372594        4.1801459293
 Au         2.9560465106        5.9113372543        4.1800599897
 Au         5.9120659300        0.0003469728        4.1802028440
 Au         5.9120562216        2.9553469677        4.1801169335
 Au         5.9120465099        5.9113469626        4.1800309940
 Au         8.6700659295        0.0003560308        4.1801757905
 Au         8.6700562211        2.9553560257        4.1800898800
 Au         8.6700465094        5.9113560207        4.1800039405
 Au        11.6260659288        0.0003657391        4.1801467948
 Au        11.6260562204        2.9553657341        4.1800608843
 Au        11.6260465087        5.9113657290        4.1799749447
 Au         1.4780815754        1.4783931704        6.2702033639
 Au         1.4780718670        4.4333931654        6.2701174534
 Au         1.4780621553        7.3893931603        6.2700315139
 Au         4.4340815748        1.4784028787        6.2701743682
 Au         4.4340718664        4.4334028737        6.2700884577
 Au         4.4340621547        7.3894028686        6.2700025181
 Au         7.1920815742        1.4784119368        6.2701473147
 Au         7.1920718658        4.4334119317        6.2700614042
 Au         7.1920621541        7.3894119267        6.2699754646
 Au        10.1480815735        1.4784216451        6.2701183189
 Au        10.1480718651        4.4334216400        6.2700324084
 Au        10.1480621534        7.3894216350        6.2699464689
 Au        13.1040815729        1.4784313534        6.2700893232
 Au        13.1040718645        4.4334313484        6.2700034127
 Au        13.1040621528        7.3894313433        6.2699174731
 Au         0.0001069318        0.0004490815        8.3602608276
 Au         0.0000972234        2.9554490764        8.3601749171
 Au         0.0000875117        5.9114490714        8.3600889776
 Au         2.9561069312        0.0004587898        8.3602318319
 Au         2.9560972228        2.9554587847        8.3601459214
 Au         2.9560875111        5.9114587797        8.3600599818
 Au         5.9121069305        0.0004684981        8.3602028362
 Au         5.9120972221        2.9554684931        8.3601169257
 Au         5.9120875104        5.9114684880        8.3600309861
 Au         8.6701069299        0.0004775562        8.3601757826
 Au         8.6700972215        2.9554775511        8.3600898721
 Au         8.6700875098        5.9114775460        8.3600039326
 Au        11.6261069293        0.0004872645        8.3601467869
 Au        11.6260972209        2.9554872594        8.3600608764
 Au        11.6260875092        5.9114872544        8.3599749369
 Au         1.4781225759        1.4785146958       10.4502033560
 Au         1.4781128675        4.4335146907       10.4501174456
 Au         1.4781031558        7.3895146857       10.4500315060
 Au         4.4341225752        1.4785244041       10.4501743603
 Au         4.4341128668        4.4335243991       10.4500884498
 Au         4.4341031551        7.3895243940       10.4500025103
 Au         7.1921225747        1.4785334621       10.4501473068
 Au         7.1921128662        4.4335334571       10.4500613963
 Au         7.1921031546        7.3895334520       10.4499754567
 Au        10.1481225740        1.4785431705       10.4501183111
 Au        10.1481128656        4.4335431654       10.4500324006
 Au        10.1481031539        7.3895431604       10.4499464610
 Au        13.1041225734        1.4785528788       10.4500893153
 Au        13.1041128650        4.4335528737       10.4500034048
 Au        13.1041031533        7.3895528687       10.4499174653
  N         4.8554235273        5.9122467704       12.0318913479
  N         9.5281235404        5.9141121765       12.0339954513
  N         7.1921235307        5.9345796807       12.0400177548
  H         5.6419672172        5.9055443423       12.6851958628
  H         8.7337576344        5.9061981974       12.7036740519
  C         6.6031923367        5.9137674547       12.7571119902
  C         7.7807291916        5.9145678976       12.7575053381
  N         6.5689561332        5.8923065231       14.0885397844
  N         7.7825172942        5.8935767124       14.0955524651
  C         7.1706117356        5.8840689518       14.7057053407
  N         7.5651274915        5.8574091893       15.8674161917
  H         6.5979666661        5.8638859723       16.4097697803
  H         7.7438145286        5.8582688133       16.5978501662
 Au         7.2822115250        5.9348414254       21.0430177379
 Au         5.8379770819        7.3743932501       22.9919937161
 Au         8.7774855099        4.4349029455       22.9920468457
 Au         5.8379861464        4.4338938875       22.9920739283
 Au         8.7774764487        7.3744023082       22.9919666626
 Au         1.4782660972        1.4789400927       25.0822033285
 Au         1.4782563888        4.4339400877       25.0821174180
 Au         1.4782466771        7.3899400826       25.0820314784
 Au         4.4342660966        1.4789498010       25.0821743328
 Au         4.4342563881        4.4339497960       25.0820884223
 Au         4.4342466765        7.3899497909       25.0820024827
 Au         7.1922660960        1.4789588591       25.0821472792
 Au         7.1922563876        4.4339588540       25.0820613687
 Au         7.1922466759        7.3899588490       25.0819754292
 Au        10.1482660953        1.4789685674       25.0821182835
 Au        10.1482563869        4.4339685623       25.0820323730
 Au        10.1482466752        7.3899685573       25.0819464334
 Au        13.1042660947        1.4789782757       25.0820892878
 Au        13.1042563863        4.4339782707       25.0820033773
 Au        13.1042466746        7.3899782656       25.0819174377
 Au         0.0002914536        0.0009960038       27.1722607922
 Au         0.0002817452        2.9559959987       27.1721748817
 Au         0.0002720335        5.9119959937       27.1720889421
 Au         2.9562914530        0.0010057121       27.1722317965
 Au         2.9562817446        2.9560057070       27.1721458860
 Au         2.9562720329        5.9120057020       27.1720599464
 Au         5.9122914523        0.0010154204       27.1722028007
 Au         5.9122817439        2.9560154154       27.1721168903
 Au         5.9122720322        5.9120154103       27.1720309507
 Au         8.6702914517        0.0010244785       27.1721757472
 Au         8.6702817433        2.9560244734       27.1720898367
 Au         8.6702720316        5.9120244683       27.1720038972
 Au        11.6262914511        0.0010341868       27.1721467515
 Au        11.6262817427        2.9560341817       27.1720608410
 Au        11.6262720310        5.9120341767       27.1719749014
 Au         1.4783070977        1.4790616181       29.2622033206
 Au         1.4782973893        4.4340616130       29.2621174101
 Au         1.4782876776        7.3900616080       29.2620314706
 Au         4.4343070970        1.4790713264       29.2621743249
 Au         4.4342973886        4.4340713214       29.2620884144
 Au         4.4342876769        7.3900713163       29.2620024748
 Au         7.1923070965        1.4790803844       29.2621472714
 Au         7.1922973880        4.4340803794       29.2620613609
 Au         7.1922876763        7.3900803743       29.2619754213
 Au        10.1483070958        1.4790900928       29.2621182756
 Au        10.1482973874        4.4340900877       29.2620323651
 Au        10.1482876757        7.3900900826       29.2619464256
 Au        13.1043070952        1.4790998011       29.2620892799
 Au        13.1042973868        4.4340997960       29.2620033694
 Au        13.1042876751        7.3900997910       29.2619174298
 Au         0.0003324541        0.0011175291       31.3522607843
 Au         0.0003227457        2.9561175241       31.3521748738
 Au         0.0003130340        5.9121175190       31.3520889343
 Au         2.9563324534        0.0011272375       31.3522317886
 Au         2.9563227450        2.9561272324       31.3521458781
 Au         2.9563130333        5.9121272273       31.3520599385
 Au         5.9123324528        0.0011369458       31.3522027929
 Au         5.9123227444        2.9561369407       31.3521168824
 Au         5.9123130327        5.9121369357       31.3520309428
 Au         8.6703324522        0.0011460038       31.3521757394
 Au         8.6703227438        2.9561459988       31.3520898289
 Au         8.6703130321        5.9121459937       31.3520038893
 Au        11.6263324516        0.0011557121       31.3521467436
 Au        11.6263227432        2.9561557071       31.3520608331
 Au        11.6263130315        5.9121557020       31.3519748936
 Au         1.4783480982        1.4791831435       33.4422033128
 Au         1.4783383898        4.4341831384       33.4421174023
 Au         1.4783286781        7.3901831333       33.4420314627
 Au         4.4343480975        1.4791928518       33.4421743170
 Au         4.4343383891        4.4341928467       33.4420884065
 Au         4.4343286774        7.3901928417       33.4420024670
 Au         7.1923480969        1.4792019098       33.4421472635
 Au         7.1923383885        4.4342019048       33.4420613530
 Au         7.1923286768        7.3902018997       33.4419754134
 Au        10.1483480963        1.4792116181       33.4421182678
 Au        10.1483383879        4.4342116131       33.4420323573
 Au        10.1483286762        7.3902116080       33.4419464177
 Au        13.1043480957        1.4792213265       33.4420892720
 Au        13.1043383873        4.4342213214       33.4420033615
 Au        13.1043286756        7.3902213163       33.4419174220
     183
 i =       2, E =    -5726.4621493289
 Au         0.0000249724        0.0002063742        0.0002612782
 Au         0.0000152478        2.9552063691        0.0001752245
 Au         0.0000055199        5.9112063640        0.0000891417
 Au         2.9560249718        0.0002160987        0.0002322341
 Au         2.9560152472        2.9552160936        0.0001461804
 Au         2.9560055193        5.9112160885        0.0000600976
 Au         5.9120249711        0.0002258232        0.0002031900
 Au         5.9120152465        2.9552258181        0.0001171363
 Au         5.9120055186        5.9112258131        0.0000310535
 Au         8.6700249705        0.0002348963        0.0001760914
 Au         8.6700152459        2.9552348913        0.0000900377
 Au         8.6700055181        5.9112348862        0.0000039549
 Au        11.6260249699        0.0002446208        0.0001470474
 Au        11.6260152453        2.9552446158        0.0000609937
 Au        11.6260055174        5.9112446107       -0.0000250892
 Au         1.4780406425        1.4782720979        2.0902037108
 Au         1.4780309180        4.4332720928        2.0901176571
 Au         1.4780211901        7.3892720877        2.0900315743
 Au         4.4340406419        1.4782818224        2.0901746667
 Au         4.4340309173        4.4332818173        2.0900886130
 Au         4.4340211894        7.3892818122        2.0900025302
 Au         7.1920406413        1.4782908955        2.0901475681
 Au         7.1920309167        4.4332908904        2.0900615144
 Au         7.1920211888        7.3892908854        2.0899754316
 Au        10.1480406407        1.4783006200        2.0901185240
 Au        10.1480309161        4.4333006149        2.0900324703
 Au        10.1480211882        7.3893006099        2.0899463875
 Au        13.1040406401        1.4783103445        2.0900894800
 Au        13.1040309155        4.4333103394        2.0900034263
 Au        13.1040211876        7.3893103344        2.0899173435
 Au         0.0000660412        0.0003281021        4.1802612703
 Au         0.0000563166        2.9553280971        4.1801752166
 Au         0.0000465887        5.9113280920        4.1800891338
 Au         2.9560660406        0.0003378266        4.1802322262
 Au         2.9560563160        2.9553378216        4.1801461725
 Au         2.9560465881        5.9113378165        4.1800600897
 Au         5.9120660399        0.0003475511        4.1802031822
 Au         5.9120563154        2.9553475461        4.1801171285
 Au         5.9120465875        5.9113475410        4.1800310456
 Au         8.6700660394        0.0003566243        4.1801760835
 Au         8.6700563148        2.9553566192        4.1800900298
 Au         8.6700465869        5.9113566141        4.1800039470
 Au        11.6260660387        0.0003663488        4.1801470395
 Au        11.6260563141        2.9553663437        4.1800609858
 Au        11.6260465862        5.9113663386        4.1799749030
 Au         1.4780817114        1.4783938258        6.2702037029
 Au         1.4780719868        4.4333938207        6.2701176492
 Au         1.4780622589        7.3893938157        6.2700315664
 Au         4.4340817107        1.4784035503        6.2701746588
 Au         4.4340719861        4.4334035452        6.2700886051
 Au         4.4340622583        7.3894035402        6.2700025223
 Au         7.1920817101        1.4784126234        6.2701475602
 Au         7.1920719856        4.4334126184        6.2700615065
 Au         7.1920622577        7.3894126133        6.2699754237
 Au        10.1480817095        1.4784223480        6.2701185162
 Au        10.1480719849        4.4334223429        6.2700324625
 Au        10.1480622570        7.3894223378        6.2699463796
 Au        13.1040817089        1.4784320725        6.2700894721
 Au        13.1040719843        4.4334320674        6.2700034184
 Au        13.1040622564        7.3894320623        6.2699173356
 Au         0.0001071100        0.0004498301        8.3602612624
 Au         0.0000973855        2.9554498250        8.3601752087
 Au         0.0000876576        5.9114498199        8.3600891259
 Au         2.9561071094        0.0004595546        8.3602322183
 Au         2.9560973848        2.9554595495        8.3601461646
 Au         2.9560876569        5.9114595444        8.3600600818
 Au         5.9121071088        0.0004692791        8.3602031743
 Au         5.9120973842        2.9554692740        8.3601171206
 Au         5.9120876563        5.9114692689        8.3600310378
 Au         8.6701071082        0.0004783522        8.3601760757
 Au         8.6700973836        2.9554783471        8.3600900220
 Au         8.6700876557        5.9114783421        8.3600039391
 Au        11.6261071076        0.0004880767        8.3601470316
 Au        11.6260973830        2.9554880716        8.3600609779
 Au        11.6260876551        5.9114880666        8.3599748951
 Au         1.4781227802        1.4785155537       10.4502036950
 Au         1.4781130556        4.4335155487       10.4501176413
 Au         1.4781033277        7.3895155436       10.4500315585
 Au         4.4341227796        1.4785252782       10.4501746510
 Au         4.4341130550        4.4335252732       10.4500885973
 Au         4.4341033271        7.3895252681       10.4500025144
 Au         7.1921227790        1.4785343514       10.4501475523
 Au         7.1921130544        4.4335343463       10.4500614986
 Au         7.1921033265        7.3895343412       10.4499754158
 Au        10.1481227783        1.4785440759       10.4501185083
 Au        10.1481130538        4.4335440708       10.4500324546
 Au        10.1481033259        7.3895440658       10.4499463718
 Au        13.1041227777        1.4785538004       10.4500894642
 Au        13.1041130531        4.4335537953       10.4500034105
 Au        13.1041033252        7.3895537903       10.4499173277
  N         4.8554235665        5.9122473485       12.0318915002
  N         9.5281237463        5.9141128636       12.0339954437
  N         7.1921237366        5.9345806470       12.0400177844