     183
 i =       0, E =    -5726.2565960459
 Au         0.0000747917        0.0006180858        0.0007825219
 Au         0.0000456668        2.9556180706        0.0005247931
 Au         0.0000165320        5.9116180554        0.0002669771
 Au         2.9560747898        0.0006472104        0.0006955356
 Au         2.9560456649        2.9556471953        0.0004378069
 Au         2.9560165301        5.9116471801        0.0001799909
 Au         5.9120747879        0.0006763351        0.0006085494
 Au         5.9120456630        2.9556763199        0.0003508206
 Au         5.9120165282        5.9116763047        0.0000930046
 Au         8.6700747861        0.0007035089        0.0005273896
 Au         8.6700456612        2.9557034937        0.0002696608
 Au         8.6700165264        5.9117034786        0.0000118448
 Au        11.6260747842        0.0007326336        0.0004404034
 Au        11.6260456593        2.9557326184        0.0001826746
 Au        11.6260165245        5.9117326032       -0.0000751414
 Au         1.4781217235        1.4788149267        2.0906101090
 Au         1.4780925985        4.4338149115        2.0903523802
 Au         1.4780634638        7.3898148963        2.0900945642
 Au         4.4341217216        1.4788440513        2.0905231227
 Au         4.4340925966        4.4338440361        2.0902653939
 Au         4.4340634619        7.3898440210        2.0900075779
 Au         7.1921217198        1.4788712251        2.0904419630
 Au         7.1920925949        4.4338712100        2.0901842342
 Au         7.1920634601        7.3898711948        2.0899264182
 Au        10.1481217179        1.4789003498        2.0903549767
 Au        10.1480925930        4.4339003346        2.0900972479
 Au        10.1480634582        7.3899003194        2.0898394319
 Au        13.1041217160        1.4789294745        2.0902679904
 Au        13.1040925911        4.4339294593        2.0900102616
 Au        13.1040634563        7.3899294441        2.0897524456
 Au         0.0001977919        0.0009826581        4.1807824983
 Au         0.0001686670        2.9559826429        4.1805247695
 Au         0.0001395322        5.9119826277        4.1802669535
 Au         2.9561977900        0.0010117827        4.1806955120
 Au         2.9561686651        2.9560117675        4.1804377832
 Au         2.9561395303        5.9120117524        4.1801799672
 Au         5.9121977881        0.0010409074        4.1806085258
 Au         5.9121686632        2.9560408922        4.1803507970
 Au         5.9121395284        5.9120408770        4.1800929810
 Au         8.6701977863        0.0010680812        4.1805273660
 Au         8.6701686614        2.9560680660        4.1802696372
 Au         8.6701395266        5.9120680508        4.1800118212
 Au        11.6261977844        0.0010972059        4.1804403797
 Au        11.6261686595        2.9560971907        4.1801826510
 Au        11.6261395247        5.9120971755        4.1799248349
 Au         1.4782447236        1.4791794989        6.2706100854
 Au         1.4782155987        4.4341794838        6.2703523566
 Au         1.4781864639        7.3901794686        6.2700945406
 Au         4.4342447217        1.4792086236        6.2705230991
 Au         4.4342155968        4.4342086084        6.2702653703
 Au         4.4341864620        7.3902085932        6.2700075543
 Au         7.1922447200        1.4792357974        6.2704419394
 Au         7.1922155950        4.4342357822        6.2701842106
 Au         7.1921864603        7.3902357671        6.2699263946
 Au        10.1482447181        1.4792649221        6.2703549531
 Au        10.1482155931        4.4342649069        6.2700972243
 Au        10.1481864584        7.3902648917        6.2698394083
 Au        13.1042447162        1.4792940468        6.2702679668
 Au        13.1042155912        4.4342940316        6.2700102380
 Au        13.1041864565        7.3902940164        6.2697524220
 Au         0.0003207920        0.0013472303        8.3607824747
 Au         0.0002916671        2.9563472152        8.3605247459
 Au         0.0002625323        5.9123472000        8.3602669299
 Au         2.9563207901        0.0013763550        8.3606954884
 Au         2.9562916652        2.9563763398        8.3604377596
 Au         2.9562625304        5.9123763246        8.3601799436
 Au         5.9123207882        0.0014054797        8.3606085021
 Au         5.9122916633        2.9564054645        8.3603507734
 Au         5.9122625285        5.9124054493        8.3600929573
 Au         8.6703207865        0.0014326535        8.3605273424
 Au         8.6702916616        2.9564326383        8.3602696136
 Au         8.6702625268        5.9124326231        8.3600117976
 Au        11.6263207846        0.0014617782        8.3604403561
 Au        11.6262916597        2.9564617630        8.3601826273
 Au        11.6262625249        5.9124617478        8.3599248113
 Au         1.4783677238        1.4795440712       10.4506100618
 Au         1.4783385989        4.4345440561       10.4503523330
 Au         1.4783094641        7.3905440409       10.4500945170
 Au         4.4343677219        1.4795731959       10.4505230755
 Au         4.4343385970        4.4345731807       10.4502653467
 Au         4.4343094622        7.3905731655       10.4500075307
 Au         7.1923677201        1.4796003697       10.4504419157
 Au         7.1923385952        4.4346003545       10.4501841870
 Au         7.1923094604        7.3906003394       10.4499263710
 Au        10.1483677182        1.4796294944       10.4503549295
 Au        10.1483385933        4.4346294792       10.4500972007
 Au        10.1483094585        7.3906294640       10.4498393847
 Au        13.1043677163        1.4796586190       10.4502679432
 Au        13.1043385914        4.4346586039       10.4500102144
 Au        13.1043094566        7.3906585887       10.4497523984
  N         4.8554705810        5.9129403004       12.0320740410
  N         9.5283706172        5.9149365166       12.0339863540
  N         7.1923705883        5.9357390238       12.0400532640
  H         8.7757968109        5.9067354956       12.6618991130
  H         5.6133363635        5.9061661645       12.6779564512
  C         7.7896160825        5.9171991071       12.7396497087
  C         6.5920535520        5.9177796509       12.7509765261
  N         7.7492432043        5.9004153861       14.0772071974
  N         6.5380146826        5.9019530590       14.0986087005
  C         7.1231366554        5.8923758903       14.7147391114
  N         8.3129249917        5.8680160856       15.5010204698
  H         7.1766212899        5.8685500358       16.1324357881
  H         7.0895910663        5.8505286167       16.6863459664
 Au         7.2226355094        5.9365242498       21.0430532131
 Au         5.8879304623        7.2551816202       22.9919811486
 Au         8.7064576437        4.4367088082       22.9921405358
 Au         5.8879576554        4.4356816343       22.9922217827
 Au         8.7064304605        7.2552087940       22.9918999889
 Au         1.4787982832        1.4808202487       25.0826099791
 Au         1.4787691583        4.4358202335       25.0823522503
 Au         1.4787400235        7.3918202183       25.0820944343
 Au         4.4347982813        1.4808493733       25.0825229928
 Au         4.4347691564        4.4358493582       25.0822652640
 Au         4.4347400216        7.3918493430       25.0820074480
 Au         7.1927982796        1.4808765472       25.0824418331
 Au         7.1927691546        4.4358765320       25.0821841043
 Au         7.1927400199        7.3918765168       25.0819262883
 Au        10.1487982777        1.4809056718       25.0823548468
 Au        10.1487691527        4.4359056566       25.0820971180
 Au        10.1487400180        7.3919056415       25.0818393020
 Au        13.1047982758        1.4809347965       25.0822678605
 Au        13.1047691508        4.4359347813       25.0820101317
 Au        13.1047400161        7.3919347661       25.0817523157
 Au         0.0008743516        0.0029879801       27.1727823684
 Au         0.0008452267        2.9579879649       27.1725246397
 Au         0.0008160919        5.9139879497       27.1722668236
 Au         2.9568743497        0.0030171047       27.1726953822
 Au         2.9568452248        2.9580170896       27.1724376534
 Au         2.9568160900        5.9140170744       27.1721798374
 Au         5.9128743479        0.0030462294       27.1726083959
 Au         5.9128452229        2.9580462142       27.1723506671
 Au         5.9128160881        5.9140461990       27.1720928511
 Au         8.6708743461        0.0030734032       27.1725272362
 Au         8.6708452212        2.9580733880       27.1722695074
 Au         8.6708160864        5.9140733729       27.1720116914
 Au        11.6268743442        0.0031025279       27.1724402499
 Au        11.6268452193        2.9581025127       27.1721825211
 Au        11.6268160845        5.9141024975       27.1719247051
 Au         1.4789212834        1.4811848210       29.2626099555
 Au         1.4788921585        4.4361848058       29.2623522267
 Au         1.4788630237        7.3921847906       29.2620944107
 Au         4.4349212815        1.4812139456       29.2625229692
 Au         4.4348921566        4.4362139304       29.2622652404
 Au         4.4348630218        7.3922139153       29.2620074244
 Au         7.1929212797        1.4812411194       29.2624418095
 Au         7.1928921548        4.4362411043       29.2621840807
 Au         7.1928630200        7.3922410891       29.2619262647
 Au        10.1489212778        1.4812702441       29.2623548232
 Au        10.1488921529        4.4362702289       29.2620970944
 Au        10.1488630181        7.3922702137       29.2618392784
 Au        13.1049212759        1.4812993688       29.2622678369
 Au        13.1048921510        4.4362993536       29.2620101081
 Au        13.1048630162        7.3922993384       29.2617522921
 Au         0.0009973518        0.0033525524       31.3527823448
 Au         0.0009682269        2.9583525372       31.3525246160
 Au         0.0009390921        5.9143525220       31.3522668000
 Au         2.9569973499        0.0033816770       31.3526953586
 Au         2.9569682250        2.9583816619       31.3524376298
 Au         2.9569390902        5.9143816467       31.3521798138
 Au         5.9129973480        0.0034108017       31.3526083723
 Au         5.9129682231        2.9584107865       31.3523506435
 Au         5.9129390883        5.9144107713       31.3520928275
 Au         8.6709973462        0.0034379755       31.3525272125
 Au         8.6709682213        2.9584379603       31.3522694838
 Au         8.6709390865        5.9144379452       31.3520116677
 Au        11.6269973443        0.0034671002       31.3524402263
 Au        11.6269682194        2.9584670850       31.3521824975
 Au        11.6269390846        5.9144670698       31.3519246815
 Au         1.4790442836        1.4815493932       33.4426099319
 Au         1.4790151586        4.4365493781       33.4423522031
 Au         1.4789860239        7.3925493629       33.4420943871
 Au         4.4350442817        1.4815785179       33.4425229456
 Au         4.4350151567        4.4365785027       33.4422652168
 Au         4.4349860220        7.3925784876       33.4420074008
 Au         7.1930442799        1.4816056917       33.4424417859
 Au         7.1930151550        4.4366056766       33.4421840571
 Au         7.1929860202        7.3926056614       33.4419262411
 Au        10.1490442780        1.4816348164       33.4423547996
 Au        10.1490151531        4.4366348012       33.4420970708
 Au        10.1489860183        7.3926347860       33.4418392548
 Au        13.1050442761        1.4816639411       33.4422678133
 Au        13.1050151512        4.4366639259       33.4420100845
 Au        13.1049860164        7.3926639107       33.4417522685
     183
 i =       1, E =    -5726.2572841878
 Au         0.0000747915        0.0006180836        0.0007825192
 Au         0.0000456666        2.9556180685        0.0005247913
 Au         0.0000165320        5.9116180533        0.0002669762
 Au         2.9560747896        0.0006472082        0.0006955333
 Au         2.9560456647        2.9556471930        0.0004378054
 Au         2.9560165301        5.9116471778        0.0001799902
 Au         5.9120747877        0.0006763328        0.0006085473
 Au         5.9120456628        2.9556763176        0.0003508194
 Au         5.9120165282        5.9116763024        0.0000930043
 Au         8.6700747859        0.0007035065        0.0005273878
 Au         8.6700456611        2.9557034913        0.0002696599
 Au         8.6700165264        5.9117034761        0.0000118448
 Au        11.6260747840        0.0007326311        0.0004404018
 Au        11.6260456592        2.9557326159        0.0001826739
 Au        11.6260165245        5.9117326007       -0.0000751412
 Au         1.4781217230        1.4788149239        2.0906101069
 Au         1.4780925982        4.4338149087        2.0903523790
 Au         1.4780634635        7.3898148935        2.0900945639
 Au         4.4341217211        1.4788440484        2.0905231209
 Au         4.4340925963        4.4338440332        2.0902653930
 Au         4.4340634616        7.3898440181        2.0900075779
 Au         7.1921217194        1.4788712221        2.0904419614
 Au         7.1920925945        4.4338712070        2.0901842335
 Au         7.1920634599        7.3898711918        2.0899264184
 Au        10.1481217175        1.4789003467        2.0903549755
 Au        10.1480925926        4.4339003315        2.0900972476
 Au        10.1480634580        7.3899003163        2.0898394324
 Au        13.1041217156        1.4789294713        2.0902679895
 Au        13.1040925908        4.4339294561        2.0900102616
 Au        13.1040634561        7.3899294409        2.0897524465
 Au         0.0001977912        0.0009826547        4.1807824956
 Au         0.0001686664        2.9559826395        4.1805247677
 Au         0.0001395317        5.9119826243        4.1802669526
 Au         2.9561977893        0.0010117792        4.1806955096
 Au         2.9561686645        2.9560117641        4.1804377817
 Au         2.9561395298        5.9120117489        4.1801799666
 Au         5.9121977874        0.0010409038        4.1806085237
 Au         5.9121686626        2.9560408886        4.1803507958
 Au         5.9121395279        5.9120408734        4.1800929806
 Au         8.6701977856        0.0010680775        4.1805273642
 Au         8.6701686608        2.9560680624        4.1802696363
 Au         8.6701395261        5.9120680472        4.1800118212
 Au        11.6261977837        0.0010972021        4.1804403782
 Au        11.6261686589        2.9560971869        4.1801826503
 Au        11.6261395242        5.9120971717        4.1799248352
 Au         1.4782447228        1.4791794949        6.2706100833
 Au         1.4782155980        4.4341794797        6.2703523554
 Au         1.4781864633        7.3901794645        6.2700945402
 Au         4.4342447209        1.4792086194        6.2705230973
 Au         4.4342155961        4.4342086043        6.2702653694
 Au         4.4341864614        7.3902085891        6.2700075543
 Au         7.1922447191        1.4792357932        6.2704419378
 Au         7.1922155943        4.4342357780        6.2701842099
 Au         7.1921864596        7.3902357628        6.2699263948
 Au        10.1482447172        1.4792649177        6.2703549519
 Au        10.1482155924        4.4342649026        6.2700972240
 Au        10.1481864577        7.3902648874        6.2698394088
 Au        13.1042447153        1.4792940423        6.2702679659
 Au        13.1042155905        4.4342940271        6.2700102380
 Au        13.1041864558        7.3902940119        6.2697524229
 Au         0.0003207909        0.0013472257        8.3607824720
 Au         0.0002916661        2.9563472105        8.3605247441
 Au         0.0002625314        5.9123471954        8.3602669290
 Au         2.9563207890        0.0013763503        8.3606954860
 Au         2.9562916642        2.9563763351        8.3604377581
 Au         2.9562625295        5.9123763199        8.3601799430
 Au         5.9123207871        0.0014054748        8.3606085001
 Au         5.9122916623        2.9564054597        8.3603507721
 Au         5.9122625276        5.9124054445        8.3600929570
 Au         8.6703207854        0.0014326486        8.3605273406
 Au         8.6702916606        2.9564326334        8.3602696127
 Au         8.6702625259        5.9124326182        8.3600117976
 Au        11.6263207835        0.0014617731        8.3604403546
 Au        11.6262916587        2.9564617580        8.3601826267
 Au        11.6262625240        5.9124617428        8.3599248116
 Au         1.4783677225        1.4795440659       10.4506100597
 Au         1.4783385977        4.4345440507       10.4503523318
 Au         1.4783094630        7.3905440356       10.4500945166
 Au         4.4343677206        1.4795731905       10.4505230737
 Au         4.4343385958        4.4345731753       10.4502653458
 Au         4.4343094611        7.3905731601       10.4500075307
 Au         7.1923677189        1.4796003642       10.4504419142
 Au         7.1923385940        4.4346003490       10.4501841863
 Au         7.1923094594        7.3906003339       10.4499263712
 Au        10.1483677170        1.4796294888       10.4503549282
 Au        10.1483385921        4.4346294736       10.4500972003
 Au        10.1483094575        7.3906294584       10.4498393852
 Au        13.1043677151        1.4796586133       10.4502679423
 Au        13.1043385902        4.4346585982       10.4500102144
 Au        13.1043094556        7.3906585830       10.4497523992
  N         4.8554705808        5.9129402968       12.0320740400
  N         9.5283706159        5.9149365124       12.0339863541
  N         7.1923705870        5.9357390179       12.0400532638
  H         8.7757825694        5.9067354351       12.6619000225
  H         5.6133501056        5.9061661059       12.6779571506
  C         7.7896293213        5.9171986192       12.7396674690
  C         6.5920411519        5.9177792366       12.7509914618
  N         7.7492664969        5.9004156364       14.0771858410
  N         6.5379859488        5.9019534631       14.0985846183
  C         7.1231437474        5.8923751619       14.7147844728
  N         8.3129219955        5.8680160152       15.5010227659
  H         7.1766180277        5.8685501216       16.1324350185
  H         7.0895931685        5.8505285124       16.6863504497
 Au         7.2226358166        5.9365242411       21.0430532129
 Au         5.8879302047        7.2551822348       22.9919811487
 Au         8.7064580100        4.4367087989       22.9921405353
 Au         5.8879573977        4.4356816251       22.9922217819
 Au         8.7064308268        7.2552094086       22.9918999892
 Au         1.4787982805        1.4808202390       25.0826099770
 Au         1.4787691557        4.4358202238       25.0823522491
 Au         1.4787400210        7.3918202086       25.0820944340
 Au         4.4347982786        1.4808493635       25.0825229910
 Au         4.4347691538        4.4358493484       25.0822652631
 Au         4.4347400191        7.3918493332       25.0820074480
 Au         7.1927982768        1.4808765373       25.0824418316
 Au         7.1927691520        4.4358765221       25.0821841037
 Au         7.1927400173        7.3918765069       25.0819262886
 Au        10.1487982749        1.4809056618       25.0823548456
 Au        10.1487691501        4.4359056467       25.0820971177
 Au        10.1487400154        7.3919056315       25.0818393026
 Au        13.1047982730        1.4809347864       25.0822678596
 Au        13.1047691482        4.4359347712       25.0820101317
 Au        13.1047400135        7.3919347560       25.0817523166
 Au         0.0008743486        0.0029879698       27.1727823658
 Au         0.0008452238        2.9579879546       27.1725246379
 Au         0.0008160891        5.9139879394       27.1722668227
 Au         2.9568743467        0.0030170944       27.1726953798
 Au         2.9568452219        2.9580170792       27.1724376519
 Au         2.9568160872        5.9140170640       27.1721798367
 Au         5.9128743448        0.0030462189       27.1726083938
 Au         5.9128452200        2.9580462038       27.1723506659
 Au         5.9128160853        5.9140461886       27.1720928508
 Au         8.6708743431        0.0030733927       27.1725272343
 Au         8.6708452183        2.9580733775       27.1722695064
 Au         8.6708160836        5.9140733623       27.1720116913
 Au        11.6268743412        0.0031025172       27.1724402484
 Au        11.6268452164        2.9581025020       27.1721825205
 Au        11.6268160817        5.9141024869       27.1719247053
 Au         1.4789212802        1.4811848100       29.2626099534
 Au         1.4788921554        4.4361847948       29.2623522255
 Au         1.4788630207        7.3921847797       29.2620944104
 Au         4.4349212783        1.4812139346       29.2625229674
 Au         4.4348921535        4.4362139194       29.2622652395
 Au         4.4348630188        7.3922139042       29.2620074244
 Au         7.1929212766        1.4812411083       29.2624418080
 Au         7.1928921517        4.4362410931       29.2621840801
 Au         7.1928630171        7.3922410779       29.2619262649
 Au        10.1489212747        1.4812702329       29.2623548220
 Au        10.1488921498        4.4362702177       29.2620970941
 Au        10.1488630152        7.3922702025       29.2618392790
 Au        13.1049212728        1.4812993574       29.2622678360
 Au        13.1048921479        4.4362993423       29.2620101081
 Au        13.1048630133        7.3922993271       29.2617522930
 Au         0.0009973484        0.0033525408       31.3527823421
 Au         0.0009682236        2.9583525257       31.3525246142
 Au         0.0009390889        5.9143525105       31.3522667991
 Au         2.9569973465        0.0033816654       31.3526953562
 Au         2.9569682217        2.9583816502       31.3524376283
 Au         2.9569390870        5.9143816350       31.3521798131
 Au         5.9129973446        0.0034107900       31.3526083702
 Au         5.9129682198        2.9584107748       31.3523506423
 Au         5.9129390851        5.9144107596       31.3520928272
 Au         8.6709973428        0.0034379637       31.3525272107
 Au         8.6709682180        2.9584379485       31.3522694828
 Au         8.6709390833        5.9144379333       31.3520116677
 Au        11.6269973409        0.0034670883       31.3524402247
 Au        11.6269682161        2.9584670731       31.3521824968
 Au        11.6269390814        5.9144670579       31.3519246817
 Au         1.4790442800        1.4815493810       33.4426099298
 Au         1.4790151551        4.4365493659       33.4423522019
 Au         1.4789860205        7.3925493507       33.4420943868
 Au         4.4350442781        1.4815785056       33.4425229438
 Au         4.4350151532        4.4365784904       33.4422652159
 Au         4.4349860186        7.3925784753       33.4420074008
 Au         7.1930442763        1.4816056793       33.4424417844
 Au         7.1930151515        4.4366056642       33.4421840565
 Au         7.1929860168        7.3926056490       33.4419262413
 Au        10.1490442744        1.4816348039       33.4423547984
 Au        10.1490151496        4.4366347887       33.4420970705
 Au        10.1489860149        7.3926347735       33.4418392553
 Au        13.1050442725        1.4816639285       33.4422678124
 Au        13.1050151477        4.4366639133       33.4420100845
 Au        13.1049860130        7.3926638981       33.4417522694
     183
 i =       2, E =    -5726.3774335476
 Au         0.0000747542        0.0006177757        0.0007821294
 Au         0.0000456439        2.9556177606        0.0005245299
 Au         0.0000165237        5.9116177454        0.0002668432
 Au         2.9560747523        0.0006468858        0.0006951868
 Au         2.9560456420        2.9556468706        0.0004375872
 Au         2.9560165218        5.9116468554        0.0001799006
 Au         5.9120747504        0.0006759958        0.0006082441
 Au         5.9120456401        2.9556759807        0.0003506446
 Au         5.9120165199        5.9116759655        0.0000929579
 Au         8.6700747486        0.0007031560        0.0005271251
 Au         8.6700456383        2.9557031409        0.0002695256
 Au         8.6700165182        5.9117031257        0.0000118389
 Au        11.6260747467        0.0007322661        0.0004401824
 Au        11.6260456364        2.9557322509        0.0001825829
 Au        11.6260165163        5.9117322357       -0.0000751037
 Au         1.4781216624        1.4788145179        2.0906098029
 Au         1.4780925521        4.4338145027        2.0903522034
 Au         1.4780634319        7.3898144875        2.0900945167
 Au         4.4341216605        1.4788436279        2.0905228603
 Au         4.4340925502        4.4338436128        2.0902652608
 Au         4.4340634300        7.3898435976        2.0900075741
 Au         7.1921216587        1.4788707881        2.0904417413
 Au         7.1920925484        4.4338707729        2.0901841418
 Au         7.1920634283        7.3898707578        2.0899264551
 Au        10.1481216568        1.4788998982        2.0903547986
 Au        10.1480925465        4.4338998830        2.0900971991
 Au        10.1480634264        7.3898998678        2.0898395124
 Au        13.1041216549        1.4789290082        2.0902678560
 Au        13.1040925446        4.4339289931        2.0900102565
 Au        13.1040634245        7.3899289779        2.0897525698
 Au         0.0001976927        0.0009821651        4.1807821058
 Au         0.0001685823        2.9559821500        4.1805245063
 Au         0.0001394622        5.9119821348        4.1802668196
 Au         2.9561976908        0.0010112752        4.1806951632
 Au         2.9561685805        2.9560112600        4.1804375636
 Au         2.9561394603        5.9120112448        4.1801798770
 Au         5.9121976889        0.0010403852        4.1806082205
 Au         5.9121685786        2.9560403701        4.1803506210
 Au         5.9121394584        5.9120403549        4.1800929343
 Au         8.6701976871        0.0010675454        4.1805271015
 Au         8.6701685768        2.9560675303        4.1802695020
 Au         8.6701394566        5.9120675151        4.1800118153
 Au        11.6261976852        0.0010966555        4.1804401588
 Au        11.6261685749        2.9560966403        4.1801825593
 Au        11.6261394547        5.9120966251        4.1799248727
 Au         1.4782446009        1.4791789073        6.2706097793
 Au         1.4782154906        4.4341788921        6.2703521798
 Au         1.4781863704        7.3901788769        6.2700944931
 Au         4.4342445990        1.4792080173        6.2705228367
 Au         4.4342154887        4.4342080022        6.2702652372
 Au         4.4341863685        7.3902079870        6.2700075505
 Au         7.1922445972        1.4792351775        6.2704417177
 Au         7.1922154869        4.4342351624        6.2701841182
 Au         7.1921863667        7.3902351472        6.2699264315
 Au        10.1482445953        1.4792642876        6.2703547750
 Au        10.1482154850        4.4342642724        6.2700971755
 Au        10.1481863648        7.3902642572        6.2698394888
 Au        13.1042445934        1.4792933976        6.2702678324
 Au        13.1042154831        4.4342933825        6.2700102329
 Au        13.1041863629        7.3902933673        6.2697525462
 Au         0.0003206311        0.0013465546        8.3607820822
 Au         0.0002915208        2.9563465394        8.3605244827
 Au         0.0002624007        5.9123465242        8.3602667960
 Au         2.9563206292        0.0013756646        8.3606951396
 Au         2.9562915189        2.9563756494        8.3604375400
 Au         2.9562623988        5.9123756343        8.3601798534
 Au         5.9123206273        0.0014047747        8.3606081969
 Au         5.9122915170        2.9564047595        8.3603505974
 Au         5.9122623969        5.9124047443        8.3600929107
 Au         8.6703206256        0.0014319349        8.3605270779
 Au         8.6702915153        2.9564319197        8.3602694784
 Au         8.6702623951        5.9124319045        8.3600117917
 Au        11.6263206237        0.0014610449        8.3604401352
 Au        11.6262915134        2.9564610297        8.3601825357
 Au        11.6262623932        5.9124610146        8.3599248491
 Au         1.4783675393        1.4795432967       10.4506097557
 Au         1.4783384290        4.4345432815       10.4503521562
 Au         1.4783093089        7.3905432664       10.4500944695
 Au         4.4343675374        1.4795724068       10.4505228131
 Au         4.4343384271        4.4345723916       10.4502652136
 Au         4.4343093070        7.3905723764       10.4500075269
 Au         7.1923675357        1.4795995669       10.4504416941
 Au         7.1923384254        4.4345995518       10.4501840946
 Au         7.1923093052        7.3905995366       10.4499264079
 Au        10.1483675338        1.4796286770       10.4503547514
 Au        10.1483384235        4.4346286618       10.4500971519
 Au        10.1483093033        7.3906286467       10.4498394652
 Au        13.1043675319        1.4796577870       10.4502678088
 Au        13.1043384216        4.4346577719       10.4500102093
 Au        13.1043093014        7.3906577567       10.4497525226
  N         4.8554705456        5.9129397786       12.0320739035
  N         9.5283704313        5.9149358964       12.0339863609
  N         7.1923704024        5.9357381515       12.0400532372