     183
 i =       0, E =    -4015.4046574107
 Au         0.0000498611        0.0004120572        0.0005216813
 Au         0.0000304445        2.9554120471        0.0003498621
 Au         0.0000110213        5.9114120369        0.0001779848
 Au         2.9560498599        0.0004314736        0.0004636904
 Au         2.9560304433        2.9554314635        0.0002918712
 Au         2.9560110201        5.9114314534        0.0001199939
 Au         5.9120498586        0.0004508901        0.0004056996
 Au         5.9120304420        2.9554508799        0.0002338804
 Au         5.9120110188        5.9114508698        0.0000620030
 Au         8.6700498574        0.0004690059        0.0003515931
 Au         8.6700304408        2.9554689958        0.0001797739
 Au         8.6700110176        5.9114689857        0.0000078966
 Au        11.6260498562        0.0004884224        0.0002936022
 Au        11.6260304395        2.9554884123        0.0001217830
 Au        11.6260110164        5.9114884021       -0.0000500943
 Au         1.4780811490        1.4785432844        2.0904067393
 Au         1.4780617324        4.4335432743        2.0902349201
 Au         1.4780423092        7.3895432642        2.0900630428
 Au         4.4340811477        1.4785627009        2.0903487485
 Au         4.4340617311        4.4335626908        2.0901769293
 Au         4.4340423079        7.3895626806        2.0900050519
 Au         7.1920811465        1.4785808168        2.0902946420
 Au         7.1920617299        4.4335808066        2.0901228228
 Au         7.1920423067        7.3895807965        2.0899509454
 Au        10.1480811453        1.4786002332        2.0902366511
 Au        10.1480617286        4.4336002231        2.0900648319
 Au        10.1480423055        7.3896002130        2.0898929546
 Au        13.1040811440        1.4786196496        2.0901786603
 Au        13.1040617274        4.4336196395        2.0900068411
 Au        13.1040423042        7.3896196294        2.0898349637
 Au         0.0001318613        0.0006551054        4.1805216655
 Au         0.0001124446        2.9556550953        4.1803498464
 Au         0.0000930215        5.9116550851        4.1801779690
 Au         2.9561318600        0.0006745218        4.1804636747
 Au         2.9561124434        2.9556745117        4.1802918555
 Au         2.9560930202        5.9116745016        4.1801199782
 Au         5.9121318587        0.0006939383        4.1804056838
 Au         5.9121124421        2.9556939281        4.1802338646
 Au         5.9120930189        5.9116939180        4.1800619873
 Au         8.6701318575        0.0007120541        4.1803515773
 Au         8.6701124409        2.9557120440        4.1801797582
 Au         8.6700930177        5.9117120339        4.1800078808
 Au        11.6261318563        0.0007314706        4.1802935865
 Au        11.6261124397        2.9557314605        4.1801217673
 Au        11.6260930165        5.9117314503        4.1799498900
 Au         1.4781631491        1.4787863326        6.2704067236
 Au         1.4781437325        4.4337863225        6.2702349044
 Au         1.4781243093        7.3897863124        6.2700630270
 Au         4.4341631478        1.4788057491        6.2703487327
 Au         4.4341437312        4.4338057390        6.2701769135
 Au         4.4341243080        7.3898057288        6.2700050362
 Au         7.1921631466        1.4788238650        6.2702946262
 Au         7.1921437300        4.4338238548        6.2701228070
 Au         7.1921243068        7.3898238447        6.2699509297
 Au        10.1481631454        1.4788432814        6.2702366354
 Au        10.1481437288        4.4338432713        6.2700648162
 Au        10.1481243056        7.3898432612        6.2698929389
 Au        13.1041631441        1.4788626978        6.2701786445
 Au        13.1041437275        4.4338626877        6.2700068253
 Au        13.1041243043        7.3898626776        6.2698349480
 Au         0.0002138614        0.0008981536        8.3605216498
 Au         0.0001944447        2.9558981434        8.3603498306
 Au         0.0001750216        5.9118981333        8.3601779533
 Au         2.9562138601        0.0009175700        8.3604636589
 Au         2.9561944435        2.9559175599        8.3602918398
 Au         2.9561750203        5.9119175498        8.3601199624
 Au         5.9122138588        0.0009369864        8.3604056681
 Au         5.9121944422        2.9559369763        8.3602338489
 Au         5.9121750190        5.9119369662        8.3600619716
 Au         8.6702138577        0.0009551023        8.3603515616
 Au         8.6701944410        2.9559550922        8.3601797424
 Au         8.6701750179        5.9119550821        8.3600078651
 Au        11.6262138564        0.0009745188        8.3602935708
 Au        11.6261944398        2.9559745087        8.3601217516
 Au        11.6261750166        5.9119744985        8.3599498742
 Au         1.4782451492        1.4790293808       10.4504067078
 Au         1.4782257326        4.4340293707       10.4502348886
 Au         1.4782063094        7.3900293606       10.4500630113
 Au         4.4342451479        1.4790487973       10.4503487170
 Au         4.4342257313        4.4340487871       10.4501768978
 Au         4.4342063081        7.3900487770       10.4500050205
 Au         7.1922451467        1.4790669131       10.4502946105
 Au         7.1922257301        4.4340669030       10.4501227913
 Au         7.1922063069        7.3900668929       10.4499509140
 Au        10.1482451455        1.4790863296       10.4502366196
 Au        10.1482257289        4.4340863195       10.4500648005
 Au        10.1482063057        7.3900863093       10.4498929231
 Au        13.1042451442        1.4791057460       10.4501786288
 Au        13.1042257276        4.4341057359       10.4500068096
 Au        13.1042063044        7.3901057258       10.4498349323
  N         4.8554470540        5.9125935336       12.0319826940
  N         9.5282470781        5.9145243444       12.0339909027
  N         7.1922470588        5.9351593492       12.0400355093
  H         7.2088751795        5.9061399361       12.6735474293
  H         7.1735536922        5.9061822023       12.6908151990
  C         7.1964107112        5.9154835331       12.7483730716
  C         7.1863849996        5.9161740118       12.7542331827
  N         7.1591121652        5.8963607629       14.0828846544
  N         7.1602540239        5.8977646332       14.0970927660
  C         7.1468735491        5.8882227395       14.7101989044
  N         7.9390264311        5.8627126644       15.6842211992
  H         6.8872924748        5.8662180025       16.2711036471
  H         7.4167027997        5.8543987229       16.6420935809
 Au         7.2524236730        5.9356828332       21.0430354754
 Au         5.8629536415        7.3147877468       22.9919874324
 Au         8.7419717625        4.4358058721       22.9920936905
 Au         5.8629717702        4.4347877562       22.9921478551
 Au         8.7419536403        7.3148058627       22.9919333259
 Au         1.4785321888        1.4798801658       25.0824066527
 Au         1.4785127722        4.4348801557       25.0822348335
 Au         1.4784933490        7.3908801455       25.0820629562
 Au         4.4345321876        1.4798995822       25.0823486619
 Au         4.4345127709        4.4348995721       25.0821768427
 Au         4.4344933478        7.3908995620       25.0820049654
 Au         7.1925321864        1.4799176981       25.0822945554
 Au         7.1925127698        4.4349176880       25.0821227362
 Au         7.1924933466        7.3909176779       25.0819508589
 Au        10.1485321851        1.4799371145       25.0822365645
 Au        10.1485127685        4.4349371044       25.0820647454
 Au        10.1484933453        7.3909370943       25.0818928680
 Au        13.1045321838        1.4799565310       25.0821785737
 Au        13.1045127672        4.4349565209       25.0820067545
 Au        13.1044933440        7.3909565107       25.0818348772
 Au         0.0005829011        0.0019919867       27.1725215790
 Au         0.0005634845        2.9569919766       27.1723497598
 Au         0.0005440613        5.9129919665       27.1721778824
 Au         2.9565828998        0.0020114032       27.1724635881
 Au         2.9565634832        2.9570113930       27.1722917689
 Au         2.9565440600        5.9130113829       27.1721198916
 Au         5.9125828986        0.0020308196       27.1724055973
 Au         5.9125634820        2.9570308095       27.1722337781
 Au         5.9125440588        5.9130307994       27.1720619007
 Au         8.6705828974        0.0020489355       27.1723514908
 Au         8.6705634808        2.9570489254       27.1721796716
 Au         8.6705440576        5.9130489152       27.1720077942
 Au        11.6265828961        0.0020683519       27.1722934999
 Au        11.6265634795        2.9570683418       27.1721216807
 Au        11.6265440563        5.9130683317       27.1719498034
 Au         1.4786141889        1.4801232140       29.2624066370
 Au         1.4785947723        4.4351232039       29.2622348178
 Au         1.4785753491        7.3911231937       29.2620629405
 Au         4.4346141877        1.4801426304       29.2623486461
 Au         4.4345947710        4.4351426203       29.2621768270
 Au         4.4345753479        7.3911426102       29.2620049496
 Au         7.1926141865        1.4801607463       29.2622945397
 Au         7.1925947699        4.4351607362       29.2621227205
 Au         7.1925753467        7.3911607261       29.2619508431
 Au        10.1486141852        1.4801801627       29.2622365488
 Au        10.1485947686        4.4351801526       29.2620647296
 Au        10.1485753454        7.3911801425       29.2618928523
 Au        13.1046141840        1.4801995792       29.2621785579
 Au        13.1045947673        4.4351995691       29.2620067388
 Au        13.1045753442        7.3911995589       29.2618348614
 Au         0.0006649012        0.0022350349       31.3525215632
 Au         0.0006454846        2.9572350248       31.3523497440
 Au         0.0006260614        5.9132350147       31.3521778667
 Au         2.9566648999        0.0022544514       31.3524635724
 Au         2.9566454833        2.9572544412       31.3522917532
 Au         2.9566260601        5.9132544311       31.3521198758
 Au         5.9126648987        0.0022738678       31.3524055815
 Au         5.9126454821        2.9572738577       31.3522337623
 Au         5.9126260589        5.9132738476       31.3520618850
 Au         8.6706648975        0.0022919837       31.3523514750
 Au         8.6706454809        2.9572919736       31.3521796558
 Au         8.6706260577        5.9132919634       31.3520077785
 Au        11.6266648962        0.0023114001       31.3522934842
 Au        11.6266454796        2.9573113900       31.3521216650
 Au        11.6266260564        5.9133113799       31.3519497876
 Au         1.4786961890        1.4803662622       33.4424066213
 Au         1.4786767724        4.4353662520       33.4422348021
 Au         1.4786573492        7.3913662419       33.4420629247
 Au         4.4346961878        1.4803856786       33.4423486304
 Au         4.4346767712        4.4353856685       33.4421768112
 Au         4.4346573480        7.3913856584       33.4420049339
 Au         7.1926961866        1.4804037945       33.4422945239
 Au         7.1926767700        4.4354037844       33.4421227047
 Au         7.1926573468        7.3914037743       33.4419508274
 Au        10.1486961853        1.4804232109       33.4422365331
 Au        10.1486767687        4.4354232008       33.4420647139
 Au        10.1486573455        7.3914231907       33.4418928365
 Au        13.1046961841        1.4804426274       33.4421785422
 Au        13.1046767674        4.4354426173       33.4420067230
 Au        13.1046573443        7.3914426071       33.4418348457
     183
 i =       1, E =    -5662.9770864215
 Au         0.0000479727        0.0003964513        0.0005019236
 Au         0.0000292915        2.9553964416        0.0003366118
 Au         0.0000106039        5.9113964318        0.0001712439
 Au         2.9560479715        0.0004151324        0.0004461291
 Au         2.9560292903        2.9554151227        0.0002808172
 Au         2.9560106027        5.9114151129        0.0001154494
 Au         5.9120479703        0.0004338135        0.0003903345
 Au         5.9120292891        2.9554338038        0.0002250226
 Au         5.9120106015        5.9114337940        0.0000596548
 Au         8.6700479692        0.0004512433        0.0003382772
 Au         8.6700292879        2.9554512335        0.0001729653
 Au         8.6700106004        5.9114512238        0.0000075975
 Au        11.6260479680        0.0004699243        0.0002824826
 Au        11.6260292867        2.9554699146        0.0001171708
 Au        11.6260105991        5.9114699049       -0.0000481971
 Au         1.4780780756        1.4785227086        2.0903913349
 Au         1.4780593944        4.4335226989        2.0902260230
 Au         1.4780407068        7.3895226891        2.0900606552
 Au         4.4340780744        1.4785413897        2.0903355403
 Au         4.4340593931        4.4335413799        2.0901702284
 Au         4.4340407056        7.3895413702        2.0900048606
 Au         7.1920780733        1.4785588195        2.0902834830
 Au         7.1920593920        4.4335588097        2.0901181711
 Au         7.1920407044        7.3895588000        2.0899528033
 Au        10.1480780720        1.4785775005        2.0902276884
 Au        10.1480593908        4.4335774908        2.0900623765
 Au        10.1480407032        7.3895774811        2.0898970087
 Au        13.1040780708        1.4785961816        2.0901718939
 Au        13.1040593896        4.4335961719        2.0900065820
 Au        13.1040407020        7.3895961622        2.0898412142
 Au         0.0001268673        0.0006302945        4.1805019085
 Au         0.0001081860        2.9556302848        4.1803365966
 Au         0.0000894984        5.9116302751        4.1801712288
 Au         2.9561268660        0.0006489756        4.1804461139
 Au         2.9561081848        2.9556489659        4.1802808020
 Au         2.9560894972        5.9116489561        4.1801154342
 Au         5.9121268648        0.0006676567        4.1803903194
 Au         5.9121081836        2.9556676470        4.1802250075
 Au         5.9120894960        5.9116676372        4.1800596397
 Au         8.6701268637        0.0006850865        4.1803382620
 Au         8.6701081824        2.9556850767        4.1801729502
 Au         8.6700894949        5.9116850670        4.1800075823
 Au        11.6261268625        0.0007037676        4.1802824675
 Au        11.6261081812        2.9557037578        4.1801171556
 Au        11.6260894937        5.9117037481        4.1799517878
 Au         1.4781569701        1.4787565518        6.2703913197
 Au         1.4781382889        4.4337565421        6.2702260078
 Au         1.4781196013        7.3897565323        6.2700606400
 Au         4.4341569689        1.4787752329        6.2703355252
 Au         4.4341382877        4.4337752232        6.2701702133
 Au         4.4341196001        7.3897752134        6.2700048455
 Au         7.1921569678        1.4787926627        6.2702834678
 Au         7.1921382865        4.4337926529        6.2701181560
 Au         7.1921195990        7.3897926432        6.2699527881
 Au        10.1481569666        1.4788113438        6.2702276733
 Au        10.1481382853        4.4338113340        6.2700623614
 Au        10.1481195977        7.3898113243        6.2698969936
 Au        13.1041569653        1.4788300248        6.2701718787
 Au        13.1041382841        4.4338300151        6.2700065668
 Au        13.1041195965        7.3898300054        6.2698411990
 Au         0.0002057618        0.0008641378        8.3605018933
 Au         0.0001870805        2.9558641280        8.3603365815
 Au         0.0001683930        5.9118641183        8.3601712136
 Au         2.9562057606        0.0008828188        8.3604460988
 Au         2.9561870793        2.9558828091        8.3602807869
 Au         2.9561683917        5.9118827994        8.3601154191
 Au         5.9122057593        0.0009014999        8.3603903042
 Au         5.9121870781        2.9559014902        8.3602249923
 Au         5.9121683905        5.9119014804        8.3600596245
 Au         8.6702057582        0.0009189297        8.3603382469
 Au         8.6701870770        2.9559189200        8.3601729350
 Au         8.6701683894        5.9119189102        8.3600075672
 Au        11.6262057570        0.0009376108        8.3602824523
 Au        11.6261870757        2.9559376010        8.3601171405
 Au        11.6261683882        5.9119375913        8.3599517726
 Au         1.4782358646        1.4789903950       10.4503913046
 Au         1.4782171834        4.4339903853       10.4502259927
 Au         1.4781984958        7.3899903756       10.4500606249
 Au         4.4342358634        1.4790090761       10.4503355100
 Au         4.4342171822        4.4340090664       10.4501701981
 Au         4.4341984946        7.3900090566       10.4500048303
 Au         7.1922358623        1.4790265059       10.4502834527
 Au         7.1922171810        4.4340264962       10.4501181408
 Au         7.1921984935        7.3900264864       10.4499527730
 Au        10.1482358611        1.4790451870       10.4502276581
 Au        10.1482171798        4.4340451772       10.4500623463
 Au        10.1481984923        7.3900451675       10.4498969784
 Au        13.1042358599        1.4790638681       10.4501718636
 Au        13.1042171786        4.4340638583       10.4500065517
 Au        13.1041984910        7.3900638486       10.4498411839
  N         4.8554452720        5.9125672674       12.0319757748
  N         9.5282377205        5.9144931240       12.0339912472
  N         7.1922377020        5.9351154412       12.0400341645
  H         7.0940926700        5.9057793850       12.6679328419
  H         7.2865691070        5.9044913757       12.6845722530
  C         7.6083397906        5.8836232020       12.4887198712
  C         6.7757961596        5.9497859159       13.0286405197
  N         7.0717033368        5.8428442087       13.5417610030
  N         7.2500914077        5.9506544230       14.6383683699
  C         7.1486790279        5.8879114740       14.7100271261
  N         7.9107067464        5.8623101077       15.6980980007
  H         6.8653742017        5.8660412902       16.2816058306
  H         7.4414823158        5.8546919415       16.6387436234
 Au         7.2546800095        5.9356190992       21.0430341318
 Au         5.8610617453        7.3193026772       22.9919879084
 Au         8.7446618177        4.4357374782       22.9920901422
 Au         5.8610791874        4.4347200485       22.9921422554
 Au         8.7446443819        7.3193201069       22.9919358511
 Au         1.4785120332        1.4798089582       25.0823912516
 Au         1.4784933520        4.4348089485       25.0822259397
 Au         1.4784746644        7.3908089387       25.0820605719
 Au         4.4345120320        1.4798276393       25.0823354570
 Au         4.4344933507        4.4348276295       25.0821701451
 Au         4.4344746632        7.3908276198       25.0820047773
 Au         7.1925120309        1.4798450690       25.0822833997
 Au         7.1924933496        4.4348450593       25.0821180878
 Au         7.1924746620        7.3908450496       25.0819527200
 Au        10.1485120296        1.4798637501       25.0822276051
 Au        10.1484933484        4.4348637404       25.0820622932
 Au        10.1484746608        7.3908637307       25.0818969254
 Au        13.1045120284        1.4798824312       25.0821718106
 Au        13.1044933472        4.4348824215       25.0820064987
 Au        13.1044746596        7.3908824117       25.0818411309
 Au         0.0005608249        0.0019165441       27.1725018252
 Au         0.0005421436        2.9569165344       27.1723365133
 Au         0.0005234560        5.9129165247       27.1721711455
 Au         2.9565608236        0.0019352252       27.1724460306
 Au         2.9565421424        2.9569352155       27.1722807187
 Au         2.9565234548        5.9129352057       27.1721153509
 Au         5.9125608224        0.0019539063       27.1723902361
 Au         5.9125421412        2.9569538966       27.1722249242
 Au         5.9125234536        5.9129538868       27.1720595564
 Au         8.6705608213        0.0019713361       27.1723381787
 Au         8.6705421400        2.9569713263       27.1721728669
 Au         8.6705234525        5.9129713166       27.1720074990
 Au        11.6265608201        0.0019900172       27.1722823842
 Au        11.6265421388        2.9569900074       27.1721170723
 Au        11.6265234513        5.9129899977       27.1719517045
 Au         1.4785909277        1.4800428014       29.2623912364
 Au         1.4785722465        4.4350427917       29.2622259245
 Au         1.4785535589        7.3910427819       29.2620605567
 Au         4.4345909265        1.4800614825       29.2623354419
 Au         4.4345722453        4.4350614728       29.2621701300
 Au         4.4345535577        7.3910614630       29.2620047622
 Au         7.1925909254        1.4800789123       29.2622833845
 Au         7.1925722441        4.4350789025       29.2621180727
 Au         7.1925535566        7.3910788928       29.2619527048
 Au        10.1485909242        1.4800975933       29.2622275900
 Au        10.1485722429        4.4350975836       29.2620622781
 Au        10.1485535553        7.3910975739       29.2618969103
 Au        13.1045909229        1.4801162744       29.2621717954
 Au        13.1045722417        4.4351162647       29.2620064835
 Au        13.1045535541        7.3911162550       29.2618411157
 Au         0.0006397194        0.0021503873       31.3525018100
 Au         0.0006210381        2.9571503776       31.3523364982
 Au         0.0006023506        5.9131503679       31.3521711303
 Au         2.9566397182        0.0021690684       31.3524460155
 Au         2.9566210369        2.9571690587       31.3522807036
 Au         2.9566023493        5.9131690490       31.3521153358
 Au         5.9126397169        0.0021877495       31.3523902209
 Au         5.9126210357        2.9571877398       31.3522249090
 Au         5.9126023481        5.9131877300       31.3520595412
 Au         8.6706397158        0.0022051793       31.3523381636
 Au         8.6706210346        2.9572051696       31.3521728517
 Au         8.6706023470        5.9132051598       31.3520074839
 Au        11.6266397146        0.0022238604       31.3522823690
 Au        11.6266210333        2.9572238506       31.3521170572
 Au        11.6266023458        5.9132238409       31.3519516893
 Au         1.4786698222        1.4802766446       33.4423912213
 Au         1.4786511410        4.4352766349       33.4422259094
 Au         1.4786324534        7.3912766252       33.4420605416
 Au         4.4346698210        1.4802953257       33.4423354267
 Au         4.4346511398        4.4352953160       33.4421701148
 Au         4.4346324522        7.3912953062       33.4420047470
 Au         7.1926698199        1.4803127555       33.4422833694
 Au         7.1926511386        4.4353127458       33.4421180575
 Au         7.1926324511        7.3913127360       33.4419526897
 Au        10.1486698187        1.4803314366       33.4422275748
 Au        10.1486511374        4.4353314268       33.4420622630
 Au        10.1486324499        7.3913314171       33.4418968951
 Au        13.1046698175        1.4803501177       33.4421717803
 Au        13.1046511362        4.4353501079       33.4420064684
 Au        13.1046324486        7.3913500982       33.4418411006
     183
 i =       2, E =    -5714.2676344744
 Au         0.0000491462        0.0004061492        0.0005142015
 Au         0.0000300080        2.9554061392        0.0003448458
 Au         0.0000108633        5.9114061292        0.0001754328
 Au         2.9560491450        0.0004252872        0.0004570421
 Au         2.9560300068        2.9554252772        0.0002876864
 Au         2.9560108621        5.9114252673        0.0001182734
 Au         5.9120491437        0.0004444253        0.0003998827
 Au         5.9120300055        2.9554444153        0.0002305270
 Au         5.9120108608        5.9114444053        0.0000611141
 Au         8.6700491426        0.0004622814        0.0003465520
 Au         8.6700300044        2.9554622714        0.0001771963
 Au         8.6700108597        5.9114622615        0.0000077833
 Au        11.6260491413        0.0004814195        0.0002893926
 Au        11.6260300031        2.9554814095        0.0001200369
 Au        11.6260108584        5.9114813995       -0.0000493760
 Au         1.4780799855        1.4785354949        2.0904009075
 Au         1.4780608472        4.4335354849        2.0902315519
 Au         1.4780417025        7.3895354750        2.0900621389
 Au         4.4340799842        1.4785546330        2.0903437482
 Au         4.4340608460        4.4335546230        2.0901743925
 Au         4.4340417013        7.3895546130        2.0900049795
 Au         7.1920799831        1.4785724891        2.0902904174
 Au         7.1920608448        4.4335724791        2.0901210618
 Au         7.1920417001        7.3895724691        2.0899516488
 Au        10.1480799818        1.4785916271        2.0902332581
 Au        10.1480608436        4.4335916172        2.0900639024
 Au        10.1480416989        7.3895916072        2.0898944894
 Au        13.1040799806        1.4786107652        2.0901760987
 Au        13.1040608423        4.4336107552        2.0900067430
 Au        13.1040416976        7.3896107452        2.0898373300
 Au         0.0001299706        0.0006457126        4.1805141860
 Au         0.0001108324        2.9556457026        4.1803448303
 Au         0.0000916877        5.9116456926        4.1801754173
 Au         2.9561299694        0.0006648506        4.1804570266
 Au         2.9561108312        2.9556648406        4.1802876709
 Au         2.9560916865        5.9116648307        4.1801182579
 Au         5.9121299681        0.0006839887        4.1803998672
 Au         5.9121108299        2.9556839787        4.1802305115
 Au         5.9120916852        5.9116839687        4.1800610985
 Au         8.6701299670        0.0007018448        4.1803465365
 Au         8.6701108288        2.9557018348        4.1801771808
 Au         8.6700916841        5.9117018249        4.1800077678
 Au        11.6261299657        0.0007209829        4.1802893771
 Au        11.6261108275        2.9557209729        4.1801200214
 Au        11.6260916828        5.9117209629        4.1799506084
 Au         1.4781608099        1.4787750583        6.2704008920
 Au         1.4781416717        4.4337750483        6.2702315364
 Au         1.4781225270        7.3897750384        6.2700621234
 Au         4.4341608086        1.4787941964        6.2703437326
 Au         4.4341416704        4.4337941864        6.2701743770
 Au         4.4341225257        7.3897941764        6.2700049640
 Au         7.1921608075        1.4788120525        6.2702904019
 Au         7.1921416692        4.4338120425        6.2701210463
 Au         7.1921225245        7.3898120325        6.2699516333
 Au        10.1481608062        1.4788311905        6.2702332425
 Au        10.1481416680        4.4338311806        6.2700638869
 Au        10.1481225233        7.3898311706        6.2698944739
 Au        13.1041608050        1.4788503286        6.2701760832
 Au        13.1041416667        4.4338503186        6.2700067275
 Au        13.1041225220        7.3898503086        6.2698373145
 Au         0.0002107950        0.0008852760        8.3605141705
 Au         0.0001916568        2.9558852660        8.3603448148
 Au         0.0001725121        5.9118852560        8.3601754018
 Au         2.9562107938        0.0009044140        8.3604570111
 Au         2.9561916556        2.9559044040        8.3602876554
 Au         2.9561725109        5.9119043941        8.3601182424
 Au         5.9122107926        0.0009235521        8.3603998517
 Au         5.9121916543        2.9559235421        8.3602304960
 Au         5.9121725096        5.9119235321        8.3600610830
 Au         8.6702107914        0.0009414082        8.3603465210
 Au         8.6701916532        2.9559413982        8.3601771653
 Au         8.6701725085        5.9119413883        8.3600077523
 Au        11.6262107901        0.0009605463        8.3602893616
 Au        11.6261916519        2.9559605363        8.3601200059
 Au        11.6261725072        5.9119605263        8.3599505929
 Au         1.4782416343        1.4790146217       10.4504008765
 Au         1.4782224961        4.4340146117       10.4502315208
 Au         1.4782033514        7.3900146018       10.4500621079
 Au         4.4342416330        1.4790337598       10.4503437171
 Au         4.4342224948        4.4340337498       10.4501743615
 Au         4.4342033501        7.3900337398       10.4500049485
 Au         7.1922416319        1.4790516159       10.4502903864
 Au         7.1922224936        4.4340516059       10.4501210307
 Au         7.1922033489        7.3900515959       10.4499516178
 Au        10.1482416306        1.4790707539       10.4502332270
 Au        10.1482224924        4.4340707440       10.4500638714
 Au        10.1482033477        7.3900707340       10.4498944584
 Au        13.1042416294        1.4790898920       10.4501760676
 Au        13.1042224912        4.4340898820       10.4500067120
 Au        13.1042033465        7.3900898720       10.4498372990
  N         4.8554463794        5.9125835898       12.0319800745
  N         9.5282435356        5.9145125251       12.0339910331
  N         7.1922435165        5.9351427266       12.0400350002