     183
 i =       0, E =    -5720.0412166469
 Au        -0.0001488235        0.0002856155        0.0007829358
 Au        -0.0002436443        2.9552856034        0.0006218100
 Au        -0.0003384972        5.9112855913        0.0004606297
 Au         2.9558511733        0.0003804616        0.0007246671
 Au         2.9557563525        2.9553804496        0.0005635413
 Au         2.9556614996        5.9113804375        0.0004023610
 Au         5.9118511701        0.0004753078        0.0006663984
 Au         5.9117563493        2.9554752957        0.0005052726
 Au         5.9116614965        5.9114752836        0.0003440923
 Au         8.6698511671        0.0005638009        0.0006120327
 Au         8.6697563464        2.9555637888        0.0004509069
 Au         8.6696614935        5.9115637767        0.0002897266
 Au        11.6258511640        0.0006586470        0.0005537640
 Au        11.6257563432        2.9556586349        0.0003926383
 Au        11.6256614903        5.9116586228        0.0002314580
 Au         1.4778449453        1.4784469934        2.0906732034
 Au         1.4777501246        4.4334469814        2.0905120776
 Au         1.4776552717        7.3894469693        2.0903508973
 Au         4.4338449421        1.4785418396        2.0906149347
 Au         4.4337501214        4.4335418275        2.0904538089
 Au         4.4336552685        7.3895418154        2.0902926286
 Au         7.1918449392        1.4786303327        2.0905605690
 Au         7.1917501184        4.4336303206        2.0903994432
 Au         7.1916552655        7.3896303085        2.0902382629
 Au        10.1478449360        1.4787251788        2.0905023003
 Au        10.1477501152        4.4337251667        2.0903411746
 Au        10.1476552623        7.3897251546        2.0901799943
 Au        13.1038449328        1.4788200249        2.0904440317
 Au        13.1037501120        4.4338200129        2.0902829059
 Au        13.1036552591        7.3898200008        2.0901217256
 Au        -0.0000664298        0.0005135373        4.1807829200
 Au        -0.0001612505        2.9555135252        4.1806217942
 Au        -0.0002561034        5.9115135132        4.1804606139
 Au         2.9559335671        0.0006083835        4.1807246513
 Au         2.9558387463        2.9556083714        4.1805635255
 Au         2.9557438934        5.9116083593        4.1804023452
 Au         5.9119335639        0.0007032296        4.1806663826
 Au         5.9118387431        2.9557032175        4.1805052569
 Au         5.9117438902        5.9117032054        4.1803440766
 Au         8.6699335609        0.0007917227        4.1806120169
 Au         8.6698387401        2.9557917106        4.1804508912
 Au         8.6697438872        5.9117916985        4.1802897109
 Au        11.6259335577        0.0008865688        4.1805537482
 Au        11.6258387369        2.9558865567        4.1803926225
 Au        11.6257438840        5.9118865447        4.1802314422
 Au         1.4779273391        1.4786749153        6.2706731876
 Au         1.4778325183        4.4336749032        6.2705120618
 Au         1.4777376654        7.3896748911        6.2703508815
 Au         4.4339273359        1.4787697614        6.2706149189
 Au         4.4338325151        4.4337697493        6.2704537931
 Au         4.4337376622        7.3897697372        6.2702926128
 Au         7.1919273329        1.4788582545        6.2705605532
 Au         7.1918325121        4.4338582424        6.2703994274
 Au         7.1917376593        7.3898582303        6.2702382471
 Au        10.1479273297        1.4789531006        6.2705022845
 Au        10.1478325089        4.4339530885        6.2703411588
 Au        10.1477376561        7.3899530765        6.2701799785
 Au        13.1039273265        1.4790479468        6.2704440159
 Au        13.1038325058        4.4340479347        6.2702828901
 Au        13.1037376529        7.3900479226        6.2701217098
 Au         0.0000159640        0.0007414591        8.3607829042
 Au        -0.0000788568        2.9557414471        8.3606217784
 Au        -0.0001737097        5.9117414350        8.3604605981
 Au         2.9560159608        0.0008363053        8.3607246355
 Au         2.9559211400        2.9558362932        8.3605635097
 Au         2.9558262871        5.9118362811        8.3604023294
 Au         5.9120159576        0.0009311514        8.3606663668
 Au         5.9119211368        2.9559311393        8.3605052411
 Au         5.9118262840        5.9119311272        8.3603440608
 Au         8.6700159546        0.0010196445        8.3606120011
 Au         8.6699211338        2.9560196324        8.3604508754
 Au         8.6698262810        5.9120196204        8.3602896951
 Au        11.6260159514        0.0011144906        8.3605537325
 Au        11.6259211307        2.9561144786        8.3603926067
 Au        11.6258262778        5.9121144665        8.3602314264
 Au         1.4780097328        1.4789028371       10.4506731718
 Au         1.4779149120        4.4339028250       10.4505120460
 Au         1.4778200592        7.3899028129       10.4503508657
 Au         4.4340097296        1.4789976832       10.4506149031
 Au         4.4339149089        4.4339976711       10.4504537773
 Au         4.4338200560        7.3899976590       10.4502925970
 Au         7.1920097267        1.4790861763       10.4505605374
 Au         7.1919149059        4.4340861642       10.4503994116
 Au         7.1918200530        7.3900861522       10.4502382313
 Au        10.1480097235        1.4791810225       10.4505022687
 Au        10.1479149027        4.4341810104       10.4503411430
 Au        10.1478200498        7.3901809983       10.4501799627
 Au        13.1040097203        1.4792758686       10.4504440001
 Au        13.1039148995        4.4342758565       10.4502828743
 Au        13.1038200466        7.3902758444       10.4501216940
  N         4.8550986425        5.9125474455       12.0322648857
  N         9.5278986178        5.9145974814       12.0342726618
  N         7.1918980826        5.9351728556       12.0403175614
  H        10.3304636496        5.9081461793       12.6682806019
  H         4.0598783151        5.9060061531       12.6767017806
  C         8.3779975885        5.9184873884       12.7314736820
  C         5.9979903370        5.9173011926       12.7704632367
  N         8.3307153611        5.9048467858       14.0762955326
  N         5.9247540564        5.9021249411       14.1012193428
  C         8.1365308622        5.8921343190       14.6804302248
  N         7.8950468657        5.8816314562       15.0735433806
  H         7.3534292525        5.8683261957       16.0503991437
  H         6.5368056527        5.8506828725       16.6353816771
 Au         7.2520755444        5.9356668221       21.0433175161
 Au         5.8625674213        7.3147264310       22.9922750421
 Au         8.7416620928        4.4358211108       22.9923701619
 Au         5.8626621280        4.4347264425       22.9924246049
 Au         8.7415674181        7.3148210994       22.9922206536
 Au         1.4782981504        1.4797006725       25.0826731165
 Au         1.4782033296        4.4347006604       25.0825119907
 Au         1.4781084767        7.3907006483       25.0823508104
 Au         4.4342981472        1.4797955186       25.0826148478
 Au         4.4342033264        4.4347955066       25.0824537221
 Au         4.4341084735        7.3907954945       25.0822925418
 Au         7.1922981442        1.4798840117       25.0825604821
 Au         7.1922033234        4.4348839997       25.0823993564
 Au         7.1921084705        7.3908839876       25.0822381761
 Au        10.1482981410        1.4799788579       25.0825022135
 Au        10.1482033202        4.4349788458       25.0823410877
 Au        10.1481084674        7.3909788337       25.0821799074
 Au        13.1042981378        1.4800737040       25.0824439448
 Au        13.1042033170        4.4350736919       25.0822828190
 Au        13.1041084642        7.3910736798       25.0821216387
 Au         0.0003867753        0.0017672164       27.1727828331
 Au         0.0002919545        2.9567672043       27.1726217073
 Au         0.0001971016        5.9127671922       27.1724605270
 Au         2.9563867721        0.0018620625       27.1727245644
 Au         2.9562919513        2.9568620504       27.1725634386
 Au         2.9561970984        5.9128620384       27.1724022583
 Au         5.9123867689        0.0019569087       27.1726662957
 Au         5.9122919481        2.9569568966       27.1725051700
 Au         5.9121970952        5.9129568845       27.1723439897
 Au         8.6703867659        0.0020454018       27.1726119300
 Au         8.6702919451        2.9570453897       27.1724508043
 Au         8.6701970923        5.9130453776       27.1722896240
 Au        11.6263867627        0.0021402479       27.1725536614
 Au        11.6262919419        2.9571402358       27.1723925356
 Au        11.6261970891        5.9131402237       27.1722313553
 Au         1.4783805441        1.4799285943       29.2626731007
 Au         1.4782857233        4.4349285822       29.2625119749
 Au         1.4781908705        7.3909285702       29.2623507946
 Au         4.4343805409        1.4800234405       29.2626148320
 Au         4.4342857201        4.4350234284       29.2624537063
 Au         4.4341908673        7.3910234163       29.2622925260
 Au         7.1923805380        1.4801119336       29.2625604663
 Au         7.1922857172        4.4351119215       29.2623993406
 Au         7.1921908643        7.3911119094       29.2622381603
 Au        10.1483805348        1.4802067797       29.2625021977
 Au        10.1482857140        4.4352067676       29.2623410719
 Au        10.1481908611        7.3912067555       29.2621798916
 Au        13.1043805316        1.4803016258       29.2624439290
 Au        13.1042857108        4.4353016137       29.2622828032
 Au        13.1041908579        7.3913016017       29.2621216229
 Au         0.0004691690        0.0019951382       31.3527828173
 Au         0.0003743482        2.9569951261       31.3526216915
 Au         0.0002794954        5.9129951140       31.3524605112
 Au         2.9564691658        0.0020899843       31.3527245486
 Au         2.9563743451        2.9570899723       31.3525634229
 Au         2.9562794922        5.9130899602       31.3524022426
 Au         5.9124691626        0.0021848305       31.3526662799
 Au         5.9123743419        2.9571848184       31.3525051542
 Au         5.9122794890        5.9131848063       31.3523439739
 Au         8.6704691597        0.0022733236       31.3526119142
 Au         8.6703743389        2.9572733115       31.3524507885
 Au         8.6702794860        5.9132732994       31.3522896082
 Au        11.6264691565        0.0023681697       31.3525536456
 Au        11.6263743357        2.9573681576       31.3523925198
 Au        11.6262794828        5.9133681455       31.3522313395
 Au         1.4784629379        1.4801565161       33.4426730849
 Au         1.4783681171        4.4351565041       33.4425119591
 Au         1.4782732642        7.3911564920       33.4423507788
 Au         4.4344629347        1.4802513623       33.4426148162
 Au         4.4343681139        4.4352513502       33.4424536905
 Au         4.4342732610        7.3912513381       33.4422925102
 Au         7.1924629317        1.4803398554       33.4425604505
 Au         7.1923681109        4.4353398433       33.4423993248
 Au         7.1922732580        7.3913398312       33.4422381445
 Au        10.1484629285        1.4804347015       33.4425021819
 Au        10.1483681077        4.4354346894       33.4423410561
 Au        10.1482732549        7.3914346774       33.4421798758
 Au        13.1044629253        1.4805295476       33.4424439132
 Au        13.1043681045        4.4355295356       33.4422827874
 Au        13.1042732517        7.3915295235       33.4421216071
     183
 i =       1, E =    -5720.0591547062
 Au        -0.0001487982        0.0002856704        0.0007829623
 Au        -0.0002436133        2.9552856583        0.0006218179
 Au        -0.0003384604        5.9112856462        0.0004606190
 Au         2.9558511986        0.0003805108        0.0007246878
 Au         2.9557563835        2.9553804987        0.0005635434
 Au         2.9556615364        5.9113804866        0.0004023445
 Au         5.9118511954        0.0004753512        0.0006664132
 Au         5.9117563804        2.9554753391        0.0005052688
 Au         5.9116615332        5.9114753271        0.0003440699
 Au         8.6698511925        0.0005638390        0.0006120420
 Au         8.6697563774        2.9555638269        0.0004508976
 Au         8.6696615302        5.9115638148        0.0002896987
 Au        11.6258511893        0.0006586794        0.0005537675
 Au        11.6257563742        2.9556586673        0.0003926231
 Au        11.6256615270        5.9116586553        0.0002314242
 Au         1.4778449777        1.4784470586        2.0906732177
 Au         1.4777501626        4.4334470465        2.0905120733
 Au         1.4776553154        7.3894470344        2.0903508744
 Au         4.4338449745        1.4785418990        2.0906149431
 Au         4.4337501594        4.4335418869        2.0904537988
 Au         4.4336553122        7.3895418749        2.0902925999
 Au         7.1918449715        1.4786303868        2.0905605719
 Au         7.1917501564        4.4336303747        2.0903994276
 Au         7.1916553093        7.3896303626        2.0902382287
 Au        10.1478449683        1.4787252272        2.0905022974
 Au        10.1477501532        4.4337252152        2.0903411530
 Au        10.1476553061        7.3897252031        2.0901799541
 Au        13.1038449651        1.4788200677        2.0904440228
 Au        13.1037501500        4.4338200556        2.0902828785
 Au        13.1036553029        7.3898200435        2.0901216795
 Au        -0.0000663961        0.0005136185        4.1807829465
 Au        -0.0001612112        2.9555136064        4.1806218021
 Au        -0.0002560584        5.9115135943        4.1804606032
 Au         2.9559336007        0.0006084589        4.1807246720
 Au         2.9558387856        2.9556084468        4.1805635276
 Au         2.9557439384        5.9116084347        4.1804023287
 Au         5.9119335975        0.0007032993        4.1806663974
 Au         5.9118387824        2.9557032873        4.1805052530
 Au         5.9117439353        5.9117032752        4.1803440541
 Au         8.6699335945        0.0007917871        4.1806120262
 Au         8.6698387794        2.9557917750        4.1804508818
 Au         8.6697439323        5.9117917630        4.1802896829
 Au        11.6259335913        0.0008866276        4.1805537517
 Au        11.6258387763        2.9558866155        4.1803926073
 Au        11.6257439291        5.9118866034        4.1802314084
 Au         1.4779273797        1.4786750067        6.2706732019
 Au         1.4778325647        4.4336749946        6.2705120575
 Au         1.4777377175        7.3896749826        6.2703508586
 Au         4.4339273765        1.4787698471        6.2706149273
 Au         4.4338325615        4.4337698351        6.2704537830
 Au         4.4337377143        7.3897698230        6.2702925841
 Au         7.1919273736        1.4788583349        6.2705605561
 Au         7.1918325585        4.4338583229        6.2703994118
 Au         7.1917377113        7.3898583108        6.2702382129
 Au        10.1479273704        1.4789531754        6.2705022816
 Au        10.1478325553        4.4339531633        6.2703411372
 Au        10.1477377081        7.3899531512        6.2701799383
 Au        13.1039273672        1.4790480158        6.2704440070
 Au        13.1038325521        4.4340480037        6.2702828627
 Au        13.1037377049        7.3900479916        6.2701216638
 Au         0.0000160059        0.0007415666        8.3607829307
 Au        -0.0000788091        2.9557415545        8.3606217864
 Au        -0.0001736563        5.9117415424        8.3604605874
 Au         2.9560160028        0.0008364070        8.3607246562
 Au         2.9559211877        2.9558363950        8.3605635118
 Au         2.9558263405        5.9118363829        8.3604023129
 Au         5.9120159996        0.0009312475        8.3606663816
 Au         5.9119211845        2.9559312354        8.3605052372
 Au         5.9118263373        5.9119312233        8.3603440383
 Au         8.6700159966        0.0010197353        8.3606120104
 Au         8.6699211815        2.9560197232        8.3604508660
 Au         8.6698263343        5.9120197111        8.3602896671
 Au        11.6260159934        0.0011145757        8.3605537359
 Au        11.6259211783        2.9561145636        8.3603925915
 Au        11.6258263311        5.9121145515        8.3602313926
 Au         1.4780097818        1.4789029548       10.4506731861
 Au         1.4779149667        4.4339029428       10.4505120417
 Au         1.4778201195        7.3899029307       10.4503508428
 Au         4.4340097786        1.4789977953       10.4506149115
 Au         4.4339149635        4.4339977832       10.4504537672
 Au         4.4338201164        7.3899977711       10.4502925683
 Au         7.1920097756        1.4790862831       10.4505605403
 Au         7.1919149605        4.4340862710       10.4503993960
 Au         7.1918201134        7.3900862589       10.4502381971
 Au        10.1480097724        1.4791811235       10.4505022658
 Au        10.1479149574        4.4341811114       10.4503411214
 Au        10.1478201102        7.3901810993       10.4501799225
 Au        13.1040097693        1.4792759639       10.4504439912
 Au        13.1039149542        4.4342759518       10.4502828469
 Au        13.1038201070        7.3902759397       10.4501216480
  N         4.8550986827        5.9125475209       12.0322648756
  N         9.5278986785        5.9145975579       12.0342726321
  N         7.1918981433        5.9351729724       12.0403175363
  H        10.3304648195        5.9081460970       12.6682788676
  H         4.0598776195        5.9060061697       12.6767006348
  C         8.3779979130        5.9184874270       12.7314747684
  C         5.9979903872        5.9173013913       12.7704625129
  N         8.3307643180        5.9048495824       14.0761640460
  N         5.9247527411        5.9021253705       14.1012179801
  C         8.1365458672        5.8921395260       14.6802744614
  N         7.8949597682        5.8816230390       15.0738577791
  H         7.3534403499        5.8683264344       16.0503935815
  H         6.5368286464        5.8506824641       16.6353915714
 Au         7.2520695098        5.9356669952       21.0433174910
 Au         5.8625725503        7.3147142910       22.9922750115
 Au         8.7416548874        4.4358212933       22.9923701433
 Au         5.8626672510        4.4347266309       22.9924245918
 Au         8.7415602187        7.3148089534       22.9922206176
 Au         1.4782982284        1.4797008824       25.0826731308
 Au         1.4782034134        4.4347008703       25.0825119864
 Au         1.4781085662        7.3907008582       25.0823507875
 Au         4.4342982253        1.4797957228       25.0826148562
 Au         4.4342034102        4.4347957107       25.0824537119
 Au         4.4341085630        7.3907956986       25.0822925130
 Au         7.1922982223        1.4798842106       25.0825604850
 Au         7.1922034072        4.4348841985       25.0823993407
 Au         7.1921085600        7.3908841864       25.0822381418
 Au        10.1482982191        1.4799790510       25.0825022105
 Au        10.1482034040        4.4349790389       25.0823410661
 Au        10.1481085568        7.3909790268       25.0821798672
 Au        13.1042982159        1.4800738914       25.0824439359
 Au        13.1042034008        4.4350738793       25.0822827916
 Au        13.1041085536        7.3910738672       25.0821215927
 Au         0.0003868547        0.0017674422       27.1727828596
 Au         0.0002920396        2.9567674302       27.1726217153
 Au         0.0001971924        5.9127674181       27.1724605164
 Au         2.9563868515        0.0018622827       27.1727245851
 Au         2.9562920364        2.9568622706       27.1725634407
 Au         2.9561971892        5.9128622585       27.1724022418
 Au         5.9123868483        0.0019571231       27.1726663105
 Au         5.9122920332        2.9569571110       27.1725051661
 Au         5.9121971860        5.9129570989       27.1723439672
 Au         8.6703868453        0.0020456109       27.1726119393
 Au         8.6702920302        2.9570455988       27.1724507950
 Au         8.6701971830        5.9130455867       27.1722895960
 Au        11.6263868421        0.0021404513       27.1725536648
 Au        11.6262920270        2.9571404392       27.1723925204
 Au        11.6261971799        5.9131404271       27.1722313215
 Au         1.4783806305        1.4799288305       29.2626731150
 Au         1.4782858154        4.4349288184       29.2625119706
 Au         1.4781909683        7.3909288063       29.2623507717
 Au         4.4343806273        1.4800236709       29.2626148404
 Au         4.4342858122        4.4350236588       29.2624536961
 Au         4.4341909651        7.3910236467       29.2622924972
 Au         7.1923806243        1.4801121587       29.2625604692
 Au         7.1922858093        4.4351121466       29.2623993249
 Au         7.1921909621        7.3911121345       29.2622381260
 Au        10.1483806211        1.4802069991       29.2625021947
 Au        10.1482858061        4.4352069870       29.2623410503
 Au        10.1481909589        7.3912069749       29.2621798514
 Au        13.1043806180        1.4803018395       29.2624439201
 Au        13.1042858029        4.4353018275       29.2622827758
 Au        13.1041909557        7.3913018154       29.2621215769
 Au         0.0004692567        0.0019953904       31.3527828438
 Au         0.0003744416        2.9569953783       31.3526216995
 Au         0.0002795945        5.9129953662       31.3524605006
 Au         2.9564692535        0.0020902308       31.3527245693
 Au         2.9563744384        2.9570902187       31.3525634249
 Au         2.9562795913        5.9130902066       31.3524022260
 Au         5.9124692503        0.0021850712       31.3526662947
 Au         5.9123744353        2.9571850591       31.3525051503
 Au         5.9122795881        5.9131850471       31.3523439514
 Au         8.6704692474        0.0022735590       31.3526119235
 Au         8.6703744323        2.9572735469       31.3524507792
 Au         8.6702795851        5.9132735348       31.3522895803
 Au        11.6264692442        0.0023683994       31.3525536490
 Au        11.6263744291        2.9573683874       31.3523925046
 Au        11.6262795819        5.9133683753       31.3522313057
 Au         1.4784630326        1.4801567786       33.4426730992
 Au         1.4783682175        4.4351567665       33.4425119548
 Au         1.4782733703        7.3911567544       33.4423507559
 Au         4.4344630294        1.4802516190       33.4426148246
 Au         4.4343682143        4.4352516069       33.4424536803
 Au         4.4342733671        7.3912515949       33.4422924814
 Au         7.1924630264        1.4803401068       33.4425604535
 Au         7.1923682113        4.4353400947       33.4423993091
 Au         7.1922733642        7.3913400826       33.4422381102
 Au        10.1484630232        1.4804349472       33.4425021789
 Au        10.1483682081        4.4354349352       33.4423410345
 Au        10.1482733610        7.3914349231       33.4421798356
 Au        13.1044630200        1.4805297877       33.4424439043
 Au        13.1043682049        4.4355297756       33.4422827600
 Au        13.1042733578        7.3915297635       33.4421215611
     183
 i =       2, E =    -5722.6203623224
 Au        -0.0001444252        0.0002951449        0.0007875443
 Au        -0.0002382552        2.9552951327        0.0006231888
 Au        -0.0003321170        5.9112951204        0.0004587776
 Au         2.9558555716        0.0003889998        0.0007282544
 Au         2.9557617416        2.9553889876        0.0005638988
 Au         2.9556678798        5.9113889753        0.0003994876
 Au         5.9118555685        0.0004828547        0.0006689644
 Au         5.9117617384        2.9554828425        0.0005046088
 Au         5.9116678767        5.9114828302        0.0003401977
 Au         8.6698555655        0.0005704230        0.0006136458
 Au         8.6697617355        2.9555704108        0.0004492902
 Au         8.6696678737        5.9115703985        0.0002848791
 Au        11.6258555623        0.0006642779        0.0005543558
 Au        11.6257617323        2.9556642657        0.0003900003
 Au        11.6256678705        5.9116642534        0.0002255891
 Au         1.4778505613        1.4784583115        2.0906756857
 Au         1.4777567313        4.4334582993        2.0905113302
 Au         1.4776628695        7.3894582870        2.0903469190
 Au         4.4338505581        1.4785521664        2.0906163958
 Au         4.4337567281        4.4335521542        2.0904520402
 Au         4.4336628663        7.3895521419        2.0902876290
 Au         7.1918505551        1.4786397347        2.0905610772
 Au         7.1917567251        4.4336397225        2.0903967216
 Au         7.1916628633        7.3896397102        2.0902323104
 Au        10.1478505520        1.4787335896        2.0905017872
 Au        10.1477567219        4.4337335774        2.0903374316
 Au        10.1476628602        7.3897335651        2.0901730205
 Au        13.1038505488        1.4788274445        2.0904424972
 Au        13.1037567188        4.4338274323        2.0902781416
 Au        13.1036628570        7.3898274200        2.0901137305
 Au        -0.0000605873        0.0005276354        4.1807875283
 Au        -0.0001544173        2.9555276232        4.1806231727
 Au        -0.0002482791        5.9115276110        4.1804587615
 Au         2.9559394095        0.0006214903        4.1807282383
 Au         2.9558455795        2.9556214781        4.1805638827
 Au         2.9557517177        5.9116214659        4.1803994716
 Au         5.9119394063        0.0007153452        4.1806689483
 Au         5.9118455763        2.9557153330        4.1805045928
 Au         5.9117517145        5.9117153208        4.1803401816
 Au         8.6699394034        0.0008029135        4.1806136297
 Au         8.6698455733        2.9558029013        4.1804492742
 Au         8.6697517116        5.9118028891        4.1802848630
 Au        11.6259394002        0.0008967684        4.1805543397
 Au        11.6258455702        2.9558967562        4.1803899842
 Au        11.6257517084        5.9118967440        4.1802255730
 Au         1.4779343991        1.4786908020        6.2706756697
 Au         1.4778405691        4.4336907898        6.2705113141
 Au         1.4777467074        7.3896907776        6.2703469029
 Au         4.4339343960        1.4787846569        6.2706163797
 Au         4.4338405659        4.4337846447        6.2704520241
 Au         4.4337467042        7.3897846325        6.2702876130
 Au         7.1919343930        1.4788722252        6.2705610611
 Au         7.1918405630        4.4338722130        6.2703967055
 Au         7.1917467012        7.3898722008        6.2702322944
 Au        10.1479343898        1.4789660801        6.2705017711
 Au        10.1478405598        4.4339660679        6.2703374156
 Au        10.1477466980        7.3899660557        6.2701730044
 Au        13.1039343866        1.4790599350        6.2704424811
 Au        13.1038405566        4.4340599228        6.2702781256
 Au        13.1037466949        7.3900599106        6.2701137144
 Au         0.0000232506        0.0007601259        8.3607875122
 Au        -0.0000705795        2.9557601137        8.3606231566
 Au        -0.0001644412        5.9117601015        8.3604587455
 Au         2.9560232474        0.0008539808        8.3607282222
 Au         2.9559294174        2.9558539686        8.3605638667
 Au         2.9558355556        5.9118539564        8.3603994555
 Au         5.9120232442        0.0009478358        8.3606689322
 Au         5.9119294142        2.9559478235        8.3605045767
 Au         5.9118355524        5.9119478113        8.3603401655
 Au         8.6700232412        0.0010354040        8.3606136136
 Au         8.6699294112        2.9560353918        8.3604492581
 Au         8.6698355494        5.9120353796        8.3602848469
 Au        11.6260232381        0.0011292590        8.3605543237
 Au        11.6259294080        2.9561292467        8.3603899681
 Au        11.6258355463        5.9121292345        8.3602255569
 Au         1.4780182370        1.4789232925       10.4506756536
 Au         1.4779244070        4.4339232803       10.4505112980
 Au         1.4778305452        7.3899232681       10.4503468869
 Au         4.4340182338        1.4790171475       10.4506163636
 Au         4.4339244038        4.4340171352       10.4504520081
 Au         4.4338305420        7.3900171230       10.4502875969
 Au         7.1920182309        1.4791047157       10.4505610450
 Au         7.1919244009        4.4341047035       10.4503966895
 Au         7.1918305391        7.3901046913       10.4502322783
 Au        10.1480182277        1.4791985706       10.4505017550
 Au        10.1479243977        4.4341985584       10.4503373995
 Au        10.1478305359        7.3901985462       10.4501729883
 Au        13.1040182245        1.4792924256       10.4504424651
 Au        13.1039243945        4.4342924133       10.4502781095
 Au        13.1038305327        7.3902924011       10.4501136983
  N         4.8551056407        5.9125605340       12.0322631250
  N         9.5279091565        5.9146107749       12.0342675147
  N         7.1919086301        5.9351931327       12.0403131985