 # Version information for this restart file 
 # current date 2024-01-11 02:48:11.232
 # current working dir /gpfs/home/cahart/transport/melamine/au_from-h2/ci-neb/ts1/dft_leads-sz_tip-dzvp_surf-dzvp_kpoints-2-4-20_replicas-7
 # Program compiled at                              Thu 21 Sep 19:20:17 BST 2023
 # Program compiled on                                           hx1-c12-login-1
 # Program compiled for                                                    local
 # Source code revision number                                       git:5518aa6
 &GLOBAL
   EXTENDED_FFT_LENGTHS  T
   PRINT_LEVEL  MEDIUM
   PROJECT_NAME 2_dft_wfn-r-0
   OUTPUT_FILE_NAME 2_dft_wfn-r-0.out
   RUN_TYPE  BAND
 &END GLOBAL
 &MOTION
   &CONSTRAINT
     &FIXED_ATOMS
       LIST  1..93 104..183
     &END FIXED_ATOMS
   &END CONSTRAINT
   &BAND
     NPROC_REP  64
     BAND_TYPE  CI-NEB
     NUMBER_OF_REPLICA  7
     K_SPRING     5.0000000000000003E-02
     &CI_NEB
       NSTEPS_IT  5
     &END CI_NEB
     &OPTIMIZE_BAND
       OPT_TYPE  DIIS
       &DIIS
         MAX_STEPS  1000
       &END DIIS
     &END OPTIMIZE_BAND
     &REPLICA
       &COORD
             0.0000000000000000E+00    0.0000000000000000E+00    0.0000000000000000E+00
             0.0000000000000000E+00    2.9549999999999992E+00    0.0000000000000000E+00
             0.0000000000000000E+00    5.9109999999999996E+00    0.0000000000000000E+00
             2.9560000000000000E+00    0.0000000000000000E+00    0.0000000000000000E+00
             2.9560000000000000E+00    2.9549999999999992E+00    0.0000000000000000E+00
             2.9560000000000000E+00    5.9109999999999996E+00    0.0000000000000000E+00
             5.9119999999999999E+00    0.0000000000000000E+00    0.0000000000000000E+00
             5.9119999999999999E+00    2.9549999999999992E+00    0.0000000000000000E+00
             5.9119999999999999E+00    5.9109999999999996E+00    0.0000000000000000E+00
             8.6699999999999999E+00    0.0000000000000000E+00    0.0000000000000000E+00
             8.6699999999999999E+00    2.9549999999999992E+00    0.0000000000000000E+00
             8.6699999999999999E+00    5.9109999999999996E+00    0.0000000000000000E+00
             1.1625999999999998E+01    0.0000000000000000E+00    0.0000000000000000E+00
             1.1625999999999998E+01    2.9549999999999992E+00    0.0000000000000000E+00
             1.1625999999999998E+01    5.9109999999999996E+00    0.0000000000000000E+00
             1.4780000000000000E+00    1.4780000000000000E+00    2.0899999999999999E+00
             1.4780000000000000E+00    4.4330000000000007E+00    2.0899999999999999E+00
             1.4780000000000000E+00    7.3889999999999993E+00    2.0899999999999999E+00
             4.4340000000000002E+00    1.4780000000000000E+00    2.0899999999999999E+00
             4.4340000000000002E+00    4.4330000000000007E+00    2.0899999999999999E+00
             4.4340000000000002E+00    7.3889999999999993E+00    2.0899999999999999E+00
             7.1919999999999975E+00    1.4780000000000000E+00    2.0899999999999999E+00
             7.1919999999999975E+00    4.4330000000000007E+00    2.0899999999999999E+00
             7.1919999999999975E+00    7.3889999999999993E+00    2.0899999999999999E+00
             1.0147999999999998E+01    1.4780000000000000E+00    2.0899999999999999E+00
             1.0147999999999998E+01    4.4330000000000007E+00    2.0899999999999999E+00
             1.0147999999999998E+01    7.3889999999999993E+00    2.0899999999999999E+00
             1.3103999999999990E+01    1.4780000000000000E+00    2.0899999999999999E+00
             1.3103999999999990E+01    4.4330000000000007E+00    2.0899999999999999E+00
             1.3103999999999990E+01    7.3889999999999993E+00    2.0899999999999999E+00
             0.0000000000000000E+00    0.0000000000000000E+00    4.1799999999999997E+00
             0.0000000000000000E+00    2.9549999999999992E+00    4.1799999999999997E+00
             0.0000000000000000E+00    5.9109999999999996E+00    4.1799999999999997E+00
             2.9560000000000000E+00    0.0000000000000000E+00    4.1799999999999997E+00
             2.9560000000000000E+00    2.9549999999999992E+00    4.1799999999999997E+00
             2.9560000000000000E+00    5.9109999999999996E+00    4.1799999999999997E+00
             5.9119999999999999E+00    0.0000000000000000E+00    4.1799999999999997E+00
             5.9119999999999999E+00    2.9549999999999992E+00    4.1799999999999997E+00
             5.9119999999999999E+00    5.9109999999999996E+00    4.1799999999999997E+00
             8.6699999999999999E+00    0.0000000000000000E+00    4.1799999999999997E+00
             8.6699999999999999E+00    2.9549999999999992E+00    4.1799999999999997E+00
             8.6699999999999999E+00    5.9109999999999996E+00    4.1799999999999997E+00
             1.1625999999999998E+01    0.0000000000000000E+00    4.1799999999999997E+00
             1.1625999999999998E+01    2.9549999999999992E+00    4.1799999999999997E+00
             1.1625999999999998E+01    5.9109999999999996E+00    4.1799999999999997E+00
             1.4780000000000000E+00    1.4780000000000000E+00    6.2700000000000005E+00
             1.4780000000000000E+00    4.4330000000000007E+00    6.2700000000000005E+00
             1.4780000000000000E+00    7.3889999999999993E+00    6.2700000000000005E+00
             4.4340000000000002E+00    1.4780000000000000E+00    6.2700000000000005E+00
             4.4340000000000002E+00    4.4330000000000007E+00    6.2700000000000005E+00
             4.4340000000000002E+00    7.3889999999999993E+00    6.2700000000000005E+00
             7.1919999999999975E+00    1.4780000000000000E+00    6.2700000000000005E+00
             7.1919999999999975E+00    4.4330000000000007E+00    6.2700000000000005E+00
             7.1919999999999975E+00    7.3889999999999993E+00    6.2700000000000005E+00
             1.0147999999999998E+01    1.4780000000000000E+00    6.2700000000000005E+00
             1.0147999999999998E+01    4.4330000000000007E+00    6.2700000000000005E+00
             1.0147999999999998E+01    7.3889999999999993E+00    6.2700000000000005E+00
             1.3103999999999990E+01    1.4780000000000000E+00    6.2700000000000005E+00
             1.3103999999999990E+01    4.4330000000000007E+00    6.2700000000000005E+00
             1.3103999999999990E+01    7.3889999999999993E+00    6.2700000000000005E+00
             0.0000000000000000E+00    0.0000000000000000E+00    8.3599999999999994E+00
             0.0000000000000000E+00    2.9549999999999992E+00    8.3599999999999994E+00
             0.0000000000000000E+00    5.9109999999999996E+00    8.3599999999999994E+00
             2.9560000000000000E+00    0.0000000000000000E+00    8.3599999999999994E+00
             2.9560000000000000E+00    2.9549999999999992E+00    8.3599999999999994E+00
             2.9560000000000000E+00    5.9109999999999996E+00    8.3599999999999994E+00
             5.9119999999999999E+00    0.0000000000000000E+00    8.3599999999999994E+00
             5.9119999999999999E+00    2.9549999999999992E+00    8.3599999999999994E+00
             5.9119999999999999E+00    5.9109999999999996E+00    8.3599999999999994E+00
             8.6699999999999999E+00    0.0000000000000000E+00    8.3599999999999994E+00
             8.6699999999999999E+00    2.9549999999999992E+00    8.3599999999999994E+00
             8.6699999999999999E+00    5.9109999999999996E+00    8.3599999999999994E+00
             1.1625999999999998E+01    0.0000000000000000E+00    8.3599999999999994E+00
             1.1625999999999998E+01    2.9549999999999992E+00    8.3599999999999994E+00
             1.1625999999999998E+01    5.9109999999999996E+00    8.3599999999999994E+00
             1.4780000000000000E+00    1.4780000000000000E+00    1.0449999999999998E+01
             1.4780000000000000E+00    4.4330000000000007E+00    1.0449999999999998E+01
             1.4780000000000000E+00    7.3889999999999993E+00    1.0449999999999998E+01
             4.4340000000000002E+00    1.4780000000000000E+00    1.0449999999999998E+01
             4.4340000000000002E+00    4.4330000000000007E+00    1.0449999999999998E+01
             4.4340000000000002E+00    7.3889999999999993E+00    1.0449999999999998E+01
             7.1919999999999975E+00    1.4780000000000000E+00    1.0449999999999998E+01
             7.1919999999999975E+00    4.4330000000000007E+00    1.0449999999999998E+01
             7.1919999999999975E+00    7.3889999999999993E+00    1.0449999999999998E+01
             1.0147999999999998E+01    1.4780000000000000E+00    1.0449999999999998E+01
             1.0147999999999998E+01    4.4330000000000007E+00    1.0449999999999998E+01
             1.0147999999999998E+01    7.3889999999999993E+00    1.0449999999999998E+01
             1.3103999999999990E+01    1.4780000000000000E+00    1.0449999999999998E+01
             1.3103999999999990E+01    4.4330000000000007E+00    1.0449999999999998E+01
             1.3103999999999990E+01    7.3889999999999993E+00    1.0449999999999998E+01
             4.8554000000000004E+00    5.9118999999999984E+00    1.2031800000000002E+01
             9.5279999999999969E+00    5.9136999999999968E+00    1.2033999999999997E+01
             7.1919999999999975E+00    5.9340000000000002E+00    1.2039999999999994E+01
             4.0750319168000004E+00    5.9049488169999993E+00    1.2696844061800004E+01
             1.0293988349499994E+01    5.9062142779000029E+00    1.2716532694499998E+01
             6.0099999685999963E+00    5.9120523853000000E+00    1.2765819797399997E+01
             8.3750478947999962E+00    5.9129627334999979E+00    1.2760746495899994E+01
             5.9788500869000014E+00    5.8882515164999951E+00    1.4094239568500001E+01
             8.4047327064999990E+00    5.8893877815999991E+00    1.4094060897200000E+01
             7.1943473362999999E+00    5.8799164377000013E+00    1.4701118490299997E+01
             7.1912293096999989E+00    5.8521058220999995E+00    1.6050622658199991E+01
             6.3086348446999976E+00    5.8615539360999991E+00    1.6548439365000000E+01
             8.0709262665000061E+00    5.8621389353999973E+00    1.6553588809699999E+01
             7.3120000000000003E+00    5.9340000000000002E+00    2.1042999999999996E+01
             5.8129999999999988E+00    7.4339999999999984E+00    2.2992000000000015E+01
             8.8130000000000006E+00    4.4340000000000002E+00    2.2992000000000015E+01
             5.8129999999999988E+00    4.4330000000000007E+00    2.2992000000000015E+01
             8.8130000000000006E+00    7.4339999999999984E+00    2.2992000000000015E+01
             1.4780000000000000E+00    1.4780000000000000E+00    2.5081999999999997E+01
             1.4780000000000000E+00    4.4330000000000007E+00    2.5081999999999997E+01
             1.4780000000000000E+00    7.3889999999999993E+00    2.5081999999999997E+01
             4.4340000000000002E+00    1.4780000000000000E+00    2.5081999999999997E+01
             4.4340000000000002E+00    4.4330000000000007E+00    2.5081999999999997E+01
             4.4340000000000002E+00    7.3889999999999993E+00    2.5081999999999997E+01
             7.1919999999999975E+00    1.4780000000000000E+00    2.5081999999999997E+01
             7.1919999999999975E+00    4.4330000000000007E+00    2.5081999999999997E+01
             7.1919999999999975E+00    7.3889999999999993E+00    2.5081999999999997E+01
             1.0147999999999998E+01    1.4780000000000000E+00    2.5081999999999997E+01
             1.0147999999999998E+01    4.4330000000000007E+00    2.5081999999999997E+01
             1.0147999999999998E+01    7.3889999999999993E+00    2.5081999999999997E+01
             1.3103999999999990E+01    1.4780000000000000E+00    2.5081999999999997E+01
             1.3103999999999990E+01    4.4330000000000007E+00    2.5081999999999997E+01
             1.3103999999999990E+01    7.3889999999999993E+00    2.5081999999999997E+01
             0.0000000000000000E+00    0.0000000000000000E+00    2.7171999999999993E+01
             0.0000000000000000E+00    2.9549999999999992E+00    2.7171999999999993E+01
             0.0000000000000000E+00    5.9109999999999996E+00    2.7171999999999993E+01
             2.9560000000000000E+00    0.0000000000000000E+00    2.7171999999999993E+01
             2.9560000000000000E+00    2.9549999999999992E+00    2.7171999999999993E+01
             2.9560000000000000E+00    5.9109999999999996E+00    2.7171999999999993E+01
             5.9119999999999999E+00    0.0000000000000000E+00    2.7171999999999993E+01
             5.9119999999999999E+00    2.9549999999999992E+00    2.7171999999999993E+01
             5.9119999999999999E+00    5.9109999999999996E+00    2.7171999999999993E+01
             8.6699999999999999E+00    0.0000000000000000E+00    2.7171999999999993E+01
             8.6699999999999999E+00    2.9549999999999992E+00    2.7171999999999993E+01
             8.6699999999999999E+00    5.9109999999999996E+00    2.7171999999999993E+01
             1.1625999999999998E+01    0.0000000000000000E+00    2.7171999999999993E+01
             1.1625999999999998E+01    2.9549999999999992E+00    2.7171999999999993E+01
             1.1625999999999998E+01    5.9109999999999996E+00    2.7171999999999993E+01
             1.4780000000000000E+00    1.4780000000000000E+00    2.9261999999999993E+01
             1.4780000000000000E+00    4.4330000000000007E+00    2.9261999999999993E+01
             1.4780000000000000E+00    7.3889999999999993E+00    2.9261999999999993E+01
             4.4340000000000002E+00    1.4780000000000000E+00    2.9261999999999993E+01
             4.4340000000000002E+00    4.4330000000000007E+00    2.9261999999999993E+01
             4.4340000000000002E+00    7.3889999999999993E+00    2.9261999999999993E+01
             7.1919999999999975E+00    1.4780000000000000E+00    2.9261999999999993E+01
             7.1919999999999975E+00    4.4330000000000007E+00    2.9261999999999993E+01
             7.1919999999999975E+00    7.3889999999999993E+00    2.9261999999999993E+01
             1.0147999999999998E+01    1.4780000000000000E+00    2.9261999999999993E+01
             1.0147999999999998E+01    4.4330000000000007E+00    2.9261999999999993E+01
             1.0147999999999998E+01    7.3889999999999993E+00    2.9261999999999993E+01
             1.3103999999999990E+01    1.4780000000000000E+00    2.9261999999999993E+01
             1.3103999999999990E+01    4.4330000000000007E+00    2.9261999999999993E+01
             1.3103999999999990E+01    7.3889999999999993E+00    2.9261999999999993E+01
             0.0000000000000000E+00    0.0000000000000000E+00    3.1351999999999997E+01
             0.0000000000000000E+00    2.9549999999999992E+00    3.1351999999999997E+01
             0.0000000000000000E+00    5.9109999999999996E+00    3.1351999999999997E+01
             2.9560000000000000E+00    0.0000000000000000E+00    3.1351999999999997E+01
             2.9560000000000000E+00    2.9549999999999992E+00    3.1351999999999997E+01
             2.9560000000000000E+00    5.9109999999999996E+00    3.1351999999999997E+01
             5.9119999999999999E+00    0.0000000000000000E+00    3.1351999999999997E+01
             5.9119999999999999E+00    2.9549999999999992E+00    3.1351999999999997E+01
             5.9119999999999999E+00    5.9109999999999996E+00    3.1351999999999997E+01
             8.6699999999999999E+00    0.0000000000000000E+00    3.1351999999999997E+01
             8.6699999999999999E+00    2.9549999999999992E+00    3.1351999999999997E+01
             8.6699999999999999E+00    5.9109999999999996E+00    3.1351999999999997E+01
             1.1625999999999998E+01    0.0000000000000000E+00    3.1351999999999997E+01
             1.1625999999999998E+01    2.9549999999999992E+00    3.1351999999999997E+01
             1.1625999999999998E+01    5.9109999999999996E+00    3.1351999999999997E+01
             1.4780000000000000E+00    1.4780000000000000E+00    3.3441999999999993E+01
             1.4780000000000000E+00    4.4330000000000007E+00    3.3441999999999993E+01
             1.4780000000000000E+00    7.3889999999999993E+00    3.3441999999999993E+01
             4.4340000000000002E+00    1.4780000000000000E+00    3.3441999999999993E+01
             4.4340000000000002E+00    4.4330000000000007E+00    3.3441999999999993E+01
             4.4340000000000002E+00    7.3889999999999993E+00    3.3441999999999993E+01
             7.1919999999999975E+00    1.4780000000000000E+00    3.3441999999999993E+01
             7.1919999999999975E+00    4.4330000000000007E+00    3.3441999999999993E+01
             7.1919999999999975E+00    7.3889999999999993E+00    3.3441999999999993E+01
             1.0147999999999998E+01    1.4780000000000000E+00    3.3441999999999993E+01
             1.0147999999999998E+01    4.4330000000000007E+00    3.3441999999999993E+01
             1.0147999999999998E+01    7.3889999999999993E+00    3.3441999999999993E+01
             1.3103999999999990E+01    1.4780000000000000E+00    3.3441999999999993E+01
             1.3103999999999990E+01    4.4330000000000007E+00    3.3441999999999993E+01
             1.3103999999999990E+01    7.3889999999999993E+00    3.3441999999999993E+01
       &END COORD
       &VELOCITY
             0.0000000000000000E+00    0.0000000000000000E+00    0.0000000000000000E+00
             0.0000000000000000E+00    0.0000000000000000E+00    0.0000000000000000E+00
             0.0000000000000000E+00    0.0000000000000000E+00    0.0000000000000000E+00
             0.0000000000000000E+00    0.0000000000000000E+00    0.0000000000000000E+00
             0.0000000000000000E+00    0.0000000000000000E+00    0.0000000000000000E+00
             0.0000000000000000E+00    0.0000000000000000E+00    0.0000000000000000E+00
             0.0000000000000000E+00    0.0000000000000000E+00    0.0000000000000000E+00
             0.0000000000000000E+00    0.0000000000000000E+00    0.0000000000000000E+00
             0.0000000000000000E+00    0.0000000000000000E+00    0.0000000000000000E+00
             0.0000000000000000E+00    0.0000000000000000E+00    0.0000000000000000E+00
             0.0000000000000000E+00    0.0000000000000000E+00    0.0000000000000000E+00
             0.0000000000000000E+00    0.0000000000000000E+00    0.0000000000000000E+00
             0.0000000000000000E+00    0.0000000000000000E+00    0.0000000000000000E+00
             0.0000000000000000E+00    0.0000000000000000E+00    0.0000000000000000E+00
             0.0000000000000000E+00    0.0000000000000000E+00    0.0000000000000000E+00
             0.0000000000000000E+00    0.0000000000000000E+00    0.0000000000000000E+00
             0.0000000000000000E+00    0.0000000000000000E+00    0.0000000000000000E+00
             0.0000000000000000E+00    0.0000000000000000E+00    0.0000000000000000E+00
             0.0000000000000000E+00    0.0000000000000000E+00    0.0000000000000000E+00
             0.0000000000000000E+00    0.0000000000000000E+00    0.0000000000000000E+00
             0.0000000000000000E+00    0.0000000000000000E+00    0.0000000000000000E+00
             0.0000000000000000E+00    0.0000000000000000E+00    0.0000000000000000E+00
             0.0000000000000000E+00    0.0000000000000000E+00    0.0000000000000000E+00
             0.0000000000000000E+00    0.0000000000000000E+00    0.0000000000000000E+00
             0.0000000000000000E+00    0.0000000000000000E+00    0.0000000000000000E+00
             0.0000000000000000E+00    0.0000000000000000E+00    0.0000000000000000E+00
             0.0000000000000000E+00    0.0000000000000000E+00    0.0000000000000000E+00
             0.0000000000000000E+00    0.0000000000000000E+00    0.0000000000000000E+00
             0.0000000000000000E+00    0.0000000000000000E+00    0.0000000000000000E+00
             0.0000000000000000E+00    0.0000000000000000E+00    0.0000000000000000E+00
             0.0000000000000000E+00    0.0000000000000000E+00    0.0000000000000000E+00
             0.0000000000000000E+00    0.0000000000000000E+00    0.0000000000000000E+00
             0.0000000000000000E+00    0.0000000000000000E+00    0.0000000000000000E+00
             0.0000000000000000E+00    0.0000000000000000E+00    0.0000000000000000E+00
             0.0000000000000000E+00    0.0000000000000000E+00    0.0000000000000000E+00
             0.0000000000000000E+00    0.0000000000000000E+00    0.0000000000000000E+00
             0.0000000000000000E+00    0.0000000000000000E+00    0.0000000000000000E+00
             0.0000000000000000E+00    0.0000000000000000E+00    0.0000000000000000E+00
             0.0000000000000000E+00    0.0000000000000000E+00    0.0000000000000000E+00
             0.0000000000000000E+00    0.0000000000000000E+00    0.0000000000000000E+00
             0.0000000000000000E+00    0.0000000000000000E+00    0.0000000000000000E+00
             0.0000000000000000E+00    0.0000000000000000E+00    0.0000000000000000E+00
             0.0000000000000000E+00    0.0000000000000000E+00    0.0000000000000000E+00
             0.0000000000000000E+00    0.0000000000000000E+00    0.0000000000000000E+00
             0.0000000000000000E+00    0.0000000000000000E+00    0.0000000000000000E+00
             0.0000000000000000E+00    0.0000000000000000E+00    0.0000000000000000E+00
             0.0000000000000000E+00    0.0000000000000000E+00    0.0000000000000000E+00
             0.0000000000000000E+00    0.0000000000000000E+00    0.0000000000000000E+00
             0.0000000000000000E+00    0.0000000000000000E+00    0.0000000000000000E+00
             0.0000000000000000E+00    0.0000000000000000E+00    0.0000000000000000E+00
             0.0000000000000000E+00    0.0000000000000000E+00    0.0000000000000000E+00
             0.0000000000000000E+00    0.0000000000000000E+00    0.0000000000000000E+00
             0.0000000000000000E+00    0.0000000000000000E+00    0.0000000000000000E+00
             0.0000000000000000E+00    0.0000000000000000E+00    0.0000000000000000E+00
             0.0000000000000000E+00    0.0000000000000000E+00    0.0000000000000000E+00
             0.0000000000000000E+00    0.0000000000000000E+00    0.0000000000000000E+00
             0.0000000000000000E+00    0.0000000000000000E+00    0.0000000000000000E+00
             0.0000000000000000E+00    0.0000000000000000E+00    0.0000000000000000E+00
             0.0000000000000000E+00    0.0000000000000000E+00    0.0000000000000000E+00
             0.0000000000000000E+00    0.0000000000000000E+00    0.0000000000000000E+00
             0.0000000000000000E+00    0.0000000000000000E+00    0.0000000000000000E+00
             0.0000000000000000E+00    0.0000000000000000E+00    0.0000000000000000E+00
             0.0000000000000000E+00    0.0000000000000000E+00    0.0000000000000000E+00
             0.0000000000000000E+00    0.0000000000000000E+00    0.0000000000000000E+00
             0.0000000000000000E+00    0.0000000000000000E+00    0.0000000000000000E+00
             0.0000000000000000E+00    0.0000000000000000E+00    0.0000000000000000E+00
             0.0000000000000000E+00    0.0000000000000000E+00    0.0000000000000000E+00
             0.0000000000000000E+00    0.0000000000000000E+00    0.0000000000000000E+00
             0.0000000000000000E+00    0.0000000000000000E+00    0.0000000000000000E+00
             0.0000000000000000E+00    0.0000000000000000E+00    0.0000000000000000E+00
             0.0000000000000000E+00    0.0000000000000000E+00    0.0000000000000000E+00
             0.0000000000000000E+00    0.0000000000000000E+00    0.0000000000000000E+00
             0.0000000000000000E+00    0.0000000000000000E+00    0.0000000000000000E+00
             0.0000000000000000E+00    0.0000000000000000E+00    0.0000000000000000E+00
             0.0000000000000000E+00    0.0000000000000000E+00    0.0000000000000000E+00
             0.0000000000000000E+00    0.0000000000000000E+00    0.0000000000000000E+00
             0.0000000000000000E+00    0.0000000000000000E+00    0.0000000000000000E+00
             0.0000000000000000E+00    0.0000000000000000E+00    0.0000000000000000E+00
             0.0000000000000000E+00    0.0000000000000000E+00    0.0000000000000000E+00
             0.0000000000000000E+00    0.0000000000000000E+00    0.0000000000000000E+00
             0.0000000000000000E+00    0.0000000000000000E+00    0.0000000000000000E+00
             0.0000000000000000E+00    0.0000000000000000E+00    0.0000000000000000E+00
             0.0000000000000000E+00    0.0000000000000000E+00    0.0000000000000000E+00
             0.0000000000000000E+00    0.0000000000000000E+00    0.0000000000000000E+00
             0.0000000000000000E+00    0.0000000000000000E+00    0.0000000000000000E+00
             0.0000000000000000E+00    0.0000000000000000E+00    0.0000000000000000E+00
             0.0000000000000000E+00    0.0000000000000000E+00    0.0000000000000000E+00
             0.0000000000000000E+00    0.0000000000000000E+00    0.0000000000000000E+00
             0.0000000000000000E+00    0.0000000000000000E+00    0.0000000000000000E+00
             0.0000000000000000E+00    0.0000000000000000E+00    0.0000000000000000E+00
             0.0000000000000000E+00    0.0000000000000000E+00    0.0000000000000000E+00
             0.0000000000000000E+00    0.0000000000000000E+00    0.0000000000000000E+00
             0.0000000000000000E+00    0.0000000000000000E+00    0.0000000000000000E+00
             0.0000000000000000E+00    0.0000000000000000E+00    0.0000000000000000E+00
             0.0000000000000000E+00    0.0000000000000000E+00    0.0000000000000000E+00
             0.0000000000000000E+00    0.0000000000000000E+00    0.0000000000000000E+00
             0.0000000000000000E+00    0.0000000000000000E+00    0.0000000000000000E+00
             0.0000000000000000E+00    0.0000000000000000E+00    0.0000000000000000E+00
             0.0000000000000000E+00    0.0000000000000000E+00    0.0000000000000000E+00
             0.0000000000000000E+00    0.0000000000000000E+00    0.0000000000000000E+00
             0.0000000000000000E+00    0.0000000000000000E+00    0.0000000000000000E+00
             0.0000000000000000E+00    0.0000000000000000E+00    0.0000000000000000E+00
             0.0000000000000000E+00    0.0000000000000000E+00    0.0000000000000000E+00
             0.0000000000000000E+00    0.0000000000000000E+00    0.0000000000000000E+00
             0.0000000000000000E+00    0.0000000000000000E+00    0.0000000000000000E+00
             0.0000000000000000E+00    0.0000000000000000E+00    0.0000000000000000E+00
             0.0000000000000000E+00    0.0000000000000000E+00    0.0000000000000000E+00
             0.0000000000000000E+00    0.0000000000000000E+00    0.0000000000000000E+00
             0.0000000000000000E+00    0.0000000000000000E+00    0.0000000000000000E+00
             0.0000000000000000E+00    0.0000000000000000E+00    0.0000000000000000E+00
             0.0000000000000000E+00    0.0000000000000000E+00    0.0000000000000000E+00
             0.0000000000000000E+00    0.0000000000000000E+00    0.0000000000000000E+00
             0.0000000000000000E+00    0.0000000000000000E+00    0.0000000000000000E+00
             0.0000000000000000E+00    0.0000000000000000E+00    0.0000000000000000E+00
             0.0000000000000000E+00    0.0000000000000000E+00    0.0000000000000000E+00
             0.0000000000000000E+00    0.0000000000000000E+00    0.0000000000000000E+00
             0.0000000000000000E+00    0.0000000000000000E+00    0.0000000000000000E+00
             0.0000000000000000E+00    0.0000000000000000E+00    0.0000000000000000E+00
             0.0000000000000000E+00    0.0000000000000000E+00    0.0000000000000000E+00
             0.0000000000000000E+00    0.0000000000000000E+00    0.0000000000000000E+00
             0.0000000000000000E+00    0.0000000000000000E+00    0.0000000000000000E+00
             0.0000000000000000E+00    0.0000000000000000E+00    0.0000000000000000E+00
             0.0000000000000000E+00    0.0000000000000000E+00    0.0000000000000000E+00
             0.0000000000000000E+00    0.0000000000000000E+00    0.0000000000000000E+00
             0.0000000000000000E+00    0.0000000000000000E+00    0.0000000000000000E+00
             0.0000000000000000E+00    0.0000000000000000E+00    0.0000000000000000E+00
             0.0000000000000000E+00    0.0000000000000000E+00    0.0000000000000000E+00
             0.0000000000000000E+00    0.0000000000000000E+00    0.0000000000000000E+00
             0.0000000000000000E+00    0.0000000000000000E+00    0.0000000000000000E+00
             0.0000000000000000E+00    0.0000000000000000E+00    0.0000000000000000E+00
             0.0000000000000000E+00    0.0000000000000000E+00    0.0000000000000000E+00
             0.0000000000000000E+00    0.0000000000000000E+00    0.0000000000000000E+00
             0.0000000000000000E+00    0.0000000000000000E+00    0.0000000000000000E+00
             0.0000000000000000E+00    0.0000000000000000E+00    0.0000000000000000E+00
             0.0000000000000000E+00    0.0000000000000000E+00    0.0000000000000000E+00
             0.0000000000000000E+00    0.0000000000000000E+00    0.0000000000000000E+00
             0.0000000000000000E+00    0.0000000000000000E+00    0.0000000000000000E+00
             0.0000000000000000E+00    0.0000000000000000E+00    0.0000000000000000E+00
             0.0000000000000000E+00    0.0000000000000000E+00    0.0000000000000000E+00
             0.0000000000000000E+00    0.0000000000000000E+00    0.0000000000000000E+00
             0.0000000000000000E+00    0.0000000000000000E+00    0.0000000000000000E+00
             0.0000000000000000E+00    0.0000000000000000E+00    0.0000000000000000E+00
             0.0000000000000000E+00    0.0000000000000000E+00    0.0000000000000000E+00
             0.0000000000000000E+00    0.0000000000000000E+00    0.0000000000000000E+00