         0      -5729.810926764      -5726.349025116      -4015.404657411      -5726.256596046      -5729.404130783      -5720.041216647      -5729.259818269          4.901766433          4.901766433          4.901766433          4.901766433          2.596980151          2.596980151
         1      -5729.810926764      -5726.349707250      -5662.977086422      -5726.257284188      -5729.404132259      -5720.059154706      -5729.259818269          4.901766435          5.293580175          5.293568181          4.901764370          2.596982902          2.596980256
         2      -5729.810926764      -5726.462149329      -5714.267634474      -5726.377433548      -5729.404387374      -5722.620362322      -5729.259818270          4.901787246          5.564254993          5.567628311          4.899524148          2.600582574          2.600140636
         3      -5729.810926764      -5727.105415859      -5724.227655363      -5727.027613516      -5729.406124968      -5727.526812338      -5729.259818269          4.876738930          5.997382705          5.959497275          4.878527429          2.701354264          2.698203655
         4      -5729.810926764      -5727.788278785      -5727.216172894      -5727.947394999      -5729.412746500      -5727.686891216      -5729.259818270          4.893022509          6.326676124          6.268554671          4.786590191          2.970724907          2.956961599
         5      -5729.810926764      -5727.936831106      -5727.825491390      -5728.041449164      -5729.417468284      -5728.729433172      -5729.259818270          4.894221309          6.387397951          6.346325378          4.754336430          3.020932606          3.007570570
         6      -5729.810926764      -5727.996919510      -5727.928361152      -5728.069633139      -5729.419654894      -5729.087197505      -5729.259818269          4.893487056          6.405552574          6.386316702          4.741943796          2.991498471          2.986440686
         7      -5729.810926764      -5728.479330621      -5728.595848199      -5728.231660190      -5729.438697672      -5728.492313004      -5729.259818270          4.960418653          6.544921285          6.993147104          4.649425320          3.159551855          3.145748023
         8      -5729.810926764      -5728.520747216      -5728.622817748      -5728.177998279      -5729.440661313      -5729.039586287      -5729.259818270          4.967959109          6.569211505          6.812621345          4.830009992          3.420039481          3.384681786
         9      -5729.810926764      -5728.578921930      -5728.670304191      -5728.066648453      -5729.445142592      -5729.275713389      -5729.259818270          5.011310634          6.609339753          6.423354384          5.257942671          3.399976910          3.401019452
        10      -5729.810926764      -5728.689871709      -5728.777965106      -5728.133726506      -5729.454615364      -5729.318340713      -5729.259818270          5.211248080          6.686813335          5.496304732          6.624410759          3.183574774          3.465808546
        11      -5729.810926764      -5728.762101463      -5728.853157410      -5728.259929769      -5729.448852886      -5729.195026363      -5729.259818270          5.385222813          6.728544743          5.165397929          6.892565439          3.189347334          3.514999515
        12      -5729.810926764      -5728.800626902      -5728.893457057      -5728.417064262      -5729.442257521      -5729.222051419      -5729.259818269          5.455906785          6.752354367          4.949850301          7.187957513          3.455541972          3.645977626
        13      -5729.810926764      -5728.836984736      -5728.930285543      -5728.515183624      -5729.433979374      -5729.389316961      -5729.259818269          5.537655070          6.777218965          4.824014549          7.364493977          3.361066927          3.643108394
        14      -5729.810926764      -5728.953314038      -5729.049287009      -5728.773476187      -5729.406600180      -5729.324139796      -5729.259818270          5.778940598          6.860959890          4.683779270          7.824873775          3.005314296          3.699498402
        15      -5729.810926764      -5728.981465444      -5729.077012081      -5728.854175634      -5729.399199151      -5729.309606079      -5729.259818269          5.841677686          6.862760776          4.628846426          7.710688692          3.263223151          3.743594395
        16      -5729.810926764      -5728.995373443      -5729.088881129      -5728.873852421      -5729.398250712      -5729.488856693      -5729.259818269          5.873690733          6.856256232          4.636325165          7.673196669          3.223119251          3.751569299
        17      -5729.810926764      -5729.114174164      -5729.154680653      -5729.008682025      -5729.385445909      -5729.285075492      -5729.259818269          6.241589417          6.839543539          4.858497571          7.335017617          3.484291631          3.645702728
        18      -5729.810926764      -5729.123589109      -5729.174994416      -5729.020052614      -5729.381527542      -5729.358485175      -5729.259818270          6.251834252          6.817641644          4.882082895          7.315036037          3.731107839          3.701719676
        19      -5729.810926764      -5729.133488309      -5729.189069638      -5729.031318463      -5729.376612203      -5729.500146239      -5729.259818270          6.267419150          6.802836667          4.915717124          7.291548586          3.724331509          3.728256936
        20      -5729.810926764      -5729.144225572      -5729.201765206      -5729.042902952      -5729.370434979      -5729.513763022      -5729.259818270          6.288934139          6.793981410          4.959517935          7.259849639          3.807313536          3.738697315
        21      -5729.810926764      -5729.223279467      -5729.279145564      -5729.111132909      -5729.310250867      -5729.509973121      -5729.259818270          6.560205048          6.876438464          5.513206755          7.005671312          4.704193559          3.852643458
        22      -5729.810926764      -5729.234320515      -5729.298751912      -5729.122501717      -5729.302706639      -5729.489364017      -5729.259818270          6.626546783          6.930024982          5.626905532          6.924190648          4.994594869          4.091945441
        23      -5729.810926764      -5729.242132323      -5729.310170105      -5729.130213847      -5729.299030864      -5729.547781360      -5729.259818270          6.676043115          6.977982464          5.740243456          6.895273130          5.087039527          4.133069923
        24      -5729.810926764      -5729.251427456      -5729.319354942      -5729.142138338      -5729.293216855      -5729.548342536      -5729.259818269          6.761218511          7.025420975          5.919817444          6.843532102          5.219659345          4.209870478
        25      -5729.810926764      -5729.256463018      -5729.328567456      -5729.145913587      -5729.291648482      -5729.578148577      -5729.259818270          6.788634220          7.051738647          5.980838425          6.828447702          5.265342258          4.243588738
        26      -5729.810926764      -5729.269953666      -5729.311678139      -5729.165158997      -5729.285220551      -5729.589765685      -5729.259818269          6.927858421          7.142038627          6.295747812          6.767833944          5.444417457          4.365472793
        27      -5729.810926764      -5729.272018610      -5729.336743161      -5729.168136756      -5729.284551419      -5729.600539594      -5729.259818270          6.946679658          7.164054010          6.343268040          6.758594213          5.490711711          4.419234667
        28      -5729.810926764      -5729.275009732      -5729.346905854      -5729.173963757      -5729.283922152      -5729.604446612      -5729.259818270          6.984842146          7.179373567          6.426484838          6.744387706          5.533763104          4.468624286
        29      -5729.810926764      -5729.280194705      -5729.323683824      -5729.184726849      -5729.284394699      -5729.608294441      -5729.259818270          7.054365674          7.240408334          6.600693732          6.719503364          5.603861407          4.545336976
        30      -5729.810926764      -5729.281347933      -5729.357473337      -5729.187517248      -5729.284953032      -5729.608664963      -5729.259818270          7.070357423          7.240162980          6.635478294          6.713420967          5.618713259          4.563346340
        31      -5729.810926764      -5729.284968681      -5729.358639682      -5729.196198138      -5729.287417831      -5729.608686088      -5729.259818269          7.126234796          7.272704624          6.766071198          6.694115744          5.663033740          4.614711811
        32      -5729.810926764      -5729.286765706      -5729.360289991      -5729.200810761      -5729.289252096      -5729.608565011      -5729.259818270          7.152500272          7.293264970          6.835639956          6.680195478          5.684787052          4.641219077
        33      -5729.810926764      -5729.288530441      -5729.372362146      -5729.205491366      -5729.291414539      -5729.608250706      -5729.259818269          7.179766651          7.302604934          6.899439128          6.667270510          5.708520298          4.670169779
        34      -5729.810926764      -5729.291837613      -5729.359996216      -5729.214141044      -5729.295842891      -5729.607180499      -5729.259818269          7.230658937          7.350575005          7.035980576          6.642208683          5.754924116          4.726836193
        35      -5729.810926764      -5729.292710183      -5729.389427861      -5729.216639369      -5729.297164454      -5729.606768215      -5729.259818270          7.243392548          7.349240873          7.064962662          6.635087152          5.767943875          4.744390596
        36      -5729.810926764      -5729.295946110      -5729.395869323      -5729.225186013      -5729.301498694      -5729.604979886      -5729.259818270          7.294092158          7.393656908          7.196492079          6.606340044          5.814435945          4.806158144
        37      -5729.810926764      -5729.297218104      -5729.403738704      -5729.228629619      -5729.303160395      -5729.604093980      -5729.259818269          7.312311024          7.414369271          7.250492711          6.591970704          5.831674982          4.831981480
        38      -5729.810926764      -5729.298866465      -5729.413633742      -5729.233069778      -5729.305397524      -5729.602787726      -5729.259818270          7.337424025          7.434016969          7.315659974          6.573203856          5.854269101          4.866778047
        39      -5729.810926764      -5729.300851529      -5729.414279616      -5729.238259240      -5729.308408416      -5729.601040578      -5729.259818270          7.366942567          7.479458208          7.407125891          6.548848549          5.880861274          4.909335489
        40      -5729.810926764      -5729.301610159      -5729.430445822      -5729.240371563      -5729.309938115      -5729.600262108      -5729.259818270          7.378815518          7.487843612          7.437150854          6.538733770          5.891466686          4.927108509
        41      -5729.810926764      -5729.305542099      -5729.436986799      -5729.250711821      -5729.319961177      -5729.595835977      -5729.259818270          7.442497567          7.575233448          7.619706021          6.486161593          5.950578583          5.020758541
        42      -5729.810926764      -5729.306437355      -5729.445403345      -5729.253325351      -5729.323957064      -5729.594589874      -5729.259818269          7.456576698          7.595420599          7.662691536          6.473283705          5.965415616          5.044376155
        43      -5729.810926764      -5729.308055480      -5729.447005872      -5729.258103485      -5729.332074526      -5729.592256426      -5729.259818269          7.484042479          7.620329856          7.730308744          6.451407594          5.994217175          5.087961887
        44      -5729.810926764      -5729.309269781      -5729.449301512      -5729.261861843      -5729.338796300      -5729.590436510      -5729.259818269          7.503803430          7.649337967          7.787204728          6.438112319          6.016326357          5.121266401
        45      -5729.810926764      -5729.309919144      -5729.456554352      -5729.264041124      -5729.342585621      -5729.589422499      -5729.259818270          7.514912316          7.656059161          7.811181213          6.432232292          6.028181424          5.139726186
        46      -5729.810926764      -5729.325503797      -5729.300030925      -5729.317722313      -5729.401023757      -5729.559679297      -5729.259818269          7.786209293          7.936969933          8.480177439          6.385225596          6.427948891          5.618646136
        47      -5729.810926764      -5729.326768480      -5729.116943388      -5729.318169063      -5729.407908882      -5729.558199929      -5729.259818270          7.780296602          7.983406442          8.376195460          6.384221158          6.395079917          5.649820173
        48      -5729.810926764      -5729.327619774      -5729.251186002      -5729.313691472      -5729.413372524      -5729.556588614      -5729.259818269          7.786507845          7.746277053          8.140561393          6.420457038          6.375840694          5.687067589
        49      -5729.810926764      -5729.329735894      -5729.392546077      -5729.299512293      -5729.418052431      -5729.554879852      -5729.259818269          7.794947430          7.885846173          8.160611663          6.401861754          6.367231833          5.734344110
        50      -5729.810926764      -5729.330256722      -5729.419729485      -5729.309319294      -5729.419231166      -5729.554497456      -5729.259818269          7.804947407          7.849224333          8.149288264          6.461832043          6.368588037          5.749342032
        51      -5729.810926764      -5729.331724095      -5729.442326390      -5729.313694843      -5729.421385344      -5729.553633997      -5729.259818270          7.824922479          7.868143458          8.120734103          6.519007046          6.372925142          5.782693154
        52      -5729.810926764      -5729.333920339      -5729.458812756      -5729.304764165      -5729.423587784      -5729.552656619      -5729.259818269          7.854562702          7.897870225          8.149577072          6.622579907          6.385908934          5.829231308
        53      -5729.810926764      -5729.335200887      -5729.465161799      -5729.315631426      -5729.424178965      -5729.552272207      -5729.259818270          7.871416826          7.909665476          8.115772965          6.659652081          6.397660851          5.854789825
        54      -5729.810926764      -5729.339985943      -5729.471698090      -5729.307920187      -5729.425427550      -5729.551003056      -5729.259818269          7.933108072          7.973170344          8.102139172          6.830996139          6.447988218          5.950525400
        55      -5729.810926764      -5729.341371027      -5729.473261543      -5729.305545678      -5729.424802833      -5729.550894396      -5729.259818270          7.950540307          7.976326520          8.104940298          6.885435788          6.468074197          5.976894271
        56      -5729.810926764      -5729.342701847      -5729.474171744      -5729.307989722      -5729.423928703      -5729.550815369      -5729.259818270          7.967152328          7.981978705          8.069155521          6.927919725          6.487934667          6.001758197
        57      -5729.810926764      -5729.345523014      -5729.472887397      -5729.295833758      -5729.421647189      -5729.550669853      -5729.259818270          8.001875339          8.005500370          8.071407130          7.035455832          6.531494487          6.054352844
        58      -5729.810926764      -5729.346712783      -5729.475127653      -5729.301856367      -5729.420246759      -5729.550628116      -5729.259818270          8.016331472          8.010236934          8.035137093          7.072273997          6.550859617          6.076530476
        59      -5729.810926764      -5729.351250914      -5729.466577909      -5729.279851165      -5729.414210247      -5729.550434218      -5729.259818270          8.071802513          8.054857127          8.041906843          7.249764431          6.627911801          6.162442421
        60      -5729.810926764      -5729.352306091      -5729.476070525      -5729.289287677      -5729.412097898      -5729.550374394      -5729.259818269          8.084641796          8.053986223          8.000910135          7.282957792          6.647441429          6.183421067
        61      -5729.810926764      -5729.356694406      -5729.477272344      -5729.275764770      -5729.403583946      -5729.550016007      -5729.259818269          8.140934915          8.094233979          7.986175515          7.462281540          6.732385598          6.273562961
        62      -5729.810926764      -5729.360652206      -5729.473731584      -5729.238237791      -5729.391778093      -5729.549430960      -5729.259818270          8.191888905          8.142082528          8.037195281          7.646253314          6.815381526          6.359787757
        63      -5729.810926764      -5729.361583360      -5729.477599430      -5729.258433587      -5729.388062199      -5729.549223881      -5729.259818270          8.203962460          8.146728777          8.002047665          7.683514847          6.837137427          6.381809584
        64      -5729.810926764      -5729.363410212      -5729.478597379      -5729.247940967      -5729.380472565      -5729.548761160      -5729.259818269          8.227907398          8.169044301          8.014623094          7.770971221          6.880982028          6.425620888
        65      -5729.810926764      -5729.364494229      -5729.478894979      -5729.242465729      -5729.375425946      -5729.548412429      -5729.259818269          8.242289913          8.182890675          8.048994923          7.818294035          6.907845177          6.452376622
        66      -5729.810926764      -5729.365472102      -5729.479148666      -5729.242161638      -5729.370524895      -5729.548053830      -5729.259818269          8.255349455          8.195904479          8.052178680          7.866402312          6.932910282          6.477228888
        67      -5729.810926764      -5729.367039873      -5729.479034106      -5729.230004774      -5729.362116314      -5729.547394301      -5729.259818270          8.276704953          8.215781054          8.108304164          7.931067901          6.975211366          6.518576581
        68      -5729.810926764      -5729.367542085      -5729.479751015      -5729.238321292      -5729.359197379      -5729.547144185      -5729.259818270          8.283524387          8.222848145          8.109329344          7.953025462          6.989023771          6.532214795
        69      -5729.810926764      -5729.370348978      -5729.480269515      -5729.225884730      -5729.342403414      -5729.545617587      -5729.259818269          8.322899684          8.260754567          8.193537301          8.065611835          7.071092637          6.611198164
        70      -5729.810926764      -5729.370756998      -5729.480439753      -5729.236800138      -5729.339773273      -5729.545337510      -5729.259818270          8.328577942          8.265902415          8.220767125          8.068124009          7.082967316          6.622963810
        71      -5729.810926764      -5729.372657729      -5729.480796045      -5729.235107628      -5729.327593685      -5729.543969715      -5729.259818270          8.355446056          8.289381289          8.291866235          8.103529700          7.140157450          6.679003893
        72      -5729.810926764      -5729.373074935      -5729.480867948      -5729.244128574      -5729.325013192      -5729.543632418      -5729.259818270          8.361244424          8.293856878          8.320291056          8.098006641          7.152426523          6.691433405
        73      -5729.810926764      -5729.374372749      -5729.481065863      -5729.251228763      -5729.317217534      -5729.542551674      -5729.259818270          8.379403378          8.307733025          8.375274661          8.093141501          7.191142500          6.730588556
        74      -5729.810926764      -5729.377464657      -5729.481398407      -5729.255911595      -5729.301057531      -5729.539728353      -5729.259818269          8.422842738          8.338074120          8.493656946          8.050410525          7.284480098          6.826279957
        75      -5729.810926764      -5729.377769647      -5729.481467652      -5729.271897751      -5729.299958466      -5729.539419885      -5729.259818270          8.426793740          8.339985518          8.515410055          8.033153639          7.292476966          6.835560905
        76      -5729.810926764      -5729.379570836      -5729.481514414      -5729.275860302      -5729.294165202      -5729.537565613      -5729.259818270          8.450255705          8.353518850          8.548066912          7.972899532          7.340668301          6.891338726
        77      -5729.810926764      -5729.379975110      -5729.481565929      -5729.284827809      -5729.293339268      -5729.537150451      -5729.259818269          8.455233230          8.355963147          8.566493912          7.946421215          7.350569906          6.903766311
        78      -5729.810926764      -5729.380681360      -5729.481580404      -5729.289025765      -5729.292097971      -5729.536426770      -5729.259818269          8.463887252          8.360959144          8.566316147          7.926504044          7.367467644          6.925459114
        79      -5729.810926764      -5729.381331410      -5729.481594474      -5729.292301227      -5729.291246079      -5729.535766989      -5729.259818270          8.471756277          8.365816255          8.580668315          7.889183537          7.382659490          6.945333844
        80      -5729.810926764      -5729.382139719      -5729.481605580      -5729.295512027      -5729.284201340      -5729.534953602      -5729.259818270          8.481465233          8.372071014          8.586003887          7.827040293          7.431043359          6.970039304
        81      -5729.810926764      -5729.382670107      -5729.481610449      -5729.299449799      -5729.280818899      -5729.534341060      -5729.259818269          8.487756985          8.376224433          8.615111839          7.793098351          7.466622286          6.986373688
        82      -5729.810926764      -5729.382970560      -5729.481606916      -5729.304700509      -5729.279319473      -5729.533960942      -5729.259818270          8.491292880          8.378605655          8.615014554          7.776705063          7.487413632          6.995805372
        83      -5729.810926764      -5729.388203306      -5729.481418651      -5729.306428206      -5729.274167969      -5729.526551986      -5729.259818269          8.556211262          8.427072032          8.735348938          7.539608580          7.894776635          7.171626681
        84      -5729.810926764      -5729.388600846      -5729.481389120      -5729.318006853      -5729.277379757      -5729.525463843      -5729.259818270          8.560646020          8.428004309          8.792205310          7.550962494          7.921392542          7.188920622
        85      -5729.810926764      -5729.389088703      -5729.481306188      -5729.333294440      -5729.281211504      -5729.524086678      -5729.259818270          8.565984135          8.431030229          8.772905295          7.565617512          7.955993732          7.211027785
        86      -5729.810926764      -5729.390952878      -5729.481002796      -5729.307742191      -5729.297512808      -5729.518581784      -5729.259818269          8.586447186          8.451551116          8.851956184          7.650890803          8.090014785          7.300420300
        87      -5729.810926764      -5729.391375987      -5729.480941030      -5729.337478319      -5729.300500429      -5729.517229684      -5729.259818270          8.591016499          8.450155577          8.825060838          7.670494970          8.115199089          7.323498080
        88      -5729.810926764      -5729.400565353      -5729.477601585      -5729.302402543      -5729.361808715      -5729.482405632      -5729.259818270          8.699636580          8.566881715          9.045610645          8.341835336          8.797600103          7.875974595
        89      -5729.810926764      -5729.401026489      -5729.478317893      -5729.313103040      -5729.365238847      -5729.481777966      -5729.259818269          8.704617694          8.543416093          9.054217857          8.408714830          8.773433993          7.912966559
        90      -5729.810926764      -5729.401505876      -5729.478201682      -5729.314875986      -5729.366927994      -5729.480685879      -5729.259818269          8.709262054          8.540201355          8.997779860          8.474981217          8.760126654          7.950334048
        91      -5729.810926764      -5729.402154137      -5729.478075500      -5729.309450486      -5729.368952676      -5729.479106681      -5729.259818270          8.715389917          8.535486116          8.998352027          8.553634914          8.750290426          7.999978737
        92      -5729.810926764      -5729.402405811      -5729.478028994      -5729.313643211      -5729.369656099      -5729.478559794      -5729.259818270          8.717686459          8.534131215          8.970246757          8.583130262          8.749427069          8.018413512
        93      -5729.810926764      -5729.404954504      -5729.477480827      -5729.285181952      -5729.375998867      -5729.472996380      -5729.259818270          8.741513318          8.529760936          8.843317704          8.891476458          8.753166654          8.206849756
        94      -5729.810926764      -5729.405207305      -5729.477550258      -5729.299319923      -5729.376479494      -5729.472759774      -5729.259818270          8.743609793          8.529627343          8.868048033          8.920310878          8.759888712          8.221810604
        95      -5729.810926764      -5729.406288458      -5729.477695844      -5729.287545890      -5729.378432246      -5729.471747507      -5729.259818270          8.752631905          8.534935011          8.814664663          9.019492374          8.790469586          8.285647906
        96      -5729.810926764      -5729.406601040      -5729.477796010      -5729.291246987      -5729.378945103      -5729.471510864      -5729.259818270          8.755169825          8.537002367          8.829649441          9.050766624          8.800687319          8.303200155
        97      -5729.810926764      -5729.408013174      -5729.478190474      -5729.282811424      -5729.381139313      -5729.470381865      -5729.259818269          8.766890354          8.548381452          8.796737507          9.180080921          8.849703980          8.383205576
        98      -5729.810926764      -5729.409241530      -5729.478713164      -5729.267169829      -5729.382733683      -5729.469513099      -5729.259818270          8.777080992          8.561245494          8.753212995          9.288129506          8.900593666          8.450472862
        99      -5729.810926764      -5729.409528108      -5729.478887113      -5729.272641542      -5729.383051794      -5729.469322199      -5729.259818269          8.779435405          8.564745091          8.769819213          9.317211187          8.913665812          8.465838048
       100      -5729.810926764      -5729.410599406      -5729.479487235      -5729.258716743      -5729.384129729      -5729.468557423      -5729.259818270          8.788404873          8.579287878          8.738265468          9.413099762          8.964320384          8.523856826
       101      -5729.810926764      -5729.410914679      -5729.479711214      -5729.262659282      -5729.384388416      -5729.468324734      -5729.259818270          8.791059088          8.583605780          8.755651699          9.444680555          8.980357289          8.540922331
       102      -5729.810926764      -5729.411682692      -5729.480215770      -5729.253817079      -5729.384939183      -5729.467724489      -5729.259818269          8.797598717          8.595256885          8.734201002          9.515305139          9.020487818          8.582848593
       103      -5729.810926764      -5729.412040187      -5729.480484337      -5729.255038520      -5729.385137980      -5729.467428204      -5729.259818269          8.800654659          8.600960689          8.751550862          9.550708388          9.040061234          8.602508303
       104      -5729.810926764      -5729.412697964      -5729.480947614      -5729.248826989      -5729.385429510      -5729.466849722      -5729.259818269          8.806339633          8.611872048          8.736934918          9.613980370          9.077008251          8.639057262