 # Version information for this restart file 
 # current date 2024-01-11 01:36:52.086
 # current working dir /gpfs/home/cahart/transport/melamine/au_from-h2/ci-neb/ts1/dft_leads-sz_tip-dzvp_surf-dzvp_kpoints-2-4-20_replicas-7
 # Program compiled at                              Thu 21 Sep 19:20:17 BST 2023
 # Program compiled on                                           hx1-c12-login-1
 # Program compiled for                                                    local
 # Source code revision number                                       git:5518aa6
 &GLOBAL
   EXTENDED_FFT_LENGTHS  T
   PRINT_LEVEL  MEDIUM
   PROJECT_NAME 2_dft_wfn-r-0
   OUTPUT_FILE_NAME 2_dft_wfn-r-0.out
   RUN_TYPE  BAND
 &END GLOBAL
 &MOTION
   &CONSTRAINT
     &FIXED_ATOMS
       LIST  1..93 104..183
     &END FIXED_ATOMS
   &END CONSTRAINT
   &BAND
     NPROC_REP  64
     BAND_TYPE  CI-NEB
     NUMBER_OF_REPLICA  7
     K_SPRING     5.0000000000000003E-02
     &CI_NEB
       NSTEPS_IT  5
     &END CI_NEB
     &OPTIMIZE_BAND
       OPT_TYPE  DIIS
       &DIIS
         MAX_STEPS  1000
       &END DIIS
     &END OPTIMIZE_BAND
     &REPLICA
       &COORD
             0.0000000000000000E+00    0.0000000000000000E+00    0.0000000000000000E+00
             0.0000000000000000E+00    2.9549999999999996E+00    0.0000000000000000E+00
             0.0000000000000000E+00    5.9110000000000014E+00    0.0000000000000000E+00
             2.9560000000000000E+00    0.0000000000000000E+00    0.0000000000000000E+00
             2.9560000000000000E+00    2.9549999999999996E+00    0.0000000000000000E+00
             2.9560000000000000E+00    5.9110000000000014E+00    0.0000000000000000E+00
             5.9119999999999999E+00    0.0000000000000000E+00    0.0000000000000000E+00
             5.9119999999999999E+00    2.9549999999999996E+00    0.0000000000000000E+00
             5.9119999999999999E+00    5.9110000000000014E+00    0.0000000000000000E+00
             8.6700000000000035E+00    0.0000000000000000E+00    0.0000000000000000E+00
             8.6700000000000035E+00    2.9549999999999996E+00    0.0000000000000000E+00
             8.6700000000000035E+00    5.9110000000000014E+00    0.0000000000000000E+00
             1.1626000000000003E+01    0.0000000000000000E+00    0.0000000000000000E+00
             1.1626000000000003E+01    2.9549999999999996E+00    0.0000000000000000E+00
             1.1626000000000003E+01    5.9110000000000014E+00    0.0000000000000000E+00
             1.4780000000000000E+00    1.4780000000000000E+00    2.0900000000000007E+00
             1.4780000000000000E+00    4.4330000000000016E+00    2.0900000000000007E+00
             1.4780000000000000E+00    7.3890000000000020E+00    2.0900000000000007E+00
             4.4340000000000019E+00    1.4780000000000000E+00    2.0900000000000007E+00
             4.4340000000000019E+00    4.4330000000000016E+00    2.0900000000000007E+00
             4.4340000000000019E+00    7.3890000000000020E+00    2.0900000000000007E+00
             7.1920000000000002E+00    1.4780000000000000E+00    2.0900000000000007E+00
             7.1920000000000002E+00    4.4330000000000016E+00    2.0900000000000007E+00
             7.1920000000000002E+00    7.3890000000000020E+00    2.0900000000000007E+00
             1.0148000000000001E+01    1.4780000000000000E+00    2.0900000000000007E+00
             1.0148000000000001E+01    4.4330000000000016E+00    2.0900000000000007E+00
             1.0148000000000001E+01    7.3890000000000020E+00    2.0900000000000007E+00
             1.3103999999999996E+01    1.4780000000000000E+00    2.0900000000000007E+00
             1.3103999999999996E+01    4.4330000000000016E+00    2.0900000000000007E+00
             1.3103999999999996E+01    7.3890000000000020E+00    2.0900000000000007E+00
             0.0000000000000000E+00    0.0000000000000000E+00    4.1800000000000015E+00
             0.0000000000000000E+00    2.9549999999999996E+00    4.1800000000000015E+00
             0.0000000000000000E+00    5.9110000000000014E+00    4.1800000000000015E+00
             2.9560000000000000E+00    0.0000000000000000E+00    4.1800000000000015E+00
             2.9560000000000000E+00    2.9549999999999996E+00    4.1800000000000015E+00
             2.9560000000000000E+00    5.9110000000000014E+00    4.1800000000000015E+00
             5.9119999999999999E+00    0.0000000000000000E+00    4.1800000000000015E+00
             5.9119999999999999E+00    2.9549999999999996E+00    4.1800000000000015E+00
             5.9119999999999999E+00    5.9110000000000014E+00    4.1800000000000015E+00
             8.6700000000000035E+00    0.0000000000000000E+00    4.1800000000000015E+00
             8.6700000000000035E+00    2.9549999999999996E+00    4.1800000000000015E+00
             8.6700000000000035E+00    5.9110000000000014E+00    4.1800000000000015E+00
             1.1626000000000003E+01    0.0000000000000000E+00    4.1800000000000015E+00
             1.1626000000000003E+01    2.9549999999999996E+00    4.1800000000000015E+00
             1.1626000000000003E+01    5.9110000000000014E+00    4.1800000000000015E+00
             1.4780000000000000E+00    1.4780000000000000E+00    6.2700000000000014E+00
             1.4780000000000000E+00    4.4330000000000016E+00    6.2700000000000014E+00
             1.4780000000000000E+00    7.3890000000000020E+00    6.2700000000000014E+00
             4.4340000000000019E+00    1.4780000000000000E+00    6.2700000000000014E+00
             4.4340000000000019E+00    4.4330000000000016E+00    6.2700000000000014E+00
             4.4340000000000019E+00    7.3890000000000020E+00    6.2700000000000014E+00
             7.1920000000000002E+00    1.4780000000000000E+00    6.2700000000000014E+00
             7.1920000000000002E+00    4.4330000000000016E+00    6.2700000000000014E+00
             7.1920000000000002E+00    7.3890000000000020E+00    6.2700000000000014E+00
             1.0148000000000001E+01    1.4780000000000000E+00    6.2700000000000014E+00
             1.0148000000000001E+01    4.4330000000000016E+00    6.2700000000000014E+00
             1.0148000000000001E+01    7.3890000000000020E+00    6.2700000000000014E+00
             1.3103999999999996E+01    1.4780000000000000E+00    6.2700000000000014E+00
             1.3103999999999996E+01    4.4330000000000016E+00    6.2700000000000014E+00
             1.3103999999999996E+01    7.3890000000000020E+00    6.2700000000000014E+00
             0.0000000000000000E+00    0.0000000000000000E+00    8.3600000000000030E+00
             0.0000000000000000E+00    2.9549999999999996E+00    8.3600000000000030E+00
             0.0000000000000000E+00    5.9110000000000014E+00    8.3600000000000030E+00
             2.9560000000000000E+00    0.0000000000000000E+00    8.3600000000000030E+00
             2.9560000000000000E+00    2.9549999999999996E+00    8.3600000000000030E+00
             2.9560000000000000E+00    5.9110000000000014E+00    8.3600000000000030E+00
             5.9119999999999999E+00    0.0000000000000000E+00    8.3600000000000030E+00
             5.9119999999999999E+00    2.9549999999999996E+00    8.3600000000000030E+00
             5.9119999999999999E+00    5.9110000000000014E+00    8.3600000000000030E+00
             8.6700000000000035E+00    0.0000000000000000E+00    8.3600000000000030E+00
             8.6700000000000035E+00    2.9549999999999996E+00    8.3600000000000030E+00
             8.6700000000000035E+00    5.9110000000000014E+00    8.3600000000000030E+00
             1.1626000000000003E+01    0.0000000000000000E+00    8.3600000000000030E+00
             1.1626000000000003E+01    2.9549999999999996E+00    8.3600000000000030E+00
             1.1626000000000003E+01    5.9110000000000014E+00    8.3600000000000030E+00
             1.4780000000000000E+00    1.4780000000000000E+00    1.0450000000000001E+01
             1.4780000000000000E+00    4.4330000000000016E+00    1.0450000000000001E+01
             1.4780000000000000E+00    7.3890000000000020E+00    1.0450000000000001E+01
             4.4340000000000019E+00    1.4780000000000000E+00    1.0450000000000001E+01
             4.4340000000000019E+00    4.4330000000000016E+00    1.0450000000000001E+01
             4.4340000000000019E+00    7.3890000000000020E+00    1.0450000000000001E+01
             7.1920000000000002E+00    1.4780000000000000E+00    1.0450000000000001E+01
             7.1920000000000002E+00    4.4330000000000016E+00    1.0450000000000001E+01
             7.1920000000000002E+00    7.3890000000000020E+00    1.0450000000000001E+01
             1.0148000000000001E+01    1.4780000000000000E+00    1.0450000000000001E+01
             1.0148000000000001E+01    4.4330000000000016E+00    1.0450000000000001E+01
             1.0148000000000001E+01    7.3890000000000020E+00    1.0450000000000001E+01
             1.3103999999999996E+01    1.4780000000000000E+00    1.0450000000000001E+01
             1.3103999999999996E+01    4.4330000000000016E+00    1.0450000000000001E+01
             1.3103999999999996E+01    7.3890000000000020E+00    1.0450000000000001E+01
             4.8554000000000022E+00    5.9119000000000010E+00    1.2031800000000004E+01
             9.5279999999999987E+00    5.9136999999999986E+00    1.2033999999999999E+01
             7.1920000000000002E+00    5.9340000000000019E+00    1.2039999999999997E+01
             4.0750319168000022E+00    5.9049488170000011E+00    1.2696844061800006E+01
             1.0293988349499998E+01    5.9062142779000029E+00    1.2716532694500000E+01
             6.0099999685999999E+00    5.9120523853000018E+00    1.2765819797399999E+01
             8.3750478947999998E+00    5.9129627334999997E+00    1.2760746495899994E+01
             5.9788500869000032E+00    5.8882515164999978E+00    1.4094239568500003E+01
             8.4047327065000026E+00    5.8893877816000000E+00    1.4094060897200002E+01
             7.1943473363000008E+00    5.8799164377000022E+00    1.4701118490300006E+01
             7.1912293097000006E+00    5.8521058221000004E+00    1.6050622658199998E+01
             6.3086348447000002E+00    5.8615539361000000E+00    1.6548439365000007E+01
             8.0709262665000061E+00    5.8621389354000000E+00    1.6553588809700003E+01
             7.3120000000000021E+00    5.9340000000000019E+00    2.1043000000000003E+01
             5.8130000000000015E+00    7.4340000000000002E+00    2.2992000000000015E+01
             8.8130000000000042E+00    4.4340000000000019E+00    2.2992000000000015E+01
             5.8130000000000015E+00    4.4330000000000016E+00    2.2992000000000015E+01
             8.8130000000000042E+00    7.4340000000000002E+00    2.2992000000000015E+01
             1.4780000000000000E+00    1.4780000000000000E+00    2.5082000000000015E+01
             1.4780000000000000E+00    4.4330000000000016E+00    2.5082000000000015E+01
             1.4780000000000000E+00    7.3890000000000020E+00    2.5082000000000015E+01
             4.4340000000000019E+00    1.4780000000000000E+00    2.5082000000000015E+01
             4.4340000000000019E+00    4.4330000000000016E+00    2.5082000000000015E+01
             4.4340000000000019E+00    7.3890000000000020E+00    2.5082000000000015E+01
             7.1920000000000002E+00    1.4780000000000000E+00    2.5082000000000015E+01
             7.1920000000000002E+00    4.4330000000000016E+00    2.5082000000000015E+01
             7.1920000000000002E+00    7.3890000000000020E+00    2.5082000000000015E+01
             1.0148000000000001E+01    1.4780000000000000E+00    2.5082000000000015E+01
             1.0148000000000001E+01    4.4330000000000016E+00    2.5082000000000015E+01
             1.0148000000000001E+01    7.3890000000000020E+00    2.5082000000000015E+01
             1.3103999999999996E+01    1.4780000000000000E+00    2.5082000000000015E+01
             1.3103999999999996E+01    4.4330000000000016E+00    2.5082000000000015E+01
             1.3103999999999996E+01    7.3890000000000020E+00    2.5082000000000015E+01
             0.0000000000000000E+00    0.0000000000000000E+00    2.7172000000000001E+01
             0.0000000000000000E+00    2.9549999999999996E+00    2.7172000000000001E+01
             0.0000000000000000E+00    5.9110000000000014E+00    2.7172000000000001E+01
             2.9560000000000000E+00    0.0000000000000000E+00    2.7172000000000001E+01
             2.9560000000000000E+00    2.9549999999999996E+00    2.7172000000000001E+01
             2.9560000000000000E+00    5.9110000000000014E+00    2.7172000000000001E+01
             5.9119999999999999E+00    0.0000000000000000E+00    2.7172000000000001E+01
             5.9119999999999999E+00    2.9549999999999996E+00    2.7172000000000001E+01
             5.9119999999999999E+00    5.9110000000000014E+00    2.7172000000000001E+01
             8.6700000000000035E+00    0.0000000000000000E+00    2.7172000000000001E+01
             8.6700000000000035E+00    2.9549999999999996E+00    2.7172000000000001E+01
             8.6700000000000035E+00    5.9110000000000014E+00    2.7172000000000001E+01
             1.1626000000000003E+01    0.0000000000000000E+00    2.7172000000000001E+01
             1.1626000000000003E+01    2.9549999999999996E+00    2.7172000000000001E+01
             1.1626000000000003E+01    5.9110000000000014E+00    2.7172000000000001E+01
             1.4780000000000000E+00    1.4780000000000000E+00    2.9262000000000000E+01
             1.4780000000000000E+00    4.4330000000000016E+00    2.9262000000000000E+01
             1.4780000000000000E+00    7.3890000000000020E+00    2.9262000000000000E+01
             4.4340000000000019E+00    1.4780000000000000E+00    2.9262000000000000E+01
             4.4340000000000019E+00    4.4330000000000016E+00    2.9262000000000000E+01
             4.4340000000000019E+00    7.3890000000000020E+00    2.9262000000000000E+01
             7.1920000000000002E+00    1.4780000000000000E+00    2.9262000000000000E+01
             7.1920000000000002E+00    4.4330000000000016E+00    2.9262000000000000E+01
             7.1920000000000002E+00    7.3890000000000020E+00    2.9262000000000000E+01
             1.0148000000000001E+01    1.4780000000000000E+00    2.9262000000000000E+01
             1.0148000000000001E+01    4.4330000000000016E+00    2.9262000000000000E+01
             1.0148000000000001E+01    7.3890000000000020E+00    2.9262000000000000E+01
             1.3103999999999996E+01    1.4780000000000000E+00    2.9262000000000000E+01
             1.3103999999999996E+01    4.4330000000000016E+00    2.9262000000000000E+01
             1.3103999999999996E+01    7.3890000000000020E+00    2.9262000000000000E+01
             0.0000000000000000E+00    0.0000000000000000E+00    3.1352000000000007E+01
             0.0000000000000000E+00    2.9549999999999996E+00    3.1352000000000007E+01
             0.0000000000000000E+00    5.9110000000000014E+00    3.1352000000000007E+01
             2.9560000000000000E+00    0.0000000000000000E+00    3.1352000000000007E+01
             2.9560000000000000E+00    2.9549999999999996E+00    3.1352000000000007E+01
             2.9560000000000000E+00    5.9110000000000014E+00    3.1352000000000007E+01
             5.9119999999999999E+00    0.0000000000000000E+00    3.1352000000000007E+01
             5.9119999999999999E+00    2.9549999999999996E+00    3.1352000000000007E+01
             5.9119999999999999E+00    5.9110000000000014E+00    3.1352000000000007E+01
             8.6700000000000035E+00    0.0000000000000000E+00    3.1352000000000007E+01
             8.6700000000000035E+00    2.9549999999999996E+00    3.1352000000000007E+01
             8.6700000000000035E+00    5.9110000000000014E+00    3.1352000000000007E+01
             1.1626000000000003E+01    0.0000000000000000E+00    3.1352000000000007E+01
             1.1626000000000003E+01    2.9549999999999996E+00    3.1352000000000007E+01
             1.1626000000000003E+01    5.9110000000000014E+00    3.1352000000000007E+01
             1.4780000000000000E+00    1.4780000000000000E+00    3.3442000000000007E+01
             1.4780000000000000E+00    4.4330000000000016E+00    3.3442000000000007E+01
             1.4780000000000000E+00    7.3890000000000020E+00    3.3442000000000007E+01
             4.4340000000000019E+00    1.4780000000000000E+00    3.3442000000000007E+01
             4.4340000000000019E+00    4.4330000000000016E+00    3.3442000000000007E+01
             4.4340000000000019E+00    7.3890000000000020E+00    3.3442000000000007E+01
             7.1920000000000002E+00    1.4780000000000000E+00    3.3442000000000007E+01
             7.1920000000000002E+00    4.4330000000000016E+00    3.3442000000000007E+01
             7.1920000000000002E+00    7.3890000000000020E+00    3.3442000000000007E+01
             1.0148000000000001E+01    1.4780000000000000E+00    3.3442000000000007E+01
             1.0148000000000001E+01    4.4330000000000016E+00    3.3442000000000007E+01
             1.0148000000000001E+01    7.3890000000000020E+00    3.3442000000000007E+01
             1.3103999999999996E+01    1.4780000000000000E+00    3.3442000000000007E+01
             1.3103999999999996E+01    4.4330000000000016E+00    3.3442000000000007E+01
             1.3103999999999996E+01    7.3890000000000020E+00    3.3442000000000007E+01
       &END COORD
       &VELOCITY
             0.0000000000000000E+00    0.0000000000000000E+00    0.0000000000000000E+00
             0.0000000000000000E+00    0.0000000000000000E+00    0.0000000000000000E+00
             0.0000000000000000E+00    0.0000000000000000E+00    0.0000000000000000E+00
             0.0000000000000000E+00    0.0000000000000000E+00    0.0000000000000000E+00
             0.0000000000000000E+00    0.0000000000000000E+00    0.0000000000000000E+00
             0.0000000000000000E+00    0.0000000000000000E+00    0.0000000000000000E+00
             0.0000000000000000E+00    0.0000000000000000E+00    0.0000000000000000E+00
             0.0000000000000000E+00    0.0000000000000000E+00    0.0000000000000000E+00
             0.0000000000000000E+00    0.0000000000000000E+00    0.0000000000000000E+00
             0.0000000000000000E+00    0.0000000000000000E+00    0.0000000000000000E+00
             0.0000000000000000E+00    0.0000000000000000E+00    0.0000000000000000E+00
             0.0000000000000000E+00    0.0000000000000000E+00    0.0000000000000000E+00
             0.0000000000000000E+00    0.0000000000000000E+00    0.0000000000000000E+00
             0.0000000000000000E+00    0.0000000000000000E+00    0.0000000000000000E+00
             0.0000000000000000E+00    0.0000000000000000E+00    0.0000000000000000E+00
             0.0000000000000000E+00    0.0000000000000000E+00    0.0000000000000000E+00
             0.0000000000000000E+00    0.0000000000000000E+00    0.0000000000000000E+00
             0.0000000000000000E+00    0.0000000000000000E+00    0.0000000000000000E+00
             0.0000000000000000E+00    0.0000000000000000E+00    0.0000000000000000E+00
             0.0000000000000000E+00    0.0000000000000000E+00    0.0000000000000000E+00
             0.0000000000000000E+00    0.0000000000000000E+00    0.0000000000000000E+00
             0.0000000000000000E+00    0.0000000000000000E+00    0.0000000000000000E+00
             0.0000000000000000E+00    0.0000000000000000E+00    0.0000000000000000E+00
             0.0000000000000000E+00    0.0000000000000000E+00    0.0000000000000000E+00
             0.0000000000000000E+00    0.0000000000000000E+00    0.0000000000000000E+00
             0.0000000000000000E+00    0.0000000000000000E+00    0.0000000000000000E+00
             0.0000000000000000E+00    0.0000000000000000E+00    0.0000000000000000E+00
             0.0000000000000000E+00    0.0000000000000000E+00    0.0000000000000000E+00
             0.0000000000000000E+00    0.0000000000000000E+00    0.0000000000000000E+00
             0.0000000000000000E+00    0.0000000000000000E+00    0.0000000000000000E+00
             0.0000000000000000E+00    0.0000000000000000E+00    0.0000000000000000E+00
             0.0000000000000000E+00    0.0000000000000000E+00    0.0000000000000000E+00
             0.0000000000000000E+00    0.0000000000000000E+00    0.0000000000000000E+00
             0.0000000000000000E+00    0.0000000000000000E+00    0.0000000000000000E+00
             0.0000000000000000E+00    0.0000000000000000E+00    0.0000000000000000E+00
             0.0000000000000000E+00    0.0000000000000000E+00    0.0000000000000000E+00
             0.0000000000000000E+00    0.0000000000000000E+00    0.0000000000000000E+00
             0.0000000000000000E+00    0.0000000000000000E+00    0.0000000000000000E+00
             0.0000000000000000E+00    0.0000000000000000E+00    0.0000000000000000E+00
             0.0000000000000000E+00    0.0000000000000000E+00    0.0000000000000000E+00
             0.0000000000000000E+00    0.0000000000000000E+00    0.0000000000000000E+00
             0.0000000000000000E+00    0.0000000000000000E+00    0.0000000000000000E+00
             0.0000000000000000E+00    0.0000000000000000E+00    0.0000000000000000E+00
             0.0000000000000000E+00    0.0000000000000000E+00    0.0000000000000000E+00
             0.0000000000000000E+00    0.0000000000000000E+00    0.0000000000000000E+00
             0.0000000000000000E+00    0.0000000000000000E+00    0.0000000000000000E+00
             0.0000000000000000E+00    0.0000000000000000E+00    0.0000000000000000E+00
             0.0000000000000000E+00    0.0000000000000000E+00    0.0000000000000000E+00
             0.0000000000000000E+00    0.0000000000000000E+00    0.0000000000000000E+00
             0.0000000000000000E+00    0.0000000000000000E+00    0.0000000000000000E+00
             0.0000000000000000E+00    0.0000000000000000E+00    0.0000000000000000E+00
             0.0000000000000000E+00    0.0000000000000000E+00    0.0000000000000000E+00
             0.0000000000000000E+00    0.0000000000000000E+00    0.0000000000000000E+00
             0.0000000000000000E+00    0.0000000000000000E+00    0.0000000000000000E+00
             0.0000000000000000E+00    0.0000000000000000E+00    0.0000000000000000E+00
             0.0000000000000000E+00    0.0000000000000000E+00    0.0000000000000000E+00
             0.0000000000000000E+00    0.0000000000000000E+00    0.0000000000000000E+00
             0.0000000000000000E+00    0.0000000000000000E+00    0.0000000000000000E+00
             0.0000000000000000E+00    0.0000000000000000E+00    0.0000000000000000E+00
             0.0000000000000000E+00    0.0000000000000000E+00    0.0000000000000000E+00
             0.0000000000000000E+00    0.0000000000000000E+00    0.0000000000000000E+00
             0.0000000000000000E+00    0.0000000000000000E+00    0.0000000000000000E+00
             0.0000000000000000E+00    0.0000000000000000E+00    0.0000000000000000E+00
             0.0000000000000000E+00    0.0000000000000000E+00    0.0000000000000000E+00
             0.0000000000000000E+00    0.0000000000000000E+00    0.0000000000000000E+00
             0.0000000000000000E+00    0.0000000000000000E+00    0.0000000000000000E+00
             0.0000000000000000E+00    0.0000000000000000E+00    0.0000000000000000E+00
             0.0000000000000000E+00    0.0000000000000000E+00    0.0000000000000000E+00
             0.0000000000000000E+00    0.0000000000000000E+00    0.0000000000000000E+00
             0.0000000000000000E+00    0.0000000000000000E+00    0.0000000000000000E+00
             0.0000000000000000E+00    0.0000000000000000E+00    0.0000000000000000E+00
             0.0000000000000000E+00    0.0000000000000000E+00    0.0000000000000000E+00
             0.0000000000000000E+00    0.0000000000000000E+00    0.0000000000000000E+00
             0.0000000000000000E+00    0.0000000000000000E+00    0.0000000000000000E+00
             0.0000000000000000E+00    0.0000000000000000E+00    0.0000000000000000E+00
             0.0000000000000000E+00    0.0000000000000000E+00    0.0000000000000000E+00
             0.0000000000000000E+00    0.0000000000000000E+00    0.0000000000000000E+00
             0.0000000000000000E+00    0.0000000000000000E+00    0.0000000000000000E+00
             0.0000000000000000E+00    0.0000000000000000E+00    0.0000000000000000E+00
             0.0000000000000000E+00    0.0000000000000000E+00    0.0000000000000000E+00
             0.0000000000000000E+00    0.0000000000000000E+00    0.0000000000000000E+00
             0.0000000000000000E+00    0.0000000000000000E+00    0.0000000000000000E+00
             0.0000000000000000E+00    0.0000000000000000E+00    0.0000000000000000E+00
             0.0000000000000000E+00    0.0000000000000000E+00    0.0000000000000000E+00
             0.0000000000000000E+00    0.0000000000000000E+00    0.0000000000000000E+00
             0.0000000000000000E+00    0.0000000000000000E+00    0.0000000000000000E+00
             0.0000000000000000E+00    0.0000000000000000E+00    0.0000000000000000E+00
             0.0000000000000000E+00    0.0000000000000000E+00    0.0000000000000000E+00
             0.0000000000000000E+00    0.0000000000000000E+00    0.0000000000000000E+00
             0.0000000000000000E+00    0.0000000000000000E+00    0.0000000000000000E+00
             0.0000000000000000E+00    0.0000000000000000E+00    0.0000000000000000E+00
             0.0000000000000000E+00    0.0000000000000000E+00    0.0000000000000000E+00
             0.0000000000000000E+00    0.0000000000000000E+00    0.0000000000000000E+00
             0.0000000000000000E+00    0.0000000000000000E+00    0.0000000000000000E+00
             0.0000000000000000E+00    0.0000000000000000E+00    0.0000000000000000E+00
             0.0000000000000000E+00    0.0000000000000000E+00    0.0000000000000000E+00
             0.0000000000000000E+00    0.0000000000000000E+00    0.0000000000000000E+00
             0.0000000000000000E+00    0.0000000000000000E+00    0.0000000000000000E+00
             0.0000000000000000E+00    0.0000000000000000E+00    0.0000000000000000E+00
             0.0000000000000000E+00    0.0000000000000000E+00    0.0000000000000000E+00
             0.0000000000000000E+00    0.0000000000000000E+00    0.0000000000000000E+00
             0.0000000000000000E+00    0.0000000000000000E+00    0.0000000000000000E+00
             0.0000000000000000E+00    0.0000000000000000E+00    0.0000000000000000E+00
             0.0000000000000000E+00    0.0000000000000000E+00    0.0000000000000000E+00
             0.0000000000000000E+00    0.0000000000000000E+00    0.0000000000000000E+00
             0.0000000000000000E+00    0.0000000000000000E+00    0.0000000000000000E+00
             0.0000000000000000E+00    0.0000000000000000E+00    0.0000000000000000E+00
             0.0000000000000000E+00    0.0000000000000000E+00    0.0000000000000000E+00
             0.0000000000000000E+00    0.0000000000000000E+00    0.0000000000000000E+00
             0.0000000000000000E+00    0.0000000000000000E+00    0.0000000000000000E+00
             0.0000000000000000E+00    0.0000000000000000E+00    0.0000000000000000E+00
             0.0000000000000000E+00    0.0000000000000000E+00    0.0000000000000000E+00
             0.0000000000000000E+00    0.0000000000000000E+00    0.0000000000000000E+00
             0.0000000000000000E+00    0.0000000000000000E+00    0.0000000000000000E+00
             0.0000000000000000E+00    0.0000000000000000E+00    0.0000000000000000E+00
             0.0000000000000000E+00    0.0000000000000000E+00    0.0000000000000000E+00
             0.0000000000000000E+00    0.0000000000000000E+00    0.0000000000000000E+00
             0.0000000000000000E+00    0.0000000000000000E+00    0.0000000000000000E+00
             0.0000000000000000E+00    0.0000000000000000E+00    0.0000000000000000E+00
             0.0000000000000000E+00    0.0000000000000000E+00    0.0000000000000000E+00
             0.0000000000000000E+00    0.0000000000000000E+00    0.0000000000000000E+00
             0.0000000000000000E+00    0.0000000000000000E+00    0.0000000000000000E+00
             0.0000000000000000E+00    0.0000000000000000E+00    0.0000000000000000E+00
             0.0000000000000000E+00    0.0000000000000000E+00    0.0000000000000000E+00
             0.0000000000000000E+00    0.0000000000000000E+00    0.0000000000000000E+00
             0.0000000000000000E+00    0.0000000000000000E+00    0.0000000000000000E+00
             0.0000000000000000E+00    0.0000000000000000E+00    0.0000000000000000E+00
             0.0000000000000000E+00    0.0000000000000000E+00    0.0000000000000000E+00
             0.0000000000000000E+00    0.0000000000000000E+00    0.0000000000000000E+00
             0.0000000000000000E+00    0.0000000000000000E+00    0.0000000000000000E+00
             0.0000000000000000E+00    0.0000000000000000E+00    0.0000000000000000E+00
             0.0000000000000000E+00    0.0000000000000000E+00    0.0000000000000000E+00
             0.0000000000000000E+00    0.0000000000000000E+00    0.0000000000000000E+00
             0.0000000000000000E+00    0.0000000000000000E+00    0.0000000000000000E+00
             0.0000000000000000E+00    0.0000000000000000E+00    0.0000000000000000E+00
             0.0000000000000000E+00    0.0000000000000000E+00    0.0000000000000000E+00
             0.0000000000000000E+00    0.0000000000000000E+00    0.0000000000000000E+00
             0.0000000000000000E+00    0.0000000000000000E+00    0.0000000000000000E+00
             0.0000000000000000E+00    0.0000000000000000E+00    0.0000000000000000E+00
             0.0000000000000000E+00    0.0000000000000000E+00    0.0000000000000000E+00
             0.0000000000000000E+00    0.0000000000000000E+00    0.0000000000000000E+00
             0.0000000000000000E+00    0.0000000000000000E+00    0.0000000000000000E+00
             0.0000000000000000E+00    0.0000000000000000E+00    0.0000000000000000E+00
             0.0000000000000000E+00    0.0000000000000000E+00    0.0000000000000000E+00