     183
 i =       0, E =    -5729.4041307832
 Au         0.0000997223        0.0008241144        0.0010433626
 Au         0.0000608890        2.9558240941        0.0006997242
 Au         0.0000220427        5.9118240739        0.0003559695
 Au         2.9560997197        0.0008629472        0.0009273809
 Au         2.9560608865        2.9558629270        0.0005837425
 Au         2.9560220401        5.9118629068        0.0002399878
 Au         5.9120997172        0.0009017801        0.0008113992
 Au         5.9120608840        2.9559017599        0.0004677608
 Au         5.9120220376        5.9119017396        0.0001240061
 Au         8.6700997149        0.0009380119        0.0007031862
 Au         8.6700608816        2.9559379917        0.0003595478
 Au         8.6700220353        5.9119379714        0.0000157931
 Au        11.6260997123        0.0009768448        0.0005872045
 Au        11.6260608791        2.9559768245        0.0002435661
 Au        11.6260220327        5.9119768043       -0.0001001886
 Au         1.4781622979        1.4790865689        2.0908134786
 Au         1.4781234647        4.4340865486        2.0904698403
 Au         1.4780846183        7.3900865284        2.0901260856
 Au         4.4341622954        1.4791254018        2.0906974969
 Au         4.4341234622        4.4341253815        2.0903538585
 Au         4.4340846158        7.3901253613        2.0900101039
 Au         7.1921622930        1.4791616335        2.0905892840
 Au         7.1921234598        4.4341616133        2.0902456456
 Au         7.1920846134        7.3901615930        2.0899018909
 Au        10.1481622905        1.4792004664        2.0904733022
 Au        10.1481234573        4.4342004462        2.0901296639
 Au        10.1480846109        7.3902004259        2.0897859092
 Au        13.1041622880        1.4792392993        2.0903573205
 Au        13.1041234548        4.4342392790        2.0900136822
 Au        13.1040846084        7.3902392588        2.0896699275
 Au         0.0002637225        0.0013102107        4.1810433311
 Au         0.0002248893        2.9563101905        4.1806996927
 Au         0.0001860429        5.9123101703        4.1803559380
 Au         2.9562637200        0.0013490436        4.1809273494
 Au         2.9562248867        2.9563490234        4.1805837110
 Au         2.9561860404        5.9123490031        4.1802399563
 Au         5.9122637174        0.0013878765        4.1808113677
 Au         5.9122248842        2.9563878563        4.1804677293
 Au         5.9121860378        5.9123878360        4.1801239746
 Au         8.6702637151        0.0014241083        4.1807031547
 Au         8.6702248819        2.9564240880        4.1803595163
 Au         8.6701860355        5.9124240678        4.1800157616
 Au        11.6262637125        0.0014629412        4.1805871730
 Au        11.6262248793        2.9564629209        4.1802435346
 Au        11.6261860329        5.9124629007        4.1798997799
 Au         1.4783262982        1.4795726653        6.2708134472
 Au         1.4782874649        4.4345726450        6.2704698088
 Au         1.4782486186        7.3905726248        6.2701260541
 Au         4.4343262956        1.4796114981        6.2706974654
 Au         4.4342874624        4.4346114779        6.2703538271
 Au         4.4342486160        7.3906114577        6.2700100724
 Au         7.1923262933        1.4796477299        6.2705892525
 Au         7.1922874600        4.4346477097        6.2702456141
 Au         7.1922486137        7.3906476894        6.2699018594
 Au        10.1483262907        1.4796865628        6.2704732708
 Au        10.1482874575        4.4346865425        6.2701296324
 Au        10.1482486111        7.3906865223        6.2697858777
 Au        13.1043262882        1.4797253957        6.2703572891
 Au        13.1042874550        4.4347253754        6.2700136507
 Au        13.1042486086        7.3907253552        6.2696698960
 Au         0.0004277227        0.0017963071        8.3610432996
 Au         0.0003888895        2.9567962869        8.3606996612
 Au         0.0003500431        5.9127962666        8.3603559065
 Au         2.9564277202        0.0018351400        8.3609273179
 Au         2.9563888870        2.9568351198        8.3605836795
 Au         2.9563500406        5.9128350995        8.3602399248
 Au         5.9124277177        0.0018739729        8.3608113362
 Au         5.9123888844        2.9568739527        8.3604676978
 Au         5.9123500381        5.9128739324        8.3601239431
 Au         8.6704277153        0.0019102047        8.3607031232
 Au         8.6703888821        2.9569101844        8.3603594848
 Au         8.6703500357        5.9129101642        8.3600157302
 Au        11.6264277128        0.0019490375        8.3605871415
 Au        11.6263888795        2.9569490173        8.3602435031
 Au        11.6263500332        5.9129489971        8.3598997485
 Au         1.4784902984        1.4800587616       10.4508134157
 Au         1.4784514652        4.4350587414       10.4504697773
 Au         1.4784126188        7.3910587212       10.4501260226
 Au         4.4344902959        1.4800975945       10.4506974340
 Au         4.4344514626        4.4350975743       10.4503537956
 Au         4.4344126163        7.3910975540       10.4500100409
 Au         7.1924902935        1.4801338263       10.4505892210
 Au         7.1924514603        4.4351338060       10.4502455826
 Au         7.1924126139        7.3911337858       10.4499018279
 Au        10.1484902910        1.4801726592       10.4504732393
 Au        10.1484514577        4.4351726389       10.4501296009
 Au        10.1484126114        7.3911726187       10.4497858462
 Au        13.1044902884        1.4802114921       10.4503572576
 Au        13.1044514552        4.4352114718       10.4500136192
 Au        13.1044126088        7.3912114516       10.4496698645
  N         4.8554941081        5.9132870672       12.0321653880
  N         9.5284941562        5.9153486888       12.0339818054
  N         7.1924941177        5.9363186985       12.0400710186
  H        10.3427184422        5.9073310551       12.6502507967
  H         4.0531190349        5.9061501267       12.6650977035
  C         8.3828214538        5.9189146810       12.7309263458
  C         5.9977221044        5.9193852900       12.7477198694
  N         8.3393742434        5.9044700093       14.0715297404
  N         5.9157753414        5.9061414848       14.1001246349
  C         7.0993997618        5.8965290412       14.7192793185
  N         8.6868235524        5.8733195068       15.3178197403
  H         7.4659501049        5.8708820690       15.9937679292
  H         6.7624793329        5.8466585105       16.7305983520
 Au         7.1928473459        5.9373656663       21.0430709508
 Au         5.9129072830        7.1955754936       22.9919748648
 Au         8.6709435250        4.4376117442       22.9921873810
 Au         5.9129435405        4.4365755125       22.9922957103
 Au         8.6709072806        7.1956117253       22.9918666518
 Au         1.4790643776        1.4817603316       25.0828133055
 Au         1.4790255444        4.4367603113       25.0824696671
 Au         1.4789866980        7.3927602911       25.0821259124
 Au         4.4350643751        1.4817991644       25.0826973238
 Au         4.4350255419        4.4367991442       25.0823536854
 Au         4.4349866955        7.3927991240       25.0820099307
 Au         7.1930643727        1.4818353962       25.0825891108
 Au         7.1930255395        4.4368353760       25.0822454724
 Au         7.1929866931        7.3928353557       25.0819017177
 Au        10.1490643702        1.4818742291       25.0824731291
 Au        10.1490255370        4.4368742089       25.0821294907
 Au        10.1489866906        7.3928741886       25.0817857360
 Au        13.1050643677        1.4819130620       25.0823571474
 Au        13.1050255345        4.4369130417       25.0820135090
 Au        13.1049866881        7.3929130215       25.0816697543
 Au         0.0011658022        0.0039839734       27.1730431579
 Au         0.0011269690        2.9589839532       27.1726995195
 Au         0.0010881226        5.9149839330       27.1723557649
 Au         2.9571657997        0.0040228063       27.1729271762
 Au         2.9571269664        2.9590227861       27.1725835378
 Au         2.9570881201        5.9150227658       27.1722397832
 Au         5.9131657971        0.0040616392       27.1728111945
 Au         5.9131269639        2.9590616190       27.1724675561
 Au         5.9130881175        5.9150615987       27.1721238014
 Au         8.6711657948        0.0040978710       27.1727029815
 Au         8.6711269615        2.9590978507       27.1723593432
 Au         8.6710881152        5.9150978305       27.1720155885
 Au        11.6271657922        0.0041367039       27.1725869998
 Au        11.6271269590        2.9591366836       27.1722433614
 Au        11.6270881126        5.9151366634       27.1718996068
 Au         1.4792283779        1.4822464279       29.2628132740
 Au         1.4791895446        4.4372464077       29.2624696356
 Au         1.4791506983        7.3932463875       29.2621258809
 Au         4.4352283753        1.4822852608       29.2626972923
 Au         4.4351895421        4.4372852406       29.2623536539
 Au         4.4351506957        7.3932852204       29.2620098992
 Au         7.1932283730        1.4823214926       29.2625890793
 Au         7.1931895397        4.4373214724       29.2622454409
 Au         7.1931506934        7.3933214521       29.2619016863
 Au        10.1492283704        1.4823603255       29.2624730976
 Au        10.1491895372        4.4373603052       29.2621294592
 Au        10.1491506908        7.3933602850       29.2617857045
 Au        13.1052283679        1.4823991584       29.2623571159
 Au        13.1051895347        4.4373991381       29.2620134775
 Au        13.1051506883        7.3933991179       29.2616697228
 Au         0.0013298024        0.0044700698       31.3530431264
 Au         0.0012909692        2.9594700496       31.3526994881
 Au         0.0012521228        5.9154700293       31.3523557334
 Au         2.9573297999        0.0045089027       31.3529271447
 Au         2.9572909667        2.9595088825       31.3525835064
 Au         2.9572521203        5.9155088622       31.3522397517
 Au         5.9133297974        0.0045477356       31.3528111630
 Au         5.9132909641        2.9595477154       31.3524675246
 Au         5.9132521178        5.9155476951       31.3521237700
 Au         8.6713297950        0.0045839674       31.3527029501
 Au         8.6712909618        2.9595839471       31.3523593117
 Au         8.6712521154        5.9155839269       31.3520155570
 Au        11.6273297925        0.0046228002       31.3525869683
 Au        11.6272909592        2.9596227800       31.3522433300
 Au        11.6272521129        5.9156227598       31.3518995753
 Au         1.4793923781        1.4827325243       33.4428132425
 Au         1.4793535448        4.4377325041       33.4424696041
 Au         1.4793146985        7.3937324839       33.4421258495
 Au         4.4353923755        1.4827713572       33.4426972608
 Au         4.4353535423        4.4377713370       33.4423536224
 Au         4.4353146959        7.3937713167       33.4420098677
 Au         7.1933923732        1.4828075890       33.4425890478
 Au         7.1933535400        4.4378075687       33.4422454094
 Au         7.1933146936        7.3938075485       33.4419016548
 Au        10.1493923707        1.4828464219       33.4424730661
 Au        10.1493535374        4.4378464016       33.4421294277
 Au        10.1493146911        7.3938463814       33.4417856731
 Au        13.1053923681        1.4828852547       33.4423570844
 Au        13.1053535349        4.4378852345       33.4420134460
 Au        13.1053146885        7.3938852143       33.4416696914
     183
 i =       1, E =    -5729.4041322590
 Au         0.0000997225        0.0008241148        0.0010433627
 Au         0.0000608893        2.9558240945        0.0006997242
 Au         0.0000220430        5.9118240743        0.0003559694
 Au         2.9560997200        0.0008629476        0.0009273810
 Au         2.9560608868        2.9558629274        0.0005837425
 Au         2.9560220405        5.9118629071        0.0002399876
 Au         5.9120997174        0.0009017804        0.0008113992
 Au         5.9120608842        2.9559017602        0.0004677607
 Au         5.9120220379        5.9119017399        0.0001240059
 Au         8.6700997151        0.0009380121        0.0007031862
 Au         8.6700608819        2.9559379919        0.0003595477
 Au         8.6700220356        5.9119379717        0.0000157929
 Au        11.6260997125        0.0009768450        0.0005872045
 Au        11.6260608794        2.9559768247        0.0002435659
 Au        11.6260220330        5.9119768045       -0.0001001889
 Au         1.4781622982        1.4790865693        2.0908134787
 Au         1.4781234650        4.4340865491        2.0904698402
 Au         1.4780846187        7.3900865289        2.0901260854
 Au         4.4341622957        1.4791254022        2.0906974969
 Au         4.4341234625        4.4341253819        2.0903538584
 Au         4.4340846162        7.3901253617        2.0900101036
 Au         7.1921622933        1.4791616339        2.0905892839
 Au         7.1921234601        4.4341616136        2.0902456454
 Au         7.1920846138        7.3901615934        2.0899018906
 Au        10.1481622908        1.4792004667        2.0904733022
 Au        10.1481234576        4.4342004465        2.0901296637
 Au        10.1480846113        7.3902004262        2.0897859089
 Au        13.1041622882        1.4792392996        2.0903573204
 Au        13.1041234551        4.4342392793        2.0900136819
 Au        13.1040846087        7.3902392591        2.0896699271
 Au         0.0002637228        0.0013102113        4.1810433312
 Au         0.0002248896        2.9563101911        4.1806996927
 Au         0.0001860433        5.9123101708        4.1803559379
 Au         2.9562637202        0.0013490442        4.1809273495
 Au         2.9562248871        2.9563490239        4.1805837110
 Au         2.9561860407        5.9123490037        4.1802399562
 Au         5.9122637177        0.0013878770        4.1808113677
 Au         5.9122248845        2.9563878568        4.1804677292
 Au         5.9121860382        5.9123878365        4.1801239744
 Au         8.6702637153        0.0014241087        4.1807031547
 Au         8.6702248822        2.9564240885        4.1803595162
 Au         8.6701860358        5.9124240682        4.1800157614
 Au        11.6262637128        0.0014629415        4.1805871730
 Au        11.6262248796        2.9564629213        4.1802435345
 Au        11.6261860333        5.9124629011        4.1798997797
 Au         1.4783262985        1.4795726659        6.2708134472
 Au         1.4782874653        4.4345726457        6.2704698087
 Au         1.4782486190        7.3905726254        6.2701260539
 Au         4.4343262959        1.4796114987        6.2706974655
 Au         4.4342874628        4.4346114785        6.2703538270
 Au         4.4342486164        7.3906114583        6.2700100721
 Au         7.1923262936        1.4796477305        6.2705892525
 Au         7.1922874604        4.4346477102        6.2702456139
 Au         7.1922486141        7.3906476900        6.2699018591
 Au        10.1483262911        1.4796865633        6.2704732707
 Au        10.1482874579        4.4346865430        6.2701296322
 Au        10.1482486116        7.3906865228        6.2697858774
 Au        13.1043262885        1.4797253961        6.2703572890
 Au        13.1042874553        4.4347253759        6.2700136504
 Au        13.1042486090        7.3907253556        6.2696698956
 Au         0.0004277230        0.0017963079        8.3610432998
 Au         0.0003888899        2.9567962877        8.3606996612
 Au         0.0003500435        5.9127962674        8.3603559064
 Au         2.9564277205        0.0018351407        8.3609273180
 Au         2.9563888873        2.9568351205        8.3605836795
 Au         2.9563500410        5.9128351002        8.3602399247
 Au         5.9124277180        0.0018739736        8.3608113363
 Au         5.9123888848        2.9568739533        8.3604676977
 Au         5.9123500385        5.9128739331        8.3601239429
 Au         8.6704277156        0.0019102053        8.3607031232
 Au         8.6703888824        2.9569101850        8.3603594847
 Au         8.6703500361        5.9129101648        8.3600157299
 Au        11.6264277131        0.0019490381        8.3605871415
 Au        11.6263888799        2.9569490179        8.3602435030
 Au        11.6263500336        5.9129489976        8.3598997482
 Au         1.4784902988        1.4800587625       10.4508134157
 Au         1.4784514656        4.4350587422       10.4504697772
 Au         1.4784126193        7.3910587220       10.4501260224
 Au         4.4344902962        1.4800975953       10.4506974340
 Au         4.4344514630        4.4350975751       10.4503537955
 Au         4.4344126167        7.3910975548       10.4500100407
 Au         7.1924902939        1.4801338270       10.4505892210
 Au         7.1924514607        4.4351338068       10.4502455825
 Au         7.1924126144        7.3911337865       10.4499018277
 Au        10.1484902913        1.4801726599       10.4504732392
 Au        10.1484514582        4.4351726396       10.4501296007
 Au        10.1484126118        7.3911726194       10.4497858459
 Au        13.1044902888        1.4802114927       10.4503572575
 Au        13.1044514556        4.4352114724       10.4500136190
 Au        13.1044126093        7.3912114522       10.4496698642
  N         4.8554941084        5.9132870677       12.0321653879
  N         9.5284941567        5.9153486893       12.0339818051
  N         7.1924941182        5.9363186993       12.0400710184
  H        10.3427179923        5.9073310563       12.6502508631
  H         4.0531194757        5.9061501287       12.6650977758
  C         8.3828217847        5.9189146747       12.7309267206
  C         5.9977223444        5.9193852993       12.7477194916
  N         8.3393725833        5.9044700583       14.0715280029
  N         5.9157759904        5.9061414612       14.1001256387
  C         7.0993993410        5.8965290574       14.7192786743
  N         8.6868252099        5.8733194644       15.3178209708
  H         7.4659490256        5.8708820505       15.9937688325
  H         6.7624796213        5.8466585206       16.7305982264
 Au         7.1928473044        5.9373656675       21.0430709506
 Au         5.9129073184        7.1955754099       22.9919748646
 Au         8.6709434754        4.4376117455       22.9921873808
 Au         5.9129435759        4.4365755138       22.9922957101
 Au         8.6709072311        7.1956116416       22.9918666516
 Au         1.4790643782        1.4817603330       25.0828133055
 Au         1.4790255450        4.4367603128       25.0824696670
 Au         1.4789866987        7.3927602926       25.0821259122
 Au         4.4350643757        1.4817991659       25.0826973238
 Au         4.4350255425        4.4367991456       25.0823536853
 Au         4.4349866962        7.3927991254       25.0820099305
 Au         7.1930643733        1.4818353976       25.0825891108
 Au         7.1930255401        4.4368353774       25.0822454723
 Au         7.1929866938        7.3928353571       25.0819017175
 Au        10.1490643708        1.4818742304       25.0824731290
 Au        10.1490255376        4.4368742102       25.0821294905
 Au        10.1489866913        7.3928741899       25.0817857357
 Au        13.1050643683        1.4819130633       25.0823571473
 Au        13.1050255351        4.4369130430       25.0820135088
 Au        13.1049866888        7.3929130228       25.0816697540
 Au         0.0011658028        0.0039839750       27.1730431581
 Au         0.0011269696        2.9589839548       27.1726995196
 Au         0.0010881233        5.9149839345       27.1723557648
 Au         2.9571658002        0.0040228079       27.1729271763
 Au         2.9571269671        2.9590227876       27.1725835378
 Au         2.9570881207        5.9150227674       27.1722397830
 Au         5.9131657977        0.0040616407       27.1728111946
 Au         5.9131269645        2.9590616205       27.1724675561
 Au         5.9130881182        5.9150616002       27.1721238013
 Au         8.6711657953        0.0040978724       27.1727029816
 Au         8.6711269622        2.9590978522       27.1723593430
 Au         8.6710881158        5.9150978319       27.1720155882
 Au        11.6271657928        0.0041367052       27.1725869998
 Au        11.6271269596        2.9591366850       27.1722433613
 Au        11.6270881133        5.9151366648       27.1718996065
 Au         1.4792283785        1.4822464296       29.2628132741
 Au         1.4791895453        4.4372464094       29.2624696355
 Au         1.4791506990        7.3932463891       29.2621258807
 Au         4.4352283760        1.4822852624       29.2626972923
 Au         4.4351895428        4.4372852422       29.2623536538
 Au         4.4351506965        7.3932852220       29.2620098990
 Au         7.1932283736        1.4823214942       29.2625890793
 Au         7.1931895404        4.4373214739       29.2622454408
 Au         7.1931506941        7.3933214537       29.2619016860
 Au        10.1492283711        1.4823603270       29.2624730975
 Au        10.1491895379        4.4373603068       29.2621294590
 Au        10.1491506916        7.3933602865       29.2617857042
 Au        13.1052283685        1.4823991598       29.2623571158
 Au        13.1051895354        4.4373991396       29.2620134773
 Au        13.1051506890        7.3933991193       29.2616697225
 Au         0.0013298030        0.0044700716       31.3530431266
 Au         0.0012909699        2.9594700514       31.3526994881
 Au         0.0012521235        5.9154700311       31.3523557333
 Au         2.9573298005        0.0045089044       31.3529271448
 Au         2.9572909673        2.9595088842       31.3525835063
 Au         2.9572521210        5.9155088639       31.3522397515
 Au         5.9133297980        0.0045477373       31.3528111631
 Au         5.9132909648        2.9595477170       31.3524675246
 Au         5.9132521185        5.9155476968       31.3521237698
 Au         8.6713297956        0.0045839690       31.3527029501
 Au         8.6712909624        2.9595839487       31.3523593116
 Au         8.6712521161        5.9155839285       31.3520155568
 Au        11.6273297931        0.0046228018       31.3525869683
 Au        11.6272909599        2.9596227816       31.3522433298
 Au        11.6272521136        5.9156227613       31.3518995750
 Au         1.4793923788        1.4827325262       33.4428132426
 Au         1.4793535456        4.4377325059       33.4424696041
 Au         1.4793146993        7.3937324857       33.4421258493
 Au         4.4353923762        1.4827713590       33.4426972608
 Au         4.4353535431        4.4377713388       33.4423536223
 Au         4.4353146967        7.3937713185       33.4420098675
 Au         7.1933923739        1.4828075907       33.4425890478
 Au         7.1933535407        4.4378075705       33.4422454093
 Au         7.1933146944        7.3938075502       33.4419016545
 Au        10.1493923713        1.4828464236       33.4424730661
 Au        10.1493535382        4.4378464033       33.4421294275
 Au        10.1493146918        7.3938463831       33.4417856727
 Au        13.1053923688        1.4828852564       33.4423570843
 Au        13.1053535356        4.4378852362       33.4420134458
 Au        13.1053146893        7.3938852159       33.4416696910
     183
 i =       2, E =    -5729.4043873744
 Au         0.0000997576        0.0008241834        0.0010433880
 Au         0.0000609331        2.9558241632        0.0006997270
 Au         0.0000220955        5.9118241429        0.0003559497
 Au         2.9560997551        0.0008630075        0.0009273992
 Au         2.9560609306        2.9558629873        0.0005837382
 Au         2.9560220929        5.9118629671        0.0002399609
 Au         5.9120997526        0.0009018317        0.0008114104
 Au         5.9120609280        2.9559018115        0.0004677495
 Au         5.9120220904        5.9119017912        0.0001239722
 Au         8.6700997502        0.0009380553        0.0007031909
 Au         8.6700609257        2.9559380351        0.0003595299
 Au         8.6700220880        5.9119380149        0.0000157526
 Au        11.6260997477        0.0009768795        0.0005872021
 Au        11.6260609232        2.9559768593        0.0002435411
 Au        11.6260220855        5.9119768390       -0.0001002361
 Au         1.4781623426        1.4790866495        2.0908134892
 Au         1.4781235181        4.4340866293        2.0904698282
 Au         1.4780846805        7.3900866090        2.0901260509
 Au         4.4341623401        1.4791254737        2.0906975004
 Au         4.4341235156        4.4341254534        2.0903538395
 Au         4.4340846779        7.3901254332        2.0900100622
 Au         7.1921623377        1.4791616973        2.0905892809
 Au         7.1921235132        4.4341616771        2.0902456199
 Au         7.1920846756        7.3901616568        2.0899018426
 Au        10.1481623352        1.4792005215        2.0904732921
 Au        10.1481235107        4.4342005012        2.0901296311
 Au        10.1480846730        7.3902004810        2.0897858539
 Au        13.1041623327        1.4792393456        2.0903573034
 Au        13.1041235082        4.4342393254        2.0900136424
 Au        13.1040846705        7.3902393051        2.0896698651
 Au         0.0002637678        0.0013103117        4.1810433565
 Au         0.0002249433        2.9563102915        4.1806996955
 Au         0.0001861057        5.9123102713        4.1803559182
 Au         2.9562637653        0.0013491359        4.1809273677
 Au         2.9562249408        2.9563491157        4.1805837067
 Au         2.9561861031        5.9123490954        4.1802399295
 Au         5.9122637628        0.0013879601        4.1808113790
 Au         5.9122249382        2.9563879398        4.1804677180
 Au         5.9121861006        5.9123879196        4.1801239407
 Au         8.6702637604        0.0014241837        4.1807031594
 Au         8.6702249359        2.9564241634        4.1803594984
 Au         8.6701860982        5.9124241432        4.1800157211
 Au        11.6262637579        0.0014630078        4.1805871706
 Au        11.6262249334        2.9564629876        4.1802435097
 Au        11.6261860957        5.9124629674        4.1798997324
 Au         1.4783263528        1.4795727779        6.2708134577
 Au         1.4782875283        4.4345727576        6.2704697967
 Au         1.4782486907        7.3905727374        6.2701260195
 Au         4.4343263503        1.4796116020        6.2706974690
 Au         4.4342875258        4.4346115818        6.2703538080
 Au         4.4342486881        7.3906115616        6.2700100307
 Au         7.1923263479        1.4796478257        6.2705892494
 Au         7.1922875234        4.4346478054        6.2702455884
 Au         7.1922486858        7.3906477852        6.2699018111
 Au        10.1483263454        1.4796866498        6.2704732606
 Au        10.1482875209        4.4346866296        6.2701295997
 Au        10.1482486832        7.3906866093        6.2697858224
 Au        13.1043263429        1.4797254740        6.2703572719
 Au        13.1042875184        4.4347254537        6.2700136109
 Au        13.1042486807        7.3907254335        6.2696698336
 Au         0.0004277780        0.0017964401        8.3610433250
 Au         0.0003889535        2.9567964199        8.3606996640
 Au         0.0003501159        5.9127963996        8.3603558867
 Au         2.9564277755        0.0018352643        8.3609273362
 Au         2.9563889510        2.9568352440        8.3605836753
 Au         2.9563501133        5.9128352238        8.3602398980
 Au         5.9124277730        0.0018740884        8.3608113475
 Au         5.9123889484        2.9568740682        8.3604676865
 Au         5.9123501108        5.9128740479        8.3601239092
 Au         8.6704277706        0.0019103120        8.3607031279
 Au         8.6703889461        2.9569102918        8.3603594669
 Au         8.6703501084        5.9129102716        8.3600156896
 Au        11.6264277681        0.0019491362        8.3605871392
 Au        11.6263889436        2.9569491160        8.3602434782
 Au        11.6263501059        5.9129490957        8.3598997009
 Au         1.4784903630        1.4800589062       10.4508134262
 Au         1.4784515385        4.4350588860       10.4504697652
 Au         1.4784127009        7.3910588657       10.4501259880
 Au         4.4344903605        1.4800977304       10.4506974375
 Au         4.4344515360        4.4350977102       10.4503537765
 Au         4.4344126983        7.3910976899       10.4500099992
 Au         7.1924903581        1.4801339540       10.4505892179
 Au         7.1924515336        4.4351339338       10.4502455569
 Au         7.1924126960        7.3911339135       10.4499017796
 Au        10.1484903556        1.4801727782       10.4504732292
 Au        10.1484515311        4.4351727579       10.4501295682
 Au        10.1484126934        7.3911727377       10.4497857909
 Au        13.1044903531        1.4802116023       10.4503572404
 Au        13.1044515286        4.4352115821       10.4500135794
 Au        13.1044126909        7.3912115619       10.4496698021
  N         4.8554941651        5.9132871588       12.0321653688
  N         9.5284942378        5.9153487789       12.0339817628
  N         7.1924941993        5.9363188383       12.0400709815