 # Version information for this restart file 
 # current date 2024-01-10 22:50:27.355
 # current working dir /gpfs/home/cahart/transport/melamine/au_from-h2/ci-neb/ts1/dft_leads-sz_tip-dzvp_surf-dzvp_kpoints-2-4-20_replicas-7
 # Program compiled at                              Thu 21 Sep 19:20:17 BST 2023
 # Program compiled on                                           hx1-c12-login-1
 # Program compiled for                                                    local
 # Source code revision number                                       git:5518aa6
 &GLOBAL
   EXTENDED_FFT_LENGTHS  T
   PRINT_LEVEL  MEDIUM
   PROJECT_NAME 2_dft_wfn-r-0
   OUTPUT_FILE_NAME 2_dft_wfn-r-0.out
   RUN_TYPE  BAND
 &END GLOBAL
 &MOTION
   &CONSTRAINT
     &FIXED_ATOMS
       LIST  1..93 104..183
     &END FIXED_ATOMS
   &END CONSTRAINT
   &BAND
     NPROC_REP  64
     BAND_TYPE  CI-NEB
     NUMBER_OF_REPLICA  7
     K_SPRING     5.0000000000000003E-02
     &CI_NEB
       NSTEPS_IT  5
     &END CI_NEB
     &OPTIMIZE_BAND
       OPT_TYPE  DIIS
       &DIIS
         MAX_STEPS  1000
       &END DIIS
     &END OPTIMIZE_BAND
     &REPLICA
       &COORD
             0.0000000000000000E+00    0.0000000000000000E+00    0.0000000000000000E+00
             0.0000000000000000E+00    2.9549999999999983E+00    0.0000000000000000E+00
             0.0000000000000000E+00    5.9109999999999969E+00    0.0000000000000000E+00
             2.9559999999999982E+00    0.0000000000000000E+00    0.0000000000000000E+00
             2.9559999999999982E+00    2.9549999999999983E+00    0.0000000000000000E+00
             2.9559999999999982E+00    5.9109999999999969E+00    0.0000000000000000E+00
             5.9119999999999964E+00    0.0000000000000000E+00    0.0000000000000000E+00
             5.9119999999999964E+00    2.9549999999999983E+00    0.0000000000000000E+00
             5.9119999999999964E+00    5.9109999999999969E+00    0.0000000000000000E+00
             8.6699999999999946E+00    0.0000000000000000E+00    0.0000000000000000E+00
             8.6699999999999946E+00    2.9549999999999983E+00    0.0000000000000000E+00
             8.6699999999999946E+00    5.9109999999999969E+00    0.0000000000000000E+00
             1.1625999999999996E+01    0.0000000000000000E+00    0.0000000000000000E+00
             1.1625999999999996E+01    2.9549999999999983E+00    0.0000000000000000E+00
             1.1625999999999996E+01    5.9109999999999969E+00    0.0000000000000000E+00
             1.4779999999999991E+00    1.4779999999999991E+00    2.0899999999999985E+00
             1.4779999999999991E+00    4.4329999999999972E+00    2.0899999999999985E+00
             1.4779999999999991E+00    7.3889999999999967E+00    2.0899999999999985E+00
             4.4339999999999975E+00    1.4779999999999991E+00    2.0899999999999985E+00
             4.4339999999999975E+00    4.4329999999999972E+00    2.0899999999999985E+00
             4.4339999999999975E+00    7.3889999999999967E+00    2.0899999999999985E+00
             7.1919999999999957E+00    1.4779999999999991E+00    2.0899999999999985E+00
             7.1919999999999957E+00    4.4329999999999972E+00    2.0899999999999985E+00
             7.1919999999999957E+00    7.3889999999999967E+00    2.0899999999999985E+00
             1.0147999999999993E+01    1.4779999999999991E+00    2.0899999999999985E+00
             1.0147999999999993E+01    4.4329999999999972E+00    2.0899999999999985E+00
             1.0147999999999993E+01    7.3889999999999967E+00    2.0899999999999985E+00
             1.3103999999999989E+01    1.4779999999999991E+00    2.0899999999999985E+00
             1.3103999999999989E+01    4.4329999999999972E+00    2.0899999999999985E+00
             1.3103999999999989E+01    7.3889999999999967E+00    2.0899999999999985E+00
             0.0000000000000000E+00    0.0000000000000000E+00    4.1799999999999971E+00
             0.0000000000000000E+00    2.9549999999999983E+00    4.1799999999999971E+00
             0.0000000000000000E+00    5.9109999999999969E+00    4.1799999999999971E+00
             2.9559999999999982E+00    0.0000000000000000E+00    4.1799999999999971E+00
             2.9559999999999982E+00    2.9549999999999983E+00    4.1799999999999971E+00
             2.9559999999999982E+00    5.9109999999999969E+00    4.1799999999999971E+00
             5.9119999999999964E+00    0.0000000000000000E+00    4.1799999999999971E+00
             5.9119999999999964E+00    2.9549999999999983E+00    4.1799999999999971E+00
             5.9119999999999964E+00    5.9109999999999969E+00    4.1799999999999971E+00
             8.6699999999999946E+00    0.0000000000000000E+00    4.1799999999999971E+00
             8.6699999999999946E+00    2.9549999999999983E+00    4.1799999999999971E+00
             8.6699999999999946E+00    5.9109999999999969E+00    4.1799999999999971E+00
             1.1625999999999996E+01    0.0000000000000000E+00    4.1799999999999971E+00
             1.1625999999999996E+01    2.9549999999999983E+00    4.1799999999999971E+00
             1.1625999999999996E+01    5.9109999999999969E+00    4.1799999999999971E+00
             1.4779999999999991E+00    1.4779999999999991E+00    6.2699999999999969E+00
             1.4779999999999991E+00    4.4329999999999972E+00    6.2699999999999969E+00
             1.4779999999999991E+00    7.3889999999999967E+00    6.2699999999999969E+00
             4.4339999999999975E+00    1.4779999999999991E+00    6.2699999999999969E+00
             4.4339999999999975E+00    4.4329999999999972E+00    6.2699999999999969E+00
             4.4339999999999975E+00    7.3889999999999967E+00    6.2699999999999969E+00
             7.1919999999999957E+00    1.4779999999999991E+00    6.2699999999999969E+00
             7.1919999999999957E+00    4.4329999999999972E+00    6.2699999999999969E+00
             7.1919999999999957E+00    7.3889999999999967E+00    6.2699999999999969E+00
             1.0147999999999993E+01    1.4779999999999991E+00    6.2699999999999969E+00
             1.0147999999999993E+01    4.4329999999999972E+00    6.2699999999999969E+00
             1.0147999999999993E+01    7.3889999999999967E+00    6.2699999999999969E+00
             1.3103999999999989E+01    1.4779999999999991E+00    6.2699999999999969E+00
             1.3103999999999989E+01    4.4329999999999972E+00    6.2699999999999969E+00
             1.3103999999999989E+01    7.3889999999999967E+00    6.2699999999999969E+00
             0.0000000000000000E+00    0.0000000000000000E+00    8.3599999999999941E+00
             0.0000000000000000E+00    2.9549999999999983E+00    8.3599999999999941E+00
             0.0000000000000000E+00    5.9109999999999969E+00    8.3599999999999941E+00
             2.9559999999999982E+00    0.0000000000000000E+00    8.3599999999999941E+00
             2.9559999999999982E+00    2.9549999999999983E+00    8.3599999999999941E+00
             2.9559999999999982E+00    5.9109999999999969E+00    8.3599999999999941E+00
             5.9119999999999964E+00    0.0000000000000000E+00    8.3599999999999941E+00
             5.9119999999999964E+00    2.9549999999999983E+00    8.3599999999999941E+00
             5.9119999999999964E+00    5.9109999999999969E+00    8.3599999999999941E+00
             8.6699999999999946E+00    0.0000000000000000E+00    8.3599999999999941E+00
             8.6699999999999946E+00    2.9549999999999983E+00    8.3599999999999941E+00
             8.6699999999999946E+00    5.9109999999999969E+00    8.3599999999999941E+00
             1.1625999999999996E+01    0.0000000000000000E+00    8.3599999999999941E+00
             1.1625999999999996E+01    2.9549999999999983E+00    8.3599999999999941E+00
             1.1625999999999996E+01    5.9109999999999969E+00    8.3599999999999941E+00
             1.4779999999999991E+00    1.4779999999999991E+00    1.0449999999999994E+01
             1.4779999999999991E+00    4.4329999999999972E+00    1.0449999999999994E+01
             1.4779999999999991E+00    7.3889999999999967E+00    1.0449999999999994E+01
             4.4339999999999975E+00    1.4779999999999991E+00    1.0449999999999994E+01
             4.4339999999999975E+00    4.4329999999999972E+00    1.0449999999999994E+01
             4.4339999999999975E+00    7.3889999999999967E+00    1.0449999999999994E+01
             7.1919999999999957E+00    1.4779999999999991E+00    1.0449999999999994E+01
             7.1919999999999957E+00    4.4329999999999972E+00    1.0449999999999994E+01
             7.1919999999999957E+00    7.3889999999999967E+00    1.0449999999999994E+01
             1.0147999999999993E+01    1.4779999999999991E+00    1.0449999999999994E+01
             1.0147999999999993E+01    4.4329999999999972E+00    1.0449999999999994E+01
             1.0147999999999993E+01    7.3889999999999967E+00    1.0449999999999994E+01
             1.3103999999999989E+01    1.4779999999999991E+00    1.0449999999999994E+01
             1.3103999999999989E+01    4.4329999999999972E+00    1.0449999999999994E+01
             1.3103999999999989E+01    7.3889999999999967E+00    1.0449999999999994E+01
             4.8553999999999977E+00    5.9118999999999975E+00    1.2031799999999993E+01
             9.5279999999999951E+00    5.9136999999999960E+00    1.2033999999999994E+01
             7.1919999999999957E+00    5.9339999999999966E+00    1.2039999999999990E+01
             4.0750319167999978E+00    5.9049488169999966E+00    1.2696844061799993E+01
             1.0293988349499992E+01    5.9062142778999966E+00    1.2716532694499993E+01
             6.0099999685999972E+00    5.9120523852999973E+00    1.2765819797399994E+01
             8.3750478947999945E+00    5.9129627334999961E+00    1.2760746495899989E+01
             5.9788500868999961E+00    5.8882515164999951E+00    1.4094239568499990E+01
             8.4047327064999955E+00    5.8893877815999964E+00    1.4094060897199993E+01
             7.1943473362999946E+00    5.8799164376999968E+00    1.4701118490299995E+01
             7.1912293096999944E+00    5.8521058220999977E+00    1.6050622658199988E+01
             6.3086348446999958E+00    5.8615539360999955E+00    1.6548439364999993E+01
             8.0709262664999972E+00    5.8621389353999964E+00    1.6553588809699992E+01
             7.3119999999999958E+00    5.9339999999999966E+00    2.1042999999999985E+01
             5.8129999999999979E+00    7.4339999999999957E+00    2.2991999999999994E+01
             8.8129999999999953E+00    4.4339999999999975E+00    2.2991999999999994E+01
             5.8129999999999979E+00    4.4329999999999972E+00    2.2991999999999994E+01
             8.8129999999999953E+00    7.4339999999999957E+00    2.2991999999999994E+01
             1.4779999999999991E+00    1.4779999999999991E+00    2.5081999999999990E+01
             1.4779999999999991E+00    4.4329999999999972E+00    2.5081999999999990E+01
             1.4779999999999991E+00    7.3889999999999967E+00    2.5081999999999990E+01
             4.4339999999999975E+00    1.4779999999999991E+00    2.5081999999999990E+01
             4.4339999999999975E+00    4.4329999999999972E+00    2.5081999999999990E+01
             4.4339999999999975E+00    7.3889999999999967E+00    2.5081999999999990E+01
             7.1919999999999957E+00    1.4779999999999991E+00    2.5081999999999990E+01
             7.1919999999999957E+00    4.4329999999999972E+00    2.5081999999999990E+01
             7.1919999999999957E+00    7.3889999999999967E+00    2.5081999999999990E+01
             1.0147999999999993E+01    1.4779999999999991E+00    2.5081999999999990E+01
             1.0147999999999993E+01    4.4329999999999972E+00    2.5081999999999990E+01
             1.0147999999999993E+01    7.3889999999999967E+00    2.5081999999999990E+01
             1.3103999999999989E+01    1.4779999999999991E+00    2.5081999999999990E+01
             1.3103999999999989E+01    4.4329999999999972E+00    2.5081999999999990E+01
             1.3103999999999989E+01    7.3889999999999967E+00    2.5081999999999990E+01
             0.0000000000000000E+00    0.0000000000000000E+00    2.7171999999999990E+01
             0.0000000000000000E+00    2.9549999999999983E+00    2.7171999999999990E+01
             0.0000000000000000E+00    5.9109999999999969E+00    2.7171999999999990E+01
             2.9559999999999982E+00    0.0000000000000000E+00    2.7171999999999990E+01
             2.9559999999999982E+00    2.9549999999999983E+00    2.7171999999999990E+01
             2.9559999999999982E+00    5.9109999999999969E+00    2.7171999999999990E+01
             5.9119999999999964E+00    0.0000000000000000E+00    2.7171999999999990E+01
             5.9119999999999964E+00    2.9549999999999983E+00    2.7171999999999990E+01
             5.9119999999999964E+00    5.9109999999999969E+00    2.7171999999999990E+01
             8.6699999999999946E+00    0.0000000000000000E+00    2.7171999999999990E+01
             8.6699999999999946E+00    2.9549999999999983E+00    2.7171999999999990E+01
             8.6699999999999946E+00    5.9109999999999969E+00    2.7171999999999990E+01
             1.1625999999999996E+01    0.0000000000000000E+00    2.7171999999999990E+01
             1.1625999999999996E+01    2.9549999999999983E+00    2.7171999999999990E+01
             1.1625999999999996E+01    5.9109999999999969E+00    2.7171999999999990E+01
             1.4779999999999991E+00    1.4779999999999991E+00    2.9261999999999986E+01
             1.4779999999999991E+00    4.4329999999999972E+00    2.9261999999999986E+01
             1.4779999999999991E+00    7.3889999999999967E+00    2.9261999999999986E+01
             4.4339999999999975E+00    1.4779999999999991E+00    2.9261999999999986E+01
             4.4339999999999975E+00    4.4329999999999972E+00    2.9261999999999986E+01
             4.4339999999999975E+00    7.3889999999999967E+00    2.9261999999999986E+01
             7.1919999999999957E+00    1.4779999999999991E+00    2.9261999999999986E+01
             7.1919999999999957E+00    4.4329999999999972E+00    2.9261999999999986E+01
             7.1919999999999957E+00    7.3889999999999967E+00    2.9261999999999986E+01
             1.0147999999999993E+01    1.4779999999999991E+00    2.9261999999999986E+01
             1.0147999999999993E+01    4.4329999999999972E+00    2.9261999999999986E+01
             1.0147999999999993E+01    7.3889999999999967E+00    2.9261999999999986E+01
             1.3103999999999989E+01    1.4779999999999991E+00    2.9261999999999986E+01
             1.3103999999999989E+01    4.4329999999999972E+00    2.9261999999999986E+01
             1.3103999999999989E+01    7.3889999999999967E+00    2.9261999999999986E+01
             0.0000000000000000E+00    0.0000000000000000E+00    3.1351999999999990E+01
             0.0000000000000000E+00    2.9549999999999983E+00    3.1351999999999990E+01
             0.0000000000000000E+00    5.9109999999999969E+00    3.1351999999999990E+01
             2.9559999999999982E+00    0.0000000000000000E+00    3.1351999999999990E+01
             2.9559999999999982E+00    2.9549999999999983E+00    3.1351999999999990E+01
             2.9559999999999982E+00    5.9109999999999969E+00    3.1351999999999990E+01
             5.9119999999999964E+00    0.0000000000000000E+00    3.1351999999999990E+01
             5.9119999999999964E+00    2.9549999999999983E+00    3.1351999999999990E+01
             5.9119999999999964E+00    5.9109999999999969E+00    3.1351999999999990E+01
             8.6699999999999946E+00    0.0000000000000000E+00    3.1351999999999990E+01
             8.6699999999999946E+00    2.9549999999999983E+00    3.1351999999999990E+01
             8.6699999999999946E+00    5.9109999999999969E+00    3.1351999999999990E+01
             1.1625999999999996E+01    0.0000000000000000E+00    3.1351999999999990E+01
             1.1625999999999996E+01    2.9549999999999983E+00    3.1351999999999990E+01
             1.1625999999999996E+01    5.9109999999999969E+00    3.1351999999999990E+01
             1.4779999999999991E+00    1.4779999999999991E+00    3.3441999999999986E+01
             1.4779999999999991E+00    4.4329999999999972E+00    3.3441999999999986E+01
             1.4779999999999991E+00    7.3889999999999967E+00    3.3441999999999986E+01
             4.4339999999999975E+00    1.4779999999999991E+00    3.3441999999999986E+01
             4.4339999999999975E+00    4.4329999999999972E+00    3.3441999999999986E+01
             4.4339999999999975E+00    7.3889999999999967E+00    3.3441999999999986E+01
             7.1919999999999957E+00    1.4779999999999991E+00    3.3441999999999986E+01
             7.1919999999999957E+00    4.4329999999999972E+00    3.3441999999999986E+01
             7.1919999999999957E+00    7.3889999999999967E+00    3.3441999999999986E+01
             1.0147999999999993E+01    1.4779999999999991E+00    3.3441999999999986E+01
             1.0147999999999993E+01    4.4329999999999972E+00    3.3441999999999986E+01
             1.0147999999999993E+01    7.3889999999999967E+00    3.3441999999999986E+01
             1.3103999999999989E+01    1.4779999999999991E+00    3.3441999999999986E+01
             1.3103999999999989E+01    4.4329999999999972E+00    3.3441999999999986E+01
             1.3103999999999989E+01    7.3889999999999967E+00    3.3441999999999986E+01
       &END COORD
       &VELOCITY
             0.0000000000000000E+00    0.0000000000000000E+00    0.0000000000000000E+00
             0.0000000000000000E+00    0.0000000000000000E+00    0.0000000000000000E+00
             0.0000000000000000E+00    0.0000000000000000E+00    0.0000000000000000E+00
             0.0000000000000000E+00    0.0000000000000000E+00    0.0000000000000000E+00
             0.0000000000000000E+00    0.0000000000000000E+00    0.0000000000000000E+00
             0.0000000000000000E+00    0.0000000000000000E+00    0.0000000000000000E+00
             0.0000000000000000E+00    0.0000000000000000E+00    0.0000000000000000E+00
             0.0000000000000000E+00    0.0000000000000000E+00    0.0000000000000000E+00
             0.0000000000000000E+00    0.0000000000000000E+00    0.0000000000000000E+00
             0.0000000000000000E+00    0.0000000000000000E+00    0.0000000000000000E+00
             0.0000000000000000E+00    0.0000000000000000E+00    0.0000000000000000E+00
             0.0000000000000000E+00    0.0000000000000000E+00    0.0000000000000000E+00
             0.0000000000000000E+00    0.0000000000000000E+00    0.0000000000000000E+00
             0.0000000000000000E+00    0.0000000000000000E+00    0.0000000000000000E+00
             0.0000000000000000E+00    0.0000000000000000E+00    0.0000000000000000E+00
             0.0000000000000000E+00    0.0000000000000000E+00    0.0000000000000000E+00
             0.0000000000000000E+00    0.0000000000000000E+00    0.0000000000000000E+00
             0.0000000000000000E+00    0.0000000000000000E+00    0.0000000000000000E+00
             0.0000000000000000E+00    0.0000000000000000E+00    0.0000000000000000E+00
             0.0000000000000000E+00    0.0000000000000000E+00    0.0000000000000000E+00
             0.0000000000000000E+00    0.0000000000000000E+00    0.0000000000000000E+00
             0.0000000000000000E+00    0.0000000000000000E+00    0.0000000000000000E+00
             0.0000000000000000E+00    0.0000000000000000E+00    0.0000000000000000E+00
             0.0000000000000000E+00    0.0000000000000000E+00    0.0000000000000000E+00
             0.0000000000000000E+00    0.0000000000000000E+00    0.0000000000000000E+00
             0.0000000000000000E+00    0.0000000000000000E+00    0.0000000000000000E+00
             0.0000000000000000E+00    0.0000000000000000E+00    0.0000000000000000E+00
             0.0000000000000000E+00    0.0000000000000000E+00    0.0000000000000000E+00
             0.0000000000000000E+00    0.0000000000000000E+00    0.0000000000000000E+00
             0.0000000000000000E+00    0.0000000000000000E+00    0.0000000000000000E+00
             0.0000000000000000E+00    0.0000000000000000E+00    0.0000000000000000E+00
             0.0000000000000000E+00    0.0000000000000000E+00    0.0000000000000000E+00
             0.0000000000000000E+00    0.0000000000000000E+00    0.0000000000000000E+00
             0.0000000000000000E+00    0.0000000000000000E+00    0.0000000000000000E+00
             0.0000000000000000E+00    0.0000000000000000E+00    0.0000000000000000E+00
             0.0000000000000000E+00    0.0000000000000000E+00    0.0000000000000000E+00
             0.0000000000000000E+00    0.0000000000000000E+00    0.0000000000000000E+00
             0.0000000000000000E+00    0.0000000000000000E+00    0.0000000000000000E+00
             0.0000000000000000E+00    0.0000000000000000E+00    0.0000000000000000E+00
             0.0000000000000000E+00    0.0000000000000000E+00    0.0000000000000000E+00
             0.0000000000000000E+00    0.0000000000000000E+00    0.0000000000000000E+00
             0.0000000000000000E+00    0.0000000000000000E+00    0.0000000000000000E+00
             0.0000000000000000E+00    0.0000000000000000E+00    0.0000000000000000E+00
             0.0000000000000000E+00    0.0000000000000000E+00    0.0000000000000000E+00
             0.0000000000000000E+00    0.0000000000000000E+00    0.0000000000000000E+00
             0.0000000000000000E+00    0.0000000000000000E+00    0.0000000000000000E+00
             0.0000000000000000E+00    0.0000000000000000E+00    0.0000000000000000E+00
             0.0000000000000000E+00    0.0000000000000000E+00    0.0000000000000000E+00
             0.0000000000000000E+00    0.0000000000000000E+00    0.0000000000000000E+00
             0.0000000000000000E+00    0.0000000000000000E+00    0.0000000000000000E+00
             0.0000000000000000E+00    0.0000000000000000E+00    0.0000000000000000E+00
             0.0000000000000000E+00    0.0000000000000000E+00    0.0000000000000000E+00
             0.0000000000000000E+00    0.0000000000000000E+00    0.0000000000000000E+00
             0.0000000000000000E+00    0.0000000000000000E+00    0.0000000000000000E+00
             0.0000000000000000E+00    0.0000000000000000E+00    0.0000000000000000E+00
             0.0000000000000000E+00    0.0000000000000000E+00    0.0000000000000000E+00
             0.0000000000000000E+00    0.0000000000000000E+00    0.0000000000000000E+00
             0.0000000000000000E+00    0.0000000000000000E+00    0.0000000000000000E+00
             0.0000000000000000E+00    0.0000000000000000E+00    0.0000000000000000E+00
             0.0000000000000000E+00    0.0000000000000000E+00    0.0000000000000000E+00
             0.0000000000000000E+00    0.0000000000000000E+00    0.0000000000000000E+00
             0.0000000000000000E+00    0.0000000000000000E+00    0.0000000000000000E+00
             0.0000000000000000E+00    0.0000000000000000E+00    0.0000000000000000E+00
             0.0000000000000000E+00    0.0000000000000000E+00    0.0000000000000000E+00
             0.0000000000000000E+00    0.0000000000000000E+00    0.0000000000000000E+00
             0.0000000000000000E+00    0.0000000000000000E+00    0.0000000000000000E+00
             0.0000000000000000E+00    0.0000000000000000E+00    0.0000000000000000E+00
             0.0000000000000000E+00    0.0000000000000000E+00    0.0000000000000000E+00
             0.0000000000000000E+00    0.0000000000000000E+00    0.0000000000000000E+00
             0.0000000000000000E+00    0.0000000000000000E+00    0.0000000000000000E+00
             0.0000000000000000E+00    0.0000000000000000E+00    0.0000000000000000E+00
             0.0000000000000000E+00    0.0000000000000000E+00    0.0000000000000000E+00
             0.0000000000000000E+00    0.0000000000000000E+00    0.0000000000000000E+00
             0.0000000000000000E+00    0.0000000000000000E+00    0.0000000000000000E+00
             0.0000000000000000E+00    0.0000000000000000E+00    0.0000000000000000E+00
             0.0000000000000000E+00    0.0000000000000000E+00    0.0000000000000000E+00
             0.0000000000000000E+00    0.0000000000000000E+00    0.0000000000000000E+00
             0.0000000000000000E+00    0.0000000000000000E+00    0.0000000000000000E+00
             0.0000000000000000E+00    0.0000000000000000E+00    0.0000000000000000E+00
             0.0000000000000000E+00    0.0000000000000000E+00    0.0000000000000000E+00
             0.0000000000000000E+00    0.0000000000000000E+00    0.0000000000000000E+00
             0.0000000000000000E+00    0.0000000000000000E+00    0.0000000000000000E+00
             0.0000000000000000E+00    0.0000000000000000E+00    0.0000000000000000E+00
             0.0000000000000000E+00    0.0000000000000000E+00    0.0000000000000000E+00
             0.0000000000000000E+00    0.0000000000000000E+00    0.0000000000000000E+00
             0.0000000000000000E+00    0.0000000000000000E+00    0.0000000000000000E+00
             0.0000000000000000E+00    0.0000000000000000E+00    0.0000000000000000E+00
             0.0000000000000000E+00    0.0000000000000000E+00    0.0000000000000000E+00
             0.0000000000000000E+00    0.0000000000000000E+00    0.0000000000000000E+00
             0.0000000000000000E+00    0.0000000000000000E+00    0.0000000000000000E+00
             0.0000000000000000E+00    0.0000000000000000E+00    0.0000000000000000E+00
             0.0000000000000000E+00    0.0000000000000000E+00    0.0000000000000000E+00
             0.0000000000000000E+00    0.0000000000000000E+00    0.0000000000000000E+00
             0.0000000000000000E+00    0.0000000000000000E+00    0.0000000000000000E+00
             0.0000000000000000E+00    0.0000000000000000E+00    0.0000000000000000E+00
             0.0000000000000000E+00    0.0000000000000000E+00    0.0000000000000000E+00
             0.0000000000000000E+00    0.0000000000000000E+00    0.0000000000000000E+00
             0.0000000000000000E+00    0.0000000000000000E+00    0.0000000000000000E+00
             0.0000000000000000E+00    0.0000000000000000E+00    0.0000000000000000E+00
             0.0000000000000000E+00    0.0000000000000000E+00    0.0000000000000000E+00
             0.0000000000000000E+00    0.0000000000000000E+00    0.0000000000000000E+00
             0.0000000000000000E+00    0.0000000000000000E+00    0.0000000000000000E+00
             0.0000000000000000E+00    0.0000000000000000E+00    0.0000000000000000E+00
             0.0000000000000000E+00    0.0000000000000000E+00    0.0000000000000000E+00
             0.0000000000000000E+00    0.0000000000000000E+00    0.0000000000000000E+00
             0.0000000000000000E+00    0.0000000000000000E+00    0.0000000000000000E+00
             0.0000000000000000E+00    0.0000000000000000E+00    0.0000000000000000E+00
             0.0000000000000000E+00    0.0000000000000000E+00    0.0000000000000000E+00
             0.0000000000000000E+00    0.0000000000000000E+00    0.0000000000000000E+00
             0.0000000000000000E+00    0.0000000000000000E+00    0.0000000000000000E+00
             0.0000000000000000E+00    0.0000000000000000E+00    0.0000000000000000E+00
             0.0000000000000000E+00    0.0000000000000000E+00    0.0000000000000000E+00
             0.0000000000000000E+00    0.0000000000000000E+00    0.0000000000000000E+00
             0.0000000000000000E+00    0.0000000000000000E+00    0.0000000000000000E+00
             0.0000000000000000E+00    0.0000000000000000E+00    0.0000000000000000E+00
             0.0000000000000000E+00    0.0000000000000000E+00    0.0000000000000000E+00
             0.0000000000000000E+00    0.0000000000000000E+00    0.0000000000000000E+00
             0.0000000000000000E+00    0.0000000000000000E+00    0.0000000000000000E+00
             0.0000000000000000E+00    0.0000000000000000E+00    0.0000000000000000E+00
             0.0000000000000000E+00    0.0000000000000000E+00    0.0000000000000000E+00
             0.0000000000000000E+00    0.0000000000000000E+00    0.0000000000000000E+00
             0.0000000000000000E+00    0.0000000000000000E+00    0.0000000000000000E+00
             0.0000000000000000E+00    0.0000000000000000E+00    0.0000000000000000E+00
             0.0000000000000000E+00    0.0000000000000000E+00    0.0000000000000000E+00
             0.0000000000000000E+00    0.0000000000000000E+00    0.0000000000000000E+00
             0.0000000000000000E+00    0.0000000000000000E+00    0.0000000000000000E+00
             0.0000000000000000E+00    0.0000000000000000E+00    0.0000000000000000E+00
             0.0000000000000000E+00    0.0000000000000000E+00    0.0000000000000000E+00
             0.0000000000000000E+00    0.0000000000000000E+00    0.0000000000000000E+00
             0.0000000000000000E+00    0.0000000000000000E+00    0.0000000000000000E+00
             0.0000000000000000E+00    0.0000000000000000E+00    0.0000000000000000E+00
             0.0000000000000000E+00    0.0000000000000000E+00    0.0000000000000000E+00
             0.0000000000000000E+00    0.0000000000000000E+00    0.0000000000000000E+00
             0.0000000000000000E+00    0.0000000000000000E+00    0.0000000000000000E+00
             0.0000000000000000E+00    0.0000000000000000E+00    0.0000000000000000E+00
             0.0000000000000000E+00    0.0000000000000000E+00    0.0000000000000000E+00
             0.0000000000000000E+00    0.0000000000000000E+00    0.0000000000000000E+00
             0.0000000000000000E+00    0.0000000000000000E+00    0.0000000000000000E+00
             0.0000000000000000E+00    0.0000000000000000E+00    0.0000000000000000E+00
             0.0000000000000000E+00    0.0000000000000000E+00    0.0000000000000000E+00
             0.0000000000000000E+00    0.0000000000000000E+00    0.0000000000000000E+00
             0.0000000000000000E+00    0.0000000000000000E+00    0.0000000000000000E+00
             0.0000000000000000E+00    0.0000000000000000E+00    0.0000000000000000E+00
             0.0000000000000000E+00    0.0000000000000000E+00    0.0000000000000000E+00