 # Version information for this restart file 
 # current date 2024-01-11 05:07:43.525
 # current working dir /gpfs/home/cahart/transport/melamine/au_from-h2/ci-neb/ts1/dft_leads-sz_tip-dzvp_surf-dzvp_kpoints-2-4-20_replicas-7
 # Program compiled at                              Thu 21 Sep 19:20:17 BST 2023
 # Program compiled on                                           hx1-c12-login-1
 # Program compiled for                                                    local
 # Source code revision number                                       git:5518aa6
 &GLOBAL
   EXTENDED_FFT_LENGTHS  T
   PRINT_LEVEL  MEDIUM
   PROJECT_NAME 2_dft_wfn-r-0
   OUTPUT_FILE_NAME 2_dft_wfn-r-0.out
   RUN_TYPE  BAND
 &END GLOBAL
 &MOTION
   &CONSTRAINT
     &FIXED_ATOMS
       LIST  1..93 104..183
     &END FIXED_ATOMS
   &END CONSTRAINT
   &BAND
     NPROC_REP  64
     BAND_TYPE  CI-NEB
     NUMBER_OF_REPLICA  7
     K_SPRING     5.0000000000000003E-02
     &CI_NEB
       NSTEPS_IT  5
     &END CI_NEB
     &OPTIMIZE_BAND
       OPT_TYPE  DIIS
       &DIIS
         MAX_STEPS  1000
       &END DIIS
     &END OPTIMIZE_BAND
     &REPLICA
       &COORD
             0.0000000000000000E+00    0.0000000000000000E+00    0.0000000000000000E+00
             0.0000000000000000E+00    2.9549999999999965E+00    0.0000000000000000E+00
             0.0000000000000000E+00    5.9109999999999943E+00    0.0000000000000000E+00
             2.9559999999999969E+00    0.0000000000000000E+00    0.0000000000000000E+00
             2.9559999999999969E+00    2.9549999999999965E+00    0.0000000000000000E+00
             2.9559999999999969E+00    5.9109999999999943E+00    0.0000000000000000E+00
             5.9119999999999937E+00    0.0000000000000000E+00    0.0000000000000000E+00
             5.9119999999999937E+00    2.9549999999999965E+00    0.0000000000000000E+00
             5.9119999999999937E+00    5.9109999999999943E+00    0.0000000000000000E+00
             8.6699999999999910E+00    0.0000000000000000E+00    0.0000000000000000E+00
             8.6699999999999910E+00    2.9549999999999965E+00    0.0000000000000000E+00
             8.6699999999999910E+00    5.9109999999999943E+00    0.0000000000000000E+00
             1.1625999999999985E+01    0.0000000000000000E+00    0.0000000000000000E+00
             1.1625999999999985E+01    2.9549999999999965E+00    0.0000000000000000E+00
             1.1625999999999985E+01    5.9109999999999943E+00    0.0000000000000000E+00
             1.4779999999999984E+00    1.4779999999999984E+00    2.0899999999999976E+00
             1.4779999999999984E+00    4.4329999999999954E+00    2.0899999999999976E+00
             1.4779999999999984E+00    7.3889999999999905E+00    2.0899999999999976E+00
             4.4339999999999948E+00    1.4779999999999984E+00    2.0899999999999976E+00
             4.4339999999999948E+00    4.4329999999999954E+00    2.0899999999999976E+00
             4.4339999999999948E+00    7.3889999999999905E+00    2.0899999999999976E+00
             7.1919999999999904E+00    1.4779999999999984E+00    2.0899999999999976E+00
             7.1919999999999904E+00    4.4329999999999954E+00    2.0899999999999976E+00
             7.1919999999999904E+00    7.3889999999999905E+00    2.0899999999999976E+00
             1.0147999999999987E+01    1.4779999999999984E+00    2.0899999999999976E+00
             1.0147999999999987E+01    4.4329999999999954E+00    2.0899999999999976E+00
             1.0147999999999987E+01    7.3889999999999905E+00    2.0899999999999976E+00
             1.3103999999999974E+01    1.4779999999999984E+00    2.0899999999999976E+00
             1.3103999999999974E+01    4.4329999999999954E+00    2.0899999999999976E+00
             1.3103999999999974E+01    7.3889999999999905E+00    2.0899999999999976E+00
             0.0000000000000000E+00    0.0000000000000000E+00    4.1799999999999953E+00
             0.0000000000000000E+00    2.9549999999999965E+00    4.1799999999999953E+00
             0.0000000000000000E+00    5.9109999999999943E+00    4.1799999999999953E+00
             2.9559999999999969E+00    0.0000000000000000E+00    4.1799999999999953E+00
             2.9559999999999969E+00    2.9549999999999965E+00    4.1799999999999953E+00
             2.9559999999999969E+00    5.9109999999999943E+00    4.1799999999999953E+00
             5.9119999999999937E+00    0.0000000000000000E+00    4.1799999999999953E+00
             5.9119999999999937E+00    2.9549999999999965E+00    4.1799999999999953E+00
             5.9119999999999937E+00    5.9109999999999943E+00    4.1799999999999953E+00
             8.6699999999999910E+00    0.0000000000000000E+00    4.1799999999999953E+00
             8.6699999999999910E+00    2.9549999999999965E+00    4.1799999999999953E+00
             8.6699999999999910E+00    5.9109999999999943E+00    4.1799999999999953E+00
             1.1625999999999985E+01    0.0000000000000000E+00    4.1799999999999953E+00
             1.1625999999999985E+01    2.9549999999999965E+00    4.1799999999999953E+00
             1.1625999999999985E+01    5.9109999999999943E+00    4.1799999999999953E+00
             1.4779999999999984E+00    1.4779999999999984E+00    6.2699999999999951E+00
             1.4779999999999984E+00    4.4329999999999954E+00    6.2699999999999951E+00
             1.4779999999999984E+00    7.3889999999999905E+00    6.2699999999999951E+00
             4.4339999999999948E+00    1.4779999999999984E+00    6.2699999999999951E+00
             4.4339999999999948E+00    4.4329999999999954E+00    6.2699999999999951E+00
             4.4339999999999948E+00    7.3889999999999905E+00    6.2699999999999951E+00
             7.1919999999999904E+00    1.4779999999999984E+00    6.2699999999999951E+00
             7.1919999999999904E+00    4.4329999999999954E+00    6.2699999999999951E+00
             7.1919999999999904E+00    7.3889999999999905E+00    6.2699999999999951E+00
             1.0147999999999987E+01    1.4779999999999984E+00    6.2699999999999951E+00
             1.0147999999999987E+01    4.4329999999999954E+00    6.2699999999999951E+00
             1.0147999999999987E+01    7.3889999999999905E+00    6.2699999999999951E+00
             1.3103999999999974E+01    1.4779999999999984E+00    6.2699999999999951E+00
             1.3103999999999974E+01    4.4329999999999954E+00    6.2699999999999951E+00
             1.3103999999999974E+01    7.3889999999999905E+00    6.2699999999999951E+00
             0.0000000000000000E+00    0.0000000000000000E+00    8.3599999999999905E+00
             0.0000000000000000E+00    2.9549999999999965E+00    8.3599999999999905E+00
             0.0000000000000000E+00    5.9109999999999943E+00    8.3599999999999905E+00
             2.9559999999999969E+00    0.0000000000000000E+00    8.3599999999999905E+00
             2.9559999999999969E+00    2.9549999999999965E+00    8.3599999999999905E+00
             2.9559999999999969E+00    5.9109999999999943E+00    8.3599999999999905E+00
             5.9119999999999937E+00    0.0000000000000000E+00    8.3599999999999905E+00
             5.9119999999999937E+00    2.9549999999999965E+00    8.3599999999999905E+00
             5.9119999999999937E+00    5.9109999999999943E+00    8.3599999999999905E+00
             8.6699999999999910E+00    0.0000000000000000E+00    8.3599999999999905E+00
             8.6699999999999910E+00    2.9549999999999965E+00    8.3599999999999905E+00
             8.6699999999999910E+00    5.9109999999999943E+00    8.3599999999999905E+00
             1.1625999999999985E+01    0.0000000000000000E+00    8.3599999999999905E+00
             1.1625999999999985E+01    2.9549999999999965E+00    8.3599999999999905E+00
             1.1625999999999985E+01    5.9109999999999943E+00    8.3599999999999905E+00
             1.4779999999999984E+00    1.4779999999999984E+00    1.0449999999999989E+01
             1.4779999999999984E+00    4.4329999999999954E+00    1.0449999999999989E+01
             1.4779999999999984E+00    7.3889999999999905E+00    1.0449999999999989E+01
             4.4339999999999948E+00    1.4779999999999984E+00    1.0449999999999989E+01
             4.4339999999999948E+00    4.4329999999999954E+00    1.0449999999999989E+01
             4.4339999999999948E+00    7.3889999999999905E+00    1.0449999999999989E+01
             7.1919999999999904E+00    1.4779999999999984E+00    1.0449999999999989E+01
             7.1919999999999904E+00    4.4329999999999954E+00    1.0449999999999989E+01
             7.1919999999999904E+00    7.3889999999999905E+00    1.0449999999999989E+01
             1.0147999999999987E+01    1.4779999999999984E+00    1.0449999999999989E+01
             1.0147999999999987E+01    4.4329999999999954E+00    1.0449999999999989E+01
             1.0147999999999987E+01    7.3889999999999905E+00    1.0449999999999989E+01
             1.3103999999999974E+01    1.4779999999999984E+00    1.0449999999999989E+01
             1.3103999999999974E+01    4.4329999999999954E+00    1.0449999999999989E+01
             1.3103999999999974E+01    7.3889999999999905E+00    1.0449999999999989E+01
             4.8553999999999951E+00    5.9118999999999930E+00    1.2031799999999992E+01
             9.5279999999999863E+00    5.9136999999999915E+00    1.2033999999999985E+01
             7.1919999999999904E+00    5.9339999999999939E+00    1.2039999999999985E+01
             4.0750319167999960E+00    5.9049488169999940E+00    1.2696844061799993E+01
             1.0293988349499983E+01    5.9062142778999984E+00    1.2716532694499984E+01
             6.0099999685999901E+00    5.9120523852999947E+00    1.2765819797399987E+01
             8.3750478947999873E+00    5.9129627334999926E+00    1.2760746495899978E+01
             5.9788500868999952E+00    5.8882515164999898E+00    1.4094239568499987E+01
             8.4047327064999902E+00    5.8893877815999938E+00    1.4094060897199988E+01
             7.1943473362999955E+00    5.8799164376999959E+00    1.4701118490299978E+01
             7.1912293096999926E+00    5.8521058220999951E+00    1.6050622658199977E+01
             6.3086348446999905E+00    5.8615539360999938E+00    1.6548439364999982E+01
             8.0709262664999990E+00    5.8621389353999929E+00    1.6553588809699978E+01
             7.3119999999999932E+00    5.9339999999999939E+00    2.1042999999999978E+01
             5.8129999999999926E+00    7.4339999999999886E+00    2.2991999999999990E+01
             8.8129999999999935E+00    4.4339999999999948E+00    2.2991999999999990E+01
             5.8129999999999926E+00    4.4329999999999954E+00    2.2991999999999990E+01
             8.8129999999999935E+00    7.4339999999999886E+00    2.2991999999999990E+01
             1.4779999999999984E+00    1.4779999999999984E+00    2.5081999999999976E+01
             1.4779999999999984E+00    4.4329999999999954E+00    2.5081999999999976E+01
             1.4779999999999984E+00    7.3889999999999905E+00    2.5081999999999976E+01
             4.4339999999999948E+00    1.4779999999999984E+00    2.5081999999999976E+01
             4.4339999999999948E+00    4.4329999999999954E+00    2.5081999999999976E+01
             4.4339999999999948E+00    7.3889999999999905E+00    2.5081999999999976E+01
             7.1919999999999904E+00    1.4779999999999984E+00    2.5081999999999976E+01
             7.1919999999999904E+00    4.4329999999999954E+00    2.5081999999999976E+01
             7.1919999999999904E+00    7.3889999999999905E+00    2.5081999999999976E+01
             1.0147999999999987E+01    1.4779999999999984E+00    2.5081999999999976E+01
             1.0147999999999987E+01    4.4329999999999954E+00    2.5081999999999976E+01
             1.0147999999999987E+01    7.3889999999999905E+00    2.5081999999999976E+01
             1.3103999999999974E+01    1.4779999999999984E+00    2.5081999999999976E+01
             1.3103999999999974E+01    4.4329999999999954E+00    2.5081999999999976E+01
             1.3103999999999974E+01    7.3889999999999905E+00    2.5081999999999976E+01
             0.0000000000000000E+00    0.0000000000000000E+00    2.7171999999999965E+01
             0.0000000000000000E+00    2.9549999999999965E+00    2.7171999999999965E+01
             0.0000000000000000E+00    5.9109999999999943E+00    2.7171999999999965E+01
             2.9559999999999969E+00    0.0000000000000000E+00    2.7171999999999965E+01
             2.9559999999999969E+00    2.9549999999999965E+00    2.7171999999999965E+01
             2.9559999999999969E+00    5.9109999999999943E+00    2.7171999999999965E+01
             5.9119999999999937E+00    0.0000000000000000E+00    2.7171999999999965E+01
             5.9119999999999937E+00    2.9549999999999965E+00    2.7171999999999965E+01
             5.9119999999999937E+00    5.9109999999999943E+00    2.7171999999999965E+01
             8.6699999999999910E+00    0.0000000000000000E+00    2.7171999999999965E+01
             8.6699999999999910E+00    2.9549999999999965E+00    2.7171999999999965E+01
             8.6699999999999910E+00    5.9109999999999943E+00    2.7171999999999965E+01
             1.1625999999999985E+01    0.0000000000000000E+00    2.7171999999999965E+01
             1.1625999999999985E+01    2.9549999999999965E+00    2.7171999999999965E+01
             1.1625999999999985E+01    5.9109999999999943E+00    2.7171999999999965E+01
             1.4779999999999984E+00    1.4779999999999984E+00    2.9261999999999958E+01
             1.4779999999999984E+00    4.4329999999999954E+00    2.9261999999999958E+01
             1.4779999999999984E+00    7.3889999999999905E+00    2.9261999999999958E+01
             4.4339999999999948E+00    1.4779999999999984E+00    2.9261999999999958E+01
             4.4339999999999948E+00    4.4329999999999954E+00    2.9261999999999958E+01
             4.4339999999999948E+00    7.3889999999999905E+00    2.9261999999999958E+01
             7.1919999999999904E+00    1.4779999999999984E+00    2.9261999999999958E+01
             7.1919999999999904E+00    4.4329999999999954E+00    2.9261999999999958E+01
             7.1919999999999904E+00    7.3889999999999905E+00    2.9261999999999958E+01
             1.0147999999999987E+01    1.4779999999999984E+00    2.9261999999999958E+01
             1.0147999999999987E+01    4.4329999999999954E+00    2.9261999999999958E+01
             1.0147999999999987E+01    7.3889999999999905E+00    2.9261999999999958E+01
             1.3103999999999974E+01    1.4779999999999984E+00    2.9261999999999958E+01
             1.3103999999999974E+01    4.4329999999999954E+00    2.9261999999999958E+01
             1.3103999999999974E+01    7.3889999999999905E+00    2.9261999999999958E+01
             0.0000000000000000E+00    0.0000000000000000E+00    3.1351999999999968E+01
             0.0000000000000000E+00    2.9549999999999965E+00    3.1351999999999968E+01
             0.0000000000000000E+00    5.9109999999999943E+00    3.1351999999999968E+01
             2.9559999999999969E+00    0.0000000000000000E+00    3.1351999999999968E+01
             2.9559999999999969E+00    2.9549999999999965E+00    3.1351999999999968E+01
             2.9559999999999969E+00    5.9109999999999943E+00    3.1351999999999968E+01
             5.9119999999999937E+00    0.0000000000000000E+00    3.1351999999999968E+01
             5.9119999999999937E+00    2.9549999999999965E+00    3.1351999999999968E+01
             5.9119999999999937E+00    5.9109999999999943E+00    3.1351999999999968E+01
             8.6699999999999910E+00    0.0000000000000000E+00    3.1351999999999968E+01
             8.6699999999999910E+00    2.9549999999999965E+00    3.1351999999999968E+01
             8.6699999999999910E+00    5.9109999999999943E+00    3.1351999999999968E+01
             1.1625999999999985E+01    0.0000000000000000E+00    3.1351999999999968E+01
             1.1625999999999985E+01    2.9549999999999965E+00    3.1351999999999968E+01
             1.1625999999999985E+01    5.9109999999999943E+00    3.1351999999999968E+01
             1.4779999999999984E+00    1.4779999999999984E+00    3.3441999999999965E+01
             1.4779999999999984E+00    4.4329999999999954E+00    3.3441999999999965E+01
             1.4779999999999984E+00    7.3889999999999905E+00    3.3441999999999965E+01
             4.4339999999999948E+00    1.4779999999999984E+00    3.3441999999999965E+01
             4.4339999999999948E+00    4.4329999999999954E+00    3.3441999999999965E+01
             4.4339999999999948E+00    7.3889999999999905E+00    3.3441999999999965E+01
             7.1919999999999904E+00    1.4779999999999984E+00    3.3441999999999965E+01
             7.1919999999999904E+00    4.4329999999999954E+00    3.3441999999999965E+01
             7.1919999999999904E+00    7.3889999999999905E+00    3.3441999999999965E+01
             1.0147999999999987E+01    1.4779999999999984E+00    3.3441999999999965E+01
             1.0147999999999987E+01    4.4329999999999954E+00    3.3441999999999965E+01
             1.0147999999999987E+01    7.3889999999999905E+00    3.3441999999999965E+01
             1.3103999999999974E+01    1.4779999999999984E+00    3.3441999999999965E+01
             1.3103999999999974E+01    4.4329999999999954E+00    3.3441999999999965E+01
             1.3103999999999974E+01    7.3889999999999905E+00    3.3441999999999965E+01
       &END COORD
       &VELOCITY
             0.0000000000000000E+00    0.0000000000000000E+00    0.0000000000000000E+00
             0.0000000000000000E+00    0.0000000000000000E+00    0.0000000000000000E+00
             0.0000000000000000E+00    0.0000000000000000E+00    0.0000000000000000E+00
             0.0000000000000000E+00    0.0000000000000000E+00    0.0000000000000000E+00
             0.0000000000000000E+00    0.0000000000000000E+00    0.0000000000000000E+00
             0.0000000000000000E+00    0.0000000000000000E+00    0.0000000000000000E+00
             0.0000000000000000E+00    0.0000000000000000E+00    0.0000000000000000E+00
             0.0000000000000000E+00    0.0000000000000000E+00    0.0000000000000000E+00
             0.0000000000000000E+00    0.0000000000000000E+00    0.0000000000000000E+00
             0.0000000000000000E+00    0.0000000000000000E+00    0.0000000000000000E+00
             0.0000000000000000E+00    0.0000000000000000E+00    0.0000000000000000E+00
             0.0000000000000000E+00    0.0000000000000000E+00    0.0000000000000000E+00
             0.0000000000000000E+00    0.0000000000000000E+00    0.0000000000000000E+00
             0.0000000000000000E+00    0.0000000000000000E+00    0.0000000000000000E+00
             0.0000000000000000E+00    0.0000000000000000E+00    0.0000000000000000E+00
             0.0000000000000000E+00    0.0000000000000000E+00    0.0000000000000000E+00
             0.0000000000000000E+00    0.0000000000000000E+00    0.0000000000000000E+00
             0.0000000000000000E+00    0.0000000000000000E+00    0.0000000000000000E+00
             0.0000000000000000E+00    0.0000000000000000E+00    0.0000000000000000E+00
             0.0000000000000000E+00    0.0000000000000000E+00    0.0000000000000000E+00
             0.0000000000000000E+00    0.0000000000000000E+00    0.0000000000000000E+00
             0.0000000000000000E+00    0.0000000000000000E+00    0.0000000000000000E+00
             0.0000000000000000E+00    0.0000000000000000E+00    0.0000000000000000E+00
             0.0000000000000000E+00    0.0000000000000000E+00    0.0000000000000000E+00
             0.0000000000000000E+00    0.0000000000000000E+00    0.0000000000000000E+00
             0.0000000000000000E+00    0.0000000000000000E+00    0.0000000000000000E+00
             0.0000000000000000E+00    0.0000000000000000E+00    0.0000000000000000E+00
             0.0000000000000000E+00    0.0000000000000000E+00    0.0000000000000000E+00
             0.0000000000000000E+00    0.0000000000000000E+00    0.0000000000000000E+00
             0.0000000000000000E+00    0.0000000000000000E+00    0.0000000000000000E+00
             0.0000000000000000E+00    0.0000000000000000E+00    0.0000000000000000E+00
             0.0000000000000000E+00    0.0000000000000000E+00    0.0000000000000000E+00
             0.0000000000000000E+00    0.0000000000000000E+00    0.0000000000000000E+00
             0.0000000000000000E+00    0.0000000000000000E+00    0.0000000000000000E+00
             0.0000000000000000E+00    0.0000000000000000E+00    0.0000000000000000E+00
             0.0000000000000000E+00    0.0000000000000000E+00    0.0000000000000000E+00
             0.0000000000000000E+00    0.0000000000000000E+00    0.0000000000000000E+00
             0.0000000000000000E+00    0.0000000000000000E+00    0.0000000000000000E+00
             0.0000000000000000E+00    0.0000000000000000E+00    0.0000000000000000E+00
             0.0000000000000000E+00    0.0000000000000000E+00    0.0000000000000000E+00
             0.0000000000000000E+00    0.0000000000000000E+00    0.0000000000000000E+00
             0.0000000000000000E+00    0.0000000000000000E+00    0.0000000000000000E+00
             0.0000000000000000E+00    0.0000000000000000E+00    0.0000000000000000E+00
             0.0000000000000000E+00    0.0000000000000000E+00    0.0000000000000000E+00
             0.0000000000000000E+00    0.0000000000000000E+00    0.0000000000000000E+00
             0.0000000000000000E+00    0.0000000000000000E+00    0.0000000000000000E+00
             0.0000000000000000E+00    0.0000000000000000E+00    0.0000000000000000E+00
             0.0000000000000000E+00    0.0000000000000000E+00    0.0000000000000000E+00
             0.0000000000000000E+00    0.0000000000000000E+00    0.0000000000000000E+00
             0.0000000000000000E+00    0.0000000000000000E+00    0.0000000000000000E+00
             0.0000000000000000E+00    0.0000000000000000E+00    0.0000000000000000E+00
             0.0000000000000000E+00    0.0000000000000000E+00    0.0000000000000000E+00
             0.0000000000000000E+00    0.0000000000000000E+00    0.0000000000000000E+00
             0.0000000000000000E+00    0.0000000000000000E+00    0.0000000000000000E+00
             0.0000000000000000E+00    0.0000000000000000E+00    0.0000000000000000E+00
             0.0000000000000000E+00    0.0000000000000000E+00    0.0000000000000000E+00
             0.0000000000000000E+00    0.0000000000000000E+00    0.0000000000000000E+00
             0.0000000000000000E+00    0.0000000000000000E+00    0.0000000000000000E+00
             0.0000000000000000E+00    0.0000000000000000E+00    0.0000000000000000E+00
             0.0000000000000000E+00    0.0000000000000000E+00    0.0000000000000000E+00
             0.0000000000000000E+00    0.0000000000000000E+00    0.0000000000000000E+00
             0.0000000000000000E+00    0.0000000000000000E+00    0.0000000000000000E+00
             0.0000000000000000E+00    0.0000000000000000E+00    0.0000000000000000E+00
             0.0000000000000000E+00    0.0000000000000000E+00    0.0000000000000000E+00
             0.0000000000000000E+00    0.0000000000000000E+00    0.0000000000000000E+00
             0.0000000000000000E+00    0.0000000000000000E+00    0.0000000000000000E+00
             0.0000000000000000E+00    0.0000000000000000E+00    0.0000000000000000E+00
             0.0000000000000000E+00    0.0000000000000000E+00    0.0000000000000000E+00
             0.0000000000000000E+00    0.0000000000000000E+00    0.0000000000000000E+00
             0.0000000000000000E+00    0.0000000000000000E+00    0.0000000000000000E+00
             0.0000000000000000E+00    0.0000000000000000E+00    0.0000000000000000E+00
             0.0000000000000000E+00    0.0000000000000000E+00    0.0000000000000000E+00
             0.0000000000000000E+00    0.0000000000000000E+00    0.0000000000000000E+00
             0.0000000000000000E+00    0.0000000000000000E+00    0.0000000000000000E+00
             0.0000000000000000E+00    0.0000000000000000E+00    0.0000000000000000E+00
             0.0000000000000000E+00    0.0000000000000000E+00    0.0000000000000000E+00
             0.0000000000000000E+00    0.0000000000000000E+00    0.0000000000000000E+00
             0.0000000000000000E+00    0.0000000000000000E+00    0.0000000000000000E+00
             0.0000000000000000E+00    0.0000000000000000E+00    0.0000000000000000E+00
             0.0000000000000000E+00    0.0000000000000000E+00    0.0000000000000000E+00
             0.0000000000000000E+00    0.0000000000000000E+00    0.0000000000000000E+00
             0.0000000000000000E+00    0.0000000000000000E+00    0.0000000000000000E+00
             0.0000000000000000E+00    0.0000000000000000E+00    0.0000000000000000E+00
             0.0000000000000000E+00    0.0000000000000000E+00    0.0000000000000000E+00
             0.0000000000000000E+00    0.0000000000000000E+00    0.0000000000000000E+00
             0.0000000000000000E+00    0.0000000000000000E+00    0.0000000000000000E+00
             0.0000000000000000E+00    0.0000000000000000E+00    0.0000000000000000E+00
             0.0000000000000000E+00    0.0000000000000000E+00    0.0000000000000000E+00
             0.0000000000000000E+00    0.0000000000000000E+00    0.0000000000000000E+00
             0.0000000000000000E+00    0.0000000000000000E+00    0.0000000000000000E+00
             0.0000000000000000E+00    0.0000000000000000E+00    0.0000000000000000E+00
             0.0000000000000000E+00    0.0000000000000000E+00    0.0000000000000000E+00
             0.0000000000000000E+00    0.0000000000000000E+00    0.0000000000000000E+00
             0.0000000000000000E+00    0.0000000000000000E+00    0.0000000000000000E+00
             0.0000000000000000E+00    0.0000000000000000E+00    0.0000000000000000E+00
             0.0000000000000000E+00    0.0000000000000000E+00    0.0000000000000000E+00
             0.0000000000000000E+00    0.0000000000000000E+00    0.0000000000000000E+00
             0.0000000000000000E+00    0.0000000000000000E+00    0.0000000000000000E+00
             0.0000000000000000E+00    0.0000000000000000E+00    0.0000000000000000E+00
             0.0000000000000000E+00    0.0000000000000000E+00    0.0000000000000000E+00
             0.0000000000000000E+00    0.0000000000000000E+00    0.0000000000000000E+00
             0.0000000000000000E+00    0.0000000000000000E+00    0.0000000000000000E+00
             0.0000000000000000E+00    0.0000000000000000E+00    0.0000000000000000E+00
             0.0000000000000000E+00    0.0000000000000000E+00    0.0000000000000000E+00
             0.0000000000000000E+00    0.0000000000000000E+00    0.0000000000000000E+00
             0.0000000000000000E+00    0.0000000000000000E+00    0.0000000000000000E+00
             0.0000000000000000E+00    0.0000000000000000E+00    0.0000000000000000E+00
             0.0000000000000000E+00    0.0000000000000000E+00    0.0000000000000000E+00
             0.0000000000000000E+00    0.0000000000000000E+00    0.0000000000000000E+00
             0.0000000000000000E+00    0.0000000000000000E+00    0.0000000000000000E+00
             0.0000000000000000E+00    0.0000000000000000E+00    0.0000000000000000E+00
             0.0000000000000000E+00    0.0000000000000000E+00    0.0000000000000000E+00
             0.0000000000000000E+00    0.0000000000000000E+00    0.0000000000000000E+00
             0.0000000000000000E+00    0.0000000000000000E+00    0.0000000000000000E+00
             0.0000000000000000E+00    0.0000000000000000E+00    0.0000000000000000E+00
             0.0000000000000000E+00    0.0000000000000000E+00    0.0000000000000000E+00
             0.0000000000000000E+00    0.0000000000000000E+00    0.0000000000000000E+00
             0.0000000000000000E+00    0.0000000000000000E+00    0.0000000000000000E+00
             0.0000000000000000E+00    0.0000000000000000E+00    0.0000000000000000E+00
             0.0000000000000000E+00    0.0000000000000000E+00    0.0000000000000000E+00
             0.0000000000000000E+00    0.0000000000000000E+00    0.0000000000000000E+00
             0.0000000000000000E+00    0.0000000000000000E+00    0.0000000000000000E+00
             0.0000000000000000E+00    0.0000000000000000E+00    0.0000000000000000E+00
             0.0000000000000000E+00    0.0000000000000000E+00    0.0000000000000000E+00
             0.0000000000000000E+00    0.0000000000000000E+00    0.0000000000000000E+00
             0.0000000000000000E+00    0.0000000000000000E+00    0.0000000000000000E+00
             0.0000000000000000E+00    0.0000000000000000E+00    0.0000000000000000E+00
             0.0000000000000000E+00    0.0000000000000000E+00    0.0000000000000000E+00
             0.0000000000000000E+00    0.0000000000000000E+00    0.0000000000000000E+00
             0.0000000000000000E+00    0.0000000000000000E+00    0.0000000000000000E+00
             0.0000000000000000E+00    0.0000000000000000E+00    0.0000000000000000E+00
             0.0000000000000000E+00    0.0000000000000000E+00    0.0000000000000000E+00
             0.0000000000000000E+00    0.0000000000000000E+00    0.0000000000000000E+00
             0.0000000000000000E+00    0.0000000000000000E+00    0.0000000000000000E+00
             0.0000000000000000E+00    0.0000000000000000E+00    0.0000000000000000E+00
             0.0000000000000000E+00    0.0000000000000000E+00    0.0000000000000000E+00
             0.0000000000000000E+00    0.0000000000000000E+00    0.0000000000000000E+00
             0.0000000000000000E+00    0.0000000000000000E+00    0.0000000000000000E+00
             0.0000000000000000E+00    0.0000000000000000E+00    0.0000000000000000E+00
             0.0000000000000000E+00    0.0000000000000000E+00    0.0000000000000000E+00
             0.0000000000000000E+00    0.0000000000000000E+00    0.0000000000000000E+00
             0.0000000000000000E+00    0.0000000000000000E+00    0.0000000000000000E+00
             0.0000000000000000E+00    0.0000000000000000E+00    0.0000000000000000E+00
             0.0000000000000000E+00    0.0000000000000000E+00    0.0000000000000000E+00