Siesta Version: ismeagol.1.0
Architecture  : thomas-intel2017update1-intelmpi-mkl
Compiler flags: mpif90 -O2 -fPIC -g -ftree-vectorize -xHost
PARALLEL version

* Running on    2 nodes in parallel
>> Start of run:  30-OCT-2023  17:38:50

                           ***********************       
                           *  WELCOME TO SIESTA  *       
                           ***********************       

reinit: Reading from standard input
************************** Dump of input data file ****************************
SystemName		     au-chain_szv_shiftx_dftenergy		# Descriptive name of the system
SystemLabel 			au-chain_szv_shiftx_dftenergy		# Short name for naming files
NumberOfAtoms    9
NumberOfSpecies			1               # Number of species
PAO.BasisType			split		
%block ChemicalSpeciesLabel
1 79 Au
%endblock ChemicalSpeciesLabel
%block PAO.Basis
  Au  2
n=6  0  1
6.500
1.00
n=5  2  1
5.850
1.00
%endblock PAO.Basis
%block PS.lmax
 Au   3
%endblock PS.lmax
LatticeConstant 1.000 Ang
%block LatticeVectors
  8.4    0.000   0.000    1
  0.000   8.4     0.000   1
  0.000   0.000     25.2 1
%endblock LatticeVectors
AtomicCoordinatesFormat Ang
%block AtomicCoordinatesAndAtomicSpecies
0.0 0.0 0.0 1 Au
0.0 0.0 2.8 1 Au
0.0 0.0 5.6 1 Au
0.0 0.0 8.4 1 Au
1.0 0.0 11.2 1 Au
0.0 0.0 14.0 1 Au
0.0 0.0 16.8 1 Au
0.0 0.0 19.6 1 Au
0.0 0.0 22.4 1 Au
%endblock AtomicCoordinatesAndAtomicSpecies
%block GeometryConstraints
   position   from  1 to 3
   position   from  7 to 9
%endblock GeometryConstraints
%block kgrid_Monkhorst_Pack
  2   0   0     0.0
  0   2   0     0.0
  0   0   1     0.0
%endblock kgrid_Monkhorst_Pack
xc.functional		LDA		# 'LDA', 'GGA'
xc.authors 	 		CA		# 'CA'='PZ', 'PW92', 'PBE'
SpinPolarized			F		# 'T', 'F'		
#FixSpin           F
#TotalSpin        0.0
NonCollinearSpin		F		# 'T', 'F'
MeshCutoff 	 		    200 Ry		# Equivalent plane wave cutoff for the grid
MaxSCFIterations                10000                2                10000                10000		10000
DM.MixingWeight			0.1
DM.NumberPulay			4	# Pulay convergency accelerator
DM.MixSCF1			    T
MixHamiltonian      T
DM.PulayOnFile			F		# Store in memory ('F') or in files ('T')
#DM.NumberKick         30
#DM.KickMixingWeight   0.1
DM.Tolerance 		1.0E-4
NeglNonOverlapInt		F		# 'F'=do not neglect
SolutionMethod			diagon
ElectronicTemperature		300 K		# Default value
DM.UseSaveDM 			T
#MD.UseSaveXV			T
#MD.UseSaveCG			T
WriteForces      T
WriteCoorXmol			T		# Write Atoms coordinates
SaveElectrostaticPotential      T
#SaveHS				T		# Save the Hamiltonian and Overlap matrices
SaveRho				T		# Save the valence pseudocharge density
#SaveDeltaRho			T
#WriteDenchar			T		# Write Denchar output
WriteMullikenPop		0 #write mulliken population of aromic and orbital charges
************************** End of input data file *****************************

reinit: -----------------------------------------------------------------------
reinit: System Name: au-chain_szv_shiftx_dftenergy
reinit: -----------------------------------------------------------------------
reinit: System Label: au-chain_szv_shiftx_dftenergy                               
reinit: -----------------------------------------------------------------------

initatom: Reading input for the pseudopotentials and atomic orbitals ----------
 Species number:            1  Label: Au Atomic number:          79
Ground state valence configuration:   6s01  5d10
Reading pseudopotential information in formatted form from Au.psf

Pseudopotential generated from a relativistic atomic calculation
There are spin-orbit pseudopotentials available
Spin-orbit interaction is not included in this calculation

Valence configuration for pseudopotential generation:
6s( 1.00) rc: 2.18
6p( 0.00) rc: 2.47
5d(10.00) rc: 1.79
5f( 0.00) rc: 2.00
relmxkb: Read Max KB Ang. Momentum=    3 for species Au
 Warning: Empty PAO shell. l =           1
 Will have a KB projector anyway...

<basis_specs>
===============================================================================
Au                   Z=  79    Mass=  196.97        Charge= 0.17977+309
Lmxo=2 Lmxkb= 3    BasisType=split      Semic=F
L=0  Nsemic=0  Cnfigmx=6
          n=1  nzeta=1  polorb=0
            splnorm:   0.15000    
               vcte:    0.0000    
               rinn:    0.0000    
                rcs:    6.5000    
            lambdas:    1.0000    
L=1  Nsemic=0  Cnfigmx=6
L=2  Nsemic=0  Cnfigmx=5
          n=1  nzeta=1  polorb=0
            splnorm:   0.15000    
               vcte:    0.0000    
               rinn:    0.0000    
                rcs:    5.8500    
            lambdas:    1.0000    
-------------------------------------------------------------------------------
L=0  Nkbl=1  erefs: 0.17977+309
L=1  Nkbl=1  erefs: 0.17977+309
L=2  Nkbl=1  erefs: 0.17977+309
L=3  Nkbl=1  erefs: 0.17977+309
===============================================================================
</basis_specs>

atom: Called for Au                    (Z =  79)

read_vps: Pseudopotential generation method:
read_vps: ATM3      Troullier-Martins                       
Total valence charge:   11.00000

read_vps: Pseudopotential includes a core correction:
read_vps: Pseudo-core for xc-correction

xc_check: Exchange-correlation functional:
xc_check: Ceperley-Alder
V l=0 = -2*Zval/r beyond r=  2.9833
V l=1 = -2*Zval/r beyond r=  2.9833
V l=2 = -2*Zval/r beyond r=  2.9833
V l=3 = -2*Zval/r beyond r=  2.9833
All V_l potentials equal beyond r=  2.4425
This should be close to max(r_c) in ps generation
All pots = -2*Zval/r beyond r=  2.9833

VLOCAL1: 99.0% of the norm of Vloc inside      7.276 Ry
VLOCAL1: 99.9% of the norm of Vloc inside     16.582 Ry
atom: Maximum radius for 4*pi*r*r*local-pseudopot. charge    2.94627
atom: Maximum radius for r*vlocal+2*Zval:    2.60007
GHOST: No ghost state for L =  0
GHOST: No ghost state for L =  1
GHOST: No ghost state for L =  2
GHOST: No ghost state for L =  3

KBgen: Kleinman-Bylander projectors: 
   l= 0   rc=  3.175745   el= -0.445638   Ekb=  5.072790   kbcos=  0.276607
   l= 1   rc=  3.256140   el= -0.066324   Ekb=  2.703235   kbcos=  0.227171
   l= 2   rc=  3.020861   el= -0.526103   Ekb= -4.704026   kbcos= -0.643795
   l= 3   rc=  3.466145   el=  0.003438   Ekb= -2.516122   kbcos= -0.010529

KBgen: Total number of  Kleinman-Bylander projectors:   16
atom: -------------------------------------------------------------------------

atom: SANKEY-TYPE ORBITALS:

SPLIT: Orbitals with angular momentum L= 0

SPLIT: Basis orbitals for state 6s

   izeta = 1
                 lambda =    1.000000
                     rc =    6.557093
                 energy =   -0.435455
                kinetic =    0.389259
    potential(screened) =   -0.824714
       potential(ionic) =   -8.467175

SPLIT: Orbitals with angular momentum L= 2

SPLIT: Basis orbitals for state 5d

   izeta = 1
                 lambda =    1.000000
                     rc =    5.933100
                 energy =   -0.524775
                kinetic =    4.913203
    potential(screened) =   -5.437978
       potential(ionic) =  -15.883506
atom: Total number of Sankey-type orbitals:  6

atm_pop: Valence configuration (for local Pseudopot. screening):
 6s( 1.00)                                                            
 6p( 0.00)                                                            
 5d(10.00)                                                            
Vna: chval, zval:   11.00000  11.00000

Vna:  Cut-off radius for the neutral-atom potential:   6.557093
comcore: Pseudo-core radius Rcore=  4.027091

atom: _________________________________________________________________________

prinput: Basis input ----------------------------------------------------------

PAO.BasisType split     

%block ChemicalSpeciesLabel
    1   79 Au                      # Species index, atomic number, species label
%endblock ChemicalSpeciesLabel

%block PAO.Basis                 # Define Basis set
Au                    2                    # Species label, number of l-shells
 n=6   0   1                         # n, l, Nzeta 
   6.557   
   1.000   
 n=5   2   1                         # n, l, Nzeta 
   5.933   
   1.000   
%endblock PAO.Basis

prinput: ----------------------------------------------------------------------

coor:   Atomic-coordinates input format  =     Cartesian coordinates
coor:                                          (in Angstroms)

siesta: Atomic coordinates (Bohr) and species
siesta:      0.00000   0.00000   0.00000  1        1
siesta:      0.00000   0.00000   5.29124  1        2
siesta:      0.00000   0.00000  10.58247  1        3
siesta:      0.00000   0.00000  15.87371  1        4
siesta:      1.88973   0.00000  21.16494  1        5
siesta:      0.00000   0.00000  26.45618  1        6
siesta:      0.00000   0.00000  31.74741  1        7
siesta:      0.00000   0.00000  37.03865  1        8
siesta:      0.00000   0.00000  42.32988  1        9

siesta: System type = chain     

initatomlists: Number of atoms, orbitals, and projectors:      9    54   144

SMEAGOL: ******************* SMEAGOL Simulation parameters ********************
SMEAGOL:
SMEAGOL:       The following are some of the SMEAGOL parameters of the
SMEAGOL:       simulation. A complete list of the parameters used,
SMEAGOL:       including default values, can be found in file fdf.log.
SMEAGOL:
redata: Transport in extended molecule                =      F
redata: # of points in real energy axis integral      =   6000
redata: # of contour points in semi-circle            =     34
redata: # of contour points in line region            =     20
redata: # of poles in the Fermi function              =      5
redata: Initial value of the bias potential           =      0.0000 Ry
redata: Final value of the bias potential             =      0.1000 Ry
redata: # of bias potential points                    =     10
redata: Small imaginary part                          =      0.00010
redata: Lower bound for the contour integral          =     -5.0000 Ry
redata: 1 = Leads with different spin                 =      0
redata: Atom of the lead where bias slope starts      =      1
redata: Atom of the lead where bias slope ends        =      9
redata: # of bulk slices to include in EM             =      1
redata: Calculate transmission coefficients           =      F
redata: Set bulk transversal cell                     =      F
redata: Bulk transversal cell size                    =      3
redata: Write leads H and S matrices at .HSL          =      F
redata: Init transport                                =      F
redata: Force super cell in z direction = 3           =      F
redata: Calculated electronic structure for           =     LR
redata: Write converged DM (at bias/MD selected step) =      F
redata: Hartree Leads Left                            =      0.0000 Bohr
redata: Hartree Leads Right                           =      0.0000 Bohr
redata: Hartree Leads Bottom                          =      0.0000 Ry
redata: Periodic leads in perpendicular directions    =      F
redata: Thresholds at generalized SVD                 =      0.000000001000
redata: Write .orb, .ef and .gHS files                =      F
redata: Write .onlyS files                            =      F
redata: Electron-phonon interaction                   =      F
redata: Invert only central region    =      F
redata: Calculate Forces    =      F
redata: ***********************************************************************

siesta: ******************** SIESTA Simulation parameters *********************
siesta:
siesta:       The following are some of the SIESTA parameters of the
siesta:       simulation. A complete list of the parameters used,
siesta:       including default values, can be found in file fdf.log.
siesta:
redata: Non-Collinear-spin run             =       F
redata: SpinPolarized (Up/Down) run        =       F
redata: Number of spin components          =       1
redata: Long output                        =       F
redata: Number of Atomic Species           =       1
redata: Charge density info will appear in .RHO file
redata: Write Mulliken Pop.                =      NO
redata: Mesh Cutoff                        =     200.0000  Ry
redata: Net charge of the system           =       0.0000 |e|
redata: Max. number of SCF Iter            =   10000
redata: Performing Pulay mixing using      =       4 iterations
redata: Mix DM in first SCF step ?         =       T
redata: Write Pulay info on disk?          =       F
redata: Discard 1st Pulay DM after kick    =       F
redata: New DM Mixing Weight               =       0.1000
redata: New DM Occupancy tolerance         =       0.000000000001
redata: No kicks to SCF
redata: DM Mixing Weight for Kicks         =       0.5000
redata: DM Tolerance for SCF               =       0.000100
redata: Require Energy convergence for SCF =       F
redata: DM Energy tolerance for SCF        =       0.000100 eV
redata: Require Harris convergence for SCF =       F
redata: DM Harris energy tolerance for SCF =       0.000100 eV
redata: Using Saved Data (generic)         =       F
redata: Use continuation files for DM      =       T
redata: Neglect nonoverlap interactions    =       F
redata: Method of Calculation              =     Diagonalization
redata: Divide and Conquer                 =       T
redata: Electronic Temperature             =       0.0019  Ry
redata: Fix the spin of the system         =       F
redata: Dynamics option                    =     Verlet MD run
redata: Initial MD time step               =       1
redata: Final MD time step                 =       1
redata: Length of MD time step             =       1.0000  fs
redata: Initial Temperature of MD run      =       0.0000  K
redata: Perform a MD quench                =       F
redata: ***********************************************************************

Total number of electrons:    99.000000
Total ionic charge:    99.000000

* ProcessorY, Blocksize:    1  24

k-point displ. along   1 input, could be:     0.00    0.50
k-point displ. along   2 input, could be:     0.00    0.50
 Kpoints in:            4 . Kpoints trimmed:            4

siesta: k-grid: Number of k-points =     4
siesta: k-grid: Cutoff (effective) =     8.400 Ang
siesta: k-grid: Supercell and displacements
siesta: k-grid:    2   0   0      0.000
siesta: k-grid:    0   2   0      0.000
siesta: k-grid:    0   0   1      0.000
siesta: overlap:  rmaxh   veclen  direction
siesta: overlap:  20.0465 15.8737   1
siesta: overlap:  rmaxh   veclen  direction
siesta: overlap:  20.0465 15.8737   2
siesta: overlap:  rmaxh   veclen  direction
siesta: overlap:  20.0465 47.6211   3
Naive supercell factors:     3    3    1

superc: Internal auxiliary supercell:     3 x     3 x     1  =       9
superc: Number of atoms, orbitals, and projectors:     81    486   1296

* Maximum dynamic memory allocated =     1 MB

siesta:                 ===============================
                            Begin MD step =      1
                        ===============================

superc: Internal auxiliary supercell:     3 x     3 x     1  =       9
superc: Number of atoms, orbitals, and projectors:     81    486   1296

outcell: Unit cell vectors (Ang):
        8.400000    0.000000    0.000000
        0.000000    8.400000    0.000000
        0.000000    0.000000   25.200000

outcell: Cell vector modules (Ang)   :    8.400000    8.400000   25.200000
outcell: Cell angles (23,13,12) (deg):     90.0000     90.0000     90.0000
outcell: Cell volume (Ang**3)        :   1778.1120
New_DM. Step:     1
Initializing Density Matrix...

InitMesh: MESH =    72 x    72 x   216 =     1119744
InitMesh: Mesh cutoff (required, used) =   200.000   203.052 Ry

* Maximum dynamic memory allocated =    57 MB

stepf: Fermi-Dirac step function

siesta: Program's energy decomposition (eV):
siesta: Ebs     =      -648.675412
siesta: Eions   =     10845.004161
siesta: Ena     =       617.624380
siesta: Ekin    =      6064.079429
siesta: Enl     =     -2347.294992
siesta: DEna    =         0.000004
siesta: DUscf   =         0.000000
siesta: DUext   =         0.000000
siesta: Exc     =     -3729.632143
siesta: eta*DQ  =         0.000000
siesta: Emadel  =         0.000000
siesta: Emeta   =         0.000000
siesta: Emolmec =         0.000000
siesta: Ekinion =         0.000000
siesta: Eharris =    -10246.760468
siesta: Etot    =    -10240.227482
siesta: FreeEng =    -10240.227482

siesta: iscf   Eharris(eV)      E_KS(eV)   FreeEng(eV)   dDmax  Ef(eV)
siesta:    1   -10246.7605   -10240.2275   -10240.2275  0.4066 -5.4840
timer: Routine,Calls,Time,% = IterSCF        1       1.458  86.26
elaps: Routine,Calls,Wall,% = IterSCF        1       0.742  84.89
siesta:    2   -10246.2219   -10240.8508   -10240.9077  0.3733 -5.6979
siesta:    3   -10245.3296   -10243.0618   -10243.1206  0.2196 -6.3464
siesta:    4   -10245.3084   -10243.2414   -10243.3090  0.2019 -6.3517
siesta:    5   -10245.2995   -10243.7667   -10243.8281  0.1591 -6.2995
siesta:    6   -10245.3042   -10244.9271   -10245.0062  0.0812 -6.3209
siesta:    7   -10245.2772   -10245.1986   -10245.2611  0.0355 -6.2980
siesta:    8   -10245.2722   -10245.2274   -10245.2979  0.0251 -6.2947
siesta:    9   -10245.2678   -10245.2425   -10245.3150  0.0113 -6.2863
siesta:   10   -10245.2681   -10245.2417   -10245.3174  0.0086 -6.2875
siesta:   11   -10245.2677   -10245.2530   -10245.3282  0.0026 -6.2869
siesta:   12   -10245.2680   -10245.2560   -10245.3313  0.0018 -6.2877
siesta:   13   -10245.2676   -10245.2628   -10245.3378  0.0014 -6.2871
siesta:   14   -10245.2677   -10245.2638   -10245.3391  0.0009 -6.2875
siesta:   15   -10245.2677   -10245.2651   -10245.3403  0.0010 -6.2875
siesta:   16   -10245.2677   -10245.2663   -10245.3415  0.0006 -6.2876
siesta:   17   -10245.2678   -10245.2671   -10245.3424  0.0002 -6.2878
siesta:   18   -10245.2678   -10245.2672   -10245.3424  0.0002 -6.2878
siesta:   19   -10245.2678   -10245.2674   -10245.3426  0.0002 -6.2879
siesta:   20   -10245.2678   -10245.2675   -10245.3426  0.0001 -6.2879
siesta:   21   -10245.2678   -10245.2675   -10245.3427  0.0001 -6.2878
siesta:   22   -10245.2678   -10245.2676   -10245.3428  0.0001 -6.2879

siesta: E_KS(eV) =           -10245.2677

siesta: E_KS - E_eggbox =    -10245.2677

siesta: Atomic forces (eV/Ang):
     1    0.003925    0.000000    0.005805
     2   -0.016495   -0.000000   -0.018662
     3    0.069946    0.000000    0.078499
     4    0.320439    0.000000    0.202318
     5   -0.387052    0.000000    0.000000
     6    0.320441    0.000000   -0.202318
     7    0.069943    0.000000   -0.078497
     8   -0.016500   -0.000000    0.018658
     9    0.003931   -0.000000   -0.005808
----------------------------------------
   Tot    0.368576    0.000000   -0.000005
----------------------------------------
   Max    0.387052
   Res    0.130595    sqrt( Sum f_i^2 / 3N )
----------------------------------------
   Max    0.387052    constrained

Stress-tensor-Voigt (kbar):        2.84        2.19       27.29        0.00       -0.00       -0.00
(Free)E + p*V (eV/cell)   -10257.2995
Target enthalpy (eV/cell)   -10245.3428

siesta: Stress tensor (static) (eV/Ang**3):
         0.001774    0.000000   -0.000000
         0.000000    0.001365   -0.000000
        -0.000000   -0.000000    0.017035

siesta: Pressure (static):        -10.77377656  kBar

siesta: Stress tensor (total) (eV/Ang**3):
         0.001774    0.000000   -0.000000
         0.000000    0.001365   -0.000000
        -0.000000   -0.000000    0.017035

siesta: Pressure (total):        -10.77377656  kBar

siesta: Temp_ion =       0.000 K

* Maximum dynamic memory allocated =    57 MB

coxmol: Writing XMOL coordinates into file au-chain_szv_shiftx_dftenergy.xyz                               

siesta: Program's energy decomposition (eV):
siesta: Ebs     =      -716.224886
siesta: Eions   =     10845.004161
siesta: Ena     =       617.624380
siesta: Ekin    =      5992.153614
siesta: Enl     =     -2314.323629
siesta: DEna    =        20.690988
siesta: DUscf   =         0.802733
siesta: DUext   =         0.000000
siesta: Exc     =     -3717.211578
siesta: eta*DQ  =         0.000000
siesta: Emadel  =         0.000000
siesta: Emeta   =         0.000000
siesta: Emolmec =         0.000000
siesta: Ekinion =         0.000000
siesta: Eharris =    -10245.267770
siesta: Etot    =    -10245.267653
siesta: FreeEng =    -10245.342829

siesta: Final energy (eV):
siesta:  Band Struct. =    -716.224886
siesta:       Kinetic =    5992.153614
siesta:       Hartree =    6096.648203
siesta:    Ext. field =       0.000000
siesta:   Exch.-corr. =   -3717.211578
siesta:  Ion-electron =  -16880.344824
siesta:       Ion-ion =   -1736.513067
siesta:       Ekinion =       0.000000
siesta:         Total =  -10245.267653

siesta: Atomic forces (eV/Ang):
siesta:      1    0.003925    0.000000    0.005805
siesta:      2   -0.016495   -0.000000   -0.018662
siesta:      3    0.069946    0.000000    0.078499
siesta:      4    0.320439    0.000000    0.202318
siesta:      5   -0.387052    0.000000    0.000000
siesta:      6    0.320441    0.000000   -0.202318
siesta:      7    0.069943    0.000000   -0.078497
siesta:      8   -0.016500   -0.000000    0.018658
siesta:      9    0.003931   -0.000000   -0.005808
siesta: ----------------------------------------
siesta:    Tot    0.368576    0.000000   -0.000005

siesta: Constrained forces (eV/Ang):
siesta:      1    0.000000    0.000000    0.000000
siesta:      2    0.000000    0.000000    0.000000
siesta:      3    0.000000    0.000000    0.000000
siesta:      4    0.320439    0.000000    0.202318
siesta:      5   -0.387052    0.000000    0.000000
siesta:      6    0.320441    0.000000   -0.202318
siesta:      7    0.000000    0.000000    0.000000
siesta:      8    0.000000    0.000000    0.000000
siesta:      9    0.000000    0.000000    0.000000
siesta: ----------------------------------------
siesta:  Tot    0.253827    0.000000   -0.000000

siesta: Stress tensor (static) (eV/Ang**3):
siesta:     0.001774    0.000000   -0.000000
siesta:     0.000000    0.001365   -0.000000
siesta:    -0.000000   -0.000000    0.017035

siesta: Cell volume =       1778.112000 Ang**3

siesta: Pressure (static):
siesta:                Solid            Molecule  Units
siesta:          -0.00007324         -0.00006863  Ry/Bohr**3
siesta:          -0.00672439         -0.00630133  eV/Ang**3
siesta:         -10.77377656        -10.09595279  kBar
(Free)E+ p_basis*V_orbitals  =      -10241.920387
(Free)Eharris+ p_basis*V_orbitals  =      -10241.920592

siesta: Electric dipole (a.u.)  =    0.007444    0.000000   -0.000000
siesta: Electric dipole (Debye) =    0.018922    0.000000   -0.000000

* Maximum dynamic memory allocated : Node    0 =    57 MB
* Maximum dynamic memory allocated : Node    1 =    57 MB

* Maximum memory occured during redistribXZ                   

timer: CPU execution times:
timer:  Routine       Calls   Time/call    Tot.time        %
timer:  siesta            1      11.008      11.008   100.00
timer:  Setup             1       0.159       0.159     1.44
timer:  bands             1       0.000       0.000     0.00
timer:  writewave         1       0.001       0.001     0.01
timer:  KSV_init          1       0.000       0.000     0.00
timer:  IterMD            1      10.366      10.366    94.17
timer:  hsparse           1       0.001       0.001     0.01
timer:  overlap           1       0.065       0.065     0.59
timer:  IterSCF          22       0.433       9.521    86.49
timer:  kinefsm           2       0.028       0.057     0.51
timer:  nlefsm            2       0.130       0.259     2.36
timer:  DHSCF            24       0.407       9.771    88.77
timer:  DHSCF1            1       0.103       0.103     0.94
timer:  DHSCF2            1       0.628       0.628     5.71
timer:  REORD           246       0.001       0.243     2.21
timer:  POISON           25       0.156       3.894    35.38
timer:  DHSCF3           24       0.359       8.628    78.38
timer:  rhoofd           24       0.052       1.252    11.38
timer:  cellXC           24       0.076       1.822    16.55
timer:  vmat             23       0.042       0.966     8.77
timer:  MolMec            2       0.000       0.000     0.00
timer:  diagon           22       0.024       0.529     4.81
timer:  c-eigval         88       0.002       0.215     1.96
timer:  c-buildHS        88       0.000       0.002     0.02
timer:  cdiag           176       0.003       0.463     4.20
timer:  cdiag1          176       0.000       0.041     0.37
timer:  cdiag2          176       0.000       0.075     0.68
timer:  cdiag3          176       0.002       0.278     2.52
timer:  cdiag4          176       0.000       0.026     0.24
timer:  c-eigvec         88       0.003       0.253     2.30
timer:  c-buildD         88       0.000       0.044     0.40
timer:  DHSCF4            1       0.384       0.384     3.48
timer:  dfscf             1       0.297       0.297     2.70
timer:  overfsm           1       0.001       0.001     0.01
timer:  optical           1       0.044       0.044     0.40
  

elaps: ELAPSED times:
elaps:  Routine       Calls   Time/call    Tot.time        %
elaps:  siesta            1       5.592       5.592   100.00
elaps:  Setup             1       0.094       0.094     1.69
elaps:  bands             1       0.000       0.000     0.00
elaps:  writewave         1       0.001       0.001     0.01
elaps:  KSV_init          1       0.000       0.000     0.00
elaps:  IterMD            1       5.231       5.231    93.54
elaps:  hsparse           1       0.000       0.000     0.01
elaps:  overlap           1       0.034       0.034     0.60
elaps:  IterSCF          22       0.218       4.799    85.81
elaps:  kinefsm           2       0.014       0.029     0.51
elaps:  nlefsm            2       0.065       0.131     2.34
elaps:  DHSCF            24       0.204       4.902    87.66
elaps:  DHSCF1            1       0.052       0.052     0.93
elaps:  DHSCF2            1       0.315       0.315     5.63
elaps:  REORD           246       0.001       0.125     2.24
elaps:  POISON           25       0.078       1.953    34.92
elaps:  DHSCF3           24       0.180       4.328    77.39
elaps:  rhoofd           24       0.027       0.640    11.45
elaps:  cellXC           24       0.038       0.912    16.30
elaps:  vmat             23       0.021       0.482     8.62
elaps:  MolMec            2       0.000       0.000     0.00
elaps:  diagon           22       0.013       0.277     4.94
elaps:  c-eigval         88       0.001       0.108     1.93
elaps:  c-buildHS        88       0.000       0.001     0.02
elaps:  cdiag           176       0.001       0.220     3.93
elaps:  cdiag1          176       0.000       0.021     0.37
elaps:  cdiag2          176       0.000       0.039     0.69
elaps:  cdiag3          176       0.001       0.138     2.47
elaps:  cdiag4          176       0.000       0.014     0.24
elaps:  c-eigvec         88       0.001       0.114     2.04
elaps:  c-buildD         88       0.000       0.022     0.39
elaps:  DHSCF4            1       0.193       0.193     3.45
elaps:  dfscf             1       0.149       0.149     2.67
elaps:  overfsm           1       0.000       0.000     0.01
elaps:  optical           1       0.000       0.000     0.00
  
>> End of run:  30-OCT-2023  17:38:55
