SIESTA 1.3.7  -- [1.3f1 release] (04 Feb 2004)
Architecture  : mpif90
Compiler flags:  -O3 -check bounds -fp-model strict
PARALLEL version

* Running on   20 nodes in parallel
>> Start of run:  17-NOV-2023  17:16:56

                           ***********************       
                           *  WELCOME TO SIESTA  *       
                           ***********************       

reinit: Reading from standard input
************************** Dump of input data file ****************************
SystemName		    Bulk transport		# Descriptive name of the system
SystemLabel 			bulk		# Short name for naming files
NumberOfAtoms    32
NumberOfSpecies			1               # Number of species
PAO.BasisType			split		# Type of basis ('nones', 'nonodes', 'split')
%block ChemicalSpeciesLabel
1 79 Au
%endblock ChemicalSpeciesLabel
%block PAO.Basis
  Au  2
n=6  0  1
6.500
1.00
n=5  2  1
5.850
1.00
%endblock PAO.Basis
%block PS.lmax
 Au   3
%endblock PS.lmax
LatticeConstant 1.000 Ang
%block LatticeVectors
  8.336     0.000   0.000	  1
  0.000   8.336    0.000   1
  0.000   0.000      8.336  1
%endblock LatticeVectors
AtomicCoordinatesFormat Ang
%block AtomicCoordinatesAndAtomicSpecies
0.0 0.0 0.0 1 Au
0.0 4.168 0.0 1 Au
2.084 2.084 0.0 1 Au
2.084 6.252 0.0 1 Au
4.168 0.0 0.0 1 Au
4.168 4.168 0.0 1 Au
6.252 2.084 0.0 1 Au
6.252 6.252 0.0 1 Au
0.0 2.084 2.084 1 Au
0.0 6.252 2.084 1 Au
2.084 0.0 2.084 1 Au
2.084 4.168 2.084 1 Au
4.168 2.084 2.084 1 Au
4.168 6.252 2.084 1 Au
6.252 0.0 2.084 1 Au
6.252 4.168 2.084 1 Au
0.0 0.0 4.168 1 Au
0.0 4.168 4.168 1 Au
2.084 2.084 4.168 1 Au
2.084 6.252 4.168 1 Au
4.168 0.0 4.168 1 Au
4.168 4.168 4.168 1 Au
6.252 2.084 4.168 1 Au
6.252 6.252 4.168 1 Au
0.0 2.084 6.252 1 Au
0.0 6.252 6.252 1 Au
2.084 0.0 6.252 1 Au
2.084 4.168 6.252 1 Au
4.168 2.084 6.252 1 Au
4.168 6.252 6.252 1 Au
6.252 0.0 6.252 1 Au
6.252 4.168 6.252 1 Au
%endblock AtomicCoordinatesAndAtomicSpecies
%block kgrid_Monkhorst_Pack
  1   0   0     0.0
  0   1   0     0.0
  0   0   20    0.0
%endblock kgrid_Monkhorst_Pack
xc.functional		LDA		# 'LDA', 'GGA'
xc.authors 	 		CA		# 'CA'='PZ', 'PW92', 'PBE'
SpinPolarized			F		# 'T', 'F'		
#FixSpin           F
#TotalSpin        0.0
NonCollinearSpin		F		# 'T', 'F'
MeshCutoff 	 		    200 Ry		# Equivalent plane wave cutoff for the grid
MaxSCFIterations		10000
DM.MixingWeight			0.1
DM.NumberPulay			4	# Pulay convergency accelerator
DM.PulayOnFile			F		# Store in memory ('F') or in files ('T')
#DM.NumberKick         30
#DM.KickMixingWeight   0.1
DM.Tolerance 		0.5E-5
NeglNonOverlapInt		F		# 'F'=do not neglect
SolutionMethod			diagon
ElectronicTemperature		300 K		# Default value
DM.UseSaveDM 			T
#MD.UseSaveXV			T
#MD.UseSaveCG			T
WriteForces      T
WriteCoorXmol			T		# Write Atoms coordinates
SaveElectrostaticPotential      T
#SaveHS				T		# Save the Hamiltonian and Overlap matrices
SaveRho				T		# Save the valence pseudocharge density
#SaveDeltaRho			T
#WriteDenchar			T		# Write Denchar output
WriteMullikenPop		1 #write mulliken population of aromic and orbital charges
#-----
#smeagol
#-----
BulkTransport			T
BulkLeads			LR
************************** End of input data file *****************************

reinit: -----------------------------------------------------------------------
reinit: System Name: Bulk transport                                             
reinit: -----------------------------------------------------------------------
reinit: System Label: bulk                
reinit: -----------------------------------------------------------------------

initatom: Reading input for the pseudopotentials and atomic orbitals ----------
 Species number:            1  Label: Au Atomic number:          79
Ground state valence configuration:   6s01  5d10
Reading pseudopotential information in formatted form from Au.psf
relmxkb: Read Max KB Ang. Momentum=    3 for species Au
 Warning: Empty PAO shell. l =           1
 Will have a KB projector anyway...

<basis_specs>
===============================================================================
Au                   Z=  79    Mass=  196.97        Charge=  0.0000    
Lmxo=2 Lmxkb=3     BasisType=split      Semic=F
L=0  Nsemic=0  Cnfigmx=6
          n=1  nzeta=1  polorb=0
               vcte:    0.0000    
               rinn:    0.0000    
                rcs:    6.5000    
            lambdas:    1.0000    
L=1  Nsemic=0  Cnfigmx=6
L=2  Nsemic=0  Cnfigmx=5
          n=1  nzeta=1  polorb=0
               vcte:    0.0000    
               rinn:    0.0000    
                rcs:    5.8500    
            lambdas:    1.0000    
-------------------------------------------------------------------------------
L=0  Nkbl=1  erefs: 0.17977+309
L=1  Nkbl=1  erefs: 0.17977+309
L=2  Nkbl=1  erefs: 0.17977+309
L=3  Nkbl=1  erefs: 0.17977+309
===============================================================================
</basis_specs>

atom: Called for Au  (Z =  79)

read_vps: Pseudopotential generation method:
read_vps: ATM3      Troullier-Martins                       

read_vps: Pseudopotential generated from a relativistic atomic calculation
read_vps: There are spin-orbit pseudopotentials available

read_vps: Valence configuration (pseudopotential and basis set generation):
6s( 1.00) rc: 2.18
6p( 0.00) rc: 2.47
5d(10.00) rc: 1.79
5f( 0.00) rc: 2.00
Total valence charge:   11.00000

read_vps: Pseudopotential includes a core correction:
read_vps: Pseudo-core for xc-correction
comcore: Pseudo-core radius Rcore=  4.027091

xc_check: Exchange-correlation functional:
xc_check: Ceperley-Alder
V l=0 = -2*Zval/r beyond r=  2.9833
V l=1 = -2*Zval/r beyond r=  2.9833
V l=2 = -2*Zval/r beyond r=  2.9833
V l=3 = -2*Zval/r beyond r=  2.9833
All V_l potentials equal beyond r=  2.4425
This should be close to max(r_c) in ps generation
All pots = -2*Zval/r beyond r=  2.9833

VLOCAL1: 99.0% of the norm of Vloc inside      7.276 Ry
VLOCAL1: 99.9% of the norm of Vloc inside     16.582 Ry
atom: Maximum radius for 4*pi*r*r*local-pseudopot. charge    2.94627
atom: Maximum radius for r*vlocal+2*Zval:    2.60007
GHOST: No ghost state for L =  0
GHOST: No ghost state for L =  1
GHOST: No ghost state for L =  2
GHOST: No ghost state for L =  3

KBgen: Kleinman-Bylander projectors: 
   l= 0   rc=  3.175745   el= -0.445638   Ekb=  5.072790   kbcos=  0.276607
   l= 1   rc=  3.256140   el= -0.066324   Ekb=  2.703235   kbcos=  0.227171
   l= 2   rc=  3.020861   el= -0.526103   Ekb= -4.704026   kbcos= -0.643795
   l= 3   rc=  3.466145   el=  0.003438   Ekb= -2.516122   kbcos= -0.010529

KBgen: Total number of  Kleinman-Bylander projectors:   16
atom: -------------------------------------------------------------------------

atom: SANKEY-TYPE ORBITALS:

SPLIT: Orbitals with angular momentum L= 0

SPLIT: Basis orbitals for state 6s

   izeta = 1
                 lambda =    1.000000
                     rc =    6.557093
                 energy =   -0.435455
                kinetic =    0.389259
    potential(screened) =   -0.824714
       potential(ionic) =   -8.467175

SPLIT: Orbitals with angular momentum L= 2

SPLIT: Basis orbitals for state 5d

   izeta = 1
                 lambda =    1.000000
                     rc =    5.933100
                 energy =   -0.524775
                kinetic =    4.913203
    potential(screened) =   -5.437978
       potential(ionic) =  -15.883506
atom: Total number of Sankey-type orbitals:  6

atm_pop: Valence configuration(local Pseudopot. screening):
 6s( 1.00)                                                            
 6p( 0.00)                                                            
 5d(10.00)                                                            
Vna: chval, zval:   11.00000  11.00000

Vna:  Cut-off radius for the neutral-atom potential:   6.557093

atom: _________________________________________________________________________

prinput: Basis input ----------------------------------------------------------

PAO.BasisType split     

%block ChemicalSpeciesLabel
    1   79 Au                      # Species index, atomic number, species label
%endblock ChemicalSpeciesLabel

%block PAO.Basis                 # Define Basis set
Au          2                    # Species label, number of l-shells
 n=6   0   1                         # n, l, Nzeta 
   6.557   
   1.000   
 n=5   2   1                         # n, l, Nzeta 
   5.933   
   1.000   
%endblock PAO.Basis

prinput: ----------------------------------------------------------------------


siesta: ******************** Simulation parameters ****************************
siesta:
siesta: The following are some of the parameters of the simulation.
siesta: A complete list of the parameters used, including defect values,
siesta: can be found in file out.fdf
siesta:
coor:   Atomic-coordinates input format  =     Cartesian coordinates
coor:                                          (in Angstroms)
redata: Number of spin components        =     1
redata: SpinOrbit                        =     0
redata: Long output                      =     F
redata: Number of Atomic Species         =     1
redata: Charge density info will appear in .RHO file
redata: Write Mulliken Pop.              =     Atomic and Orbital charges
redata: Write Hamilton Pop.              =     NO
redata: Mesh Cutoff                      =   200.0000  Ry
redata: Net charge of the system         =     0.0000 |e|
redata: Max. number of SCF Iter          = 10000
redata: One Pulay mixing every           =     4 iterations
redata: Mix DM in first SCF step ?       =     F
redata: Write Pulay info on disk?        =     F
redata: New DM Mixing Weight             =     0.1000
redata: No kicks to SCF
redata: DM Mixing Weight for Kicks       =     0.5000
redata: DM Tolerance for SCF             =     0.000005
redata: Use continuation files for DM    =     T
redata: Neglect nonoverlap interactions  =     F
redata: Method of Calculation            =     Diagonalization
redata: Divide and Conquer               =     F
redata: Electronic Temperature           =     0.0019  Ry
redata: Fix the spin of the system       =     F
redata: Dynamics option                  =     CG coord. optimization
redata: Variable cell                    =     F
redata: Use continuation files for CG    =     F
redata: Maximum number of CG moves       =     0
redata: Max atomic displ per move        =     0.2000  Bohr
redata: Force tolerance                  =     0.0016  Ry/Bohr
redata: ***********************************************************************

siesta: Atomic coordinates (Bohr) and species
siesta:      0.00000   0.00000   0.00000  1        1
siesta:      0.00000   7.87638   0.00000  1        2
siesta:      3.93819   3.93819   0.00000  1        3
siesta:      3.93819  11.81457   0.00000  1        4
siesta:      7.87638   0.00000   0.00000  1        5
siesta:      7.87638   7.87638   0.00000  1        6
siesta:     11.81457   3.93819   0.00000  1        7
siesta:     11.81457  11.81457   0.00000  1        8
siesta:      0.00000   3.93819   3.93819  1        9
siesta:      0.00000  11.81457   3.93819  1       10
siesta:      3.93819   0.00000   3.93819  1       11
siesta:      3.93819   7.87638   3.93819  1       12
siesta:      7.87638   3.93819   3.93819  1       13
siesta:      7.87638  11.81457   3.93819  1       14
siesta:     11.81457   0.00000   3.93819  1       15
siesta:     11.81457   7.87638   3.93819  1       16
siesta:      0.00000   0.00000   7.87638  1       17
siesta:      0.00000   7.87638   7.87638  1       18
siesta:      3.93819   3.93819   7.87638  1       19
siesta:      3.93819  11.81457   7.87638  1       20
siesta:      7.87638   0.00000   7.87638  1       21
siesta:      7.87638   7.87638   7.87638  1       22
siesta:     11.81457   3.93819   7.87638  1       23
siesta:     11.81457  11.81457   7.87638  1       24
siesta:      0.00000   3.93819  11.81457  1       25
siesta:      0.00000  11.81457  11.81457  1       26
siesta:      3.93819   0.00000  11.81457  1       27
siesta:      3.93819   7.87638  11.81457  1       28
siesta:      7.87638   3.93819  11.81457  1       29
siesta:      7.87638  11.81457  11.81457  1       30
siesta:     11.81457   0.00000  11.81457  1       31
siesta:     11.81457   7.87638  11.81457  1       32

initatomlists: Number of atoms, orbitals, and projectors:     32   192   512

siesta: System type = bulk      
 Nodes, Orbitals          20         192
 blocksizedefault           8

* ProcessorY, Blocksize:    4   8


siesta: k-grid: Number of k-points =    11
siesta: k-grid: Cutoff             =     4.168 Ang
siesta: k-grid: Supercell and displacements
siesta: k-grid:    1   0   0      0.000
siesta: k-grid:    0   1   0      0.000
siesta: k-grid:    0   0  20      0.000
siesta: overlap:  rmaxh   veclen  direction
siesta: overlap:  20.0465 15.7528   1
siesta: overlap:  rmaxh   veclen  direction
siesta: overlap:  20.0465 15.7528   2
siesta: overlap:  rmaxh   veclen  direction
siesta: overlap:  20.0465 15.7528   3
 label:           1 Au                             1 s      
 label:           2 Au                             1 dxy    
 label:           3 Au                             1 dyz    
 label:           4 Au                             1 dz2    
 label:           5 Au                             1 dxz    
 label:           6 Au                             1 dx2-y2 
 label:           7 Au                             2 s      
 label:           8 Au                             2 dxy    
 label:           9 Au                             2 dyz    
 label:          10 Au                             2 dz2    
 label:          11 Au                             2 dxz    
 label:          12 Au                             2 dx2-y2 
 label:          13 Au                             3 s      
 label:          14 Au                             3 dxy    
 label:          15 Au                             3 dyz    
 label:          16 Au                             3 dz2    
 label:          17 Au                             3 dxz    
 label:          18 Au                             3 dx2-y2 
 label:          19 Au                             4 s      
 label:          20 Au                             4 dxy    
 label:          21 Au                             4 dyz    
 label:          22 Au                             4 dz2    
 label:          23 Au                             4 dxz    
 label:          24 Au                             4 dx2-y2 
 label:          25 Au                             5 s      
 label:          26 Au                             5 dxy    
 label:          27 Au                             5 dyz    
 label:          28 Au                             5 dz2    
 label:          29 Au                             5 dxz    
 label:          30 Au                             5 dx2-y2 
 label:          31 Au                             6 s      
 label:          32 Au                             6 dxy    
 label:          33 Au                             6 dyz    
 label:          34 Au                             6 dz2    
 label:          35 Au                             6 dxz    
 label:          36 Au                             6 dx2-y2 
 label:          37 Au                             7 s      
 label:          38 Au                             7 dxy    
 label:          39 Au                             7 dyz    
 label:          40 Au                             7 dz2    
 label:          41 Au                             7 dxz    
 label:          42 Au                             7 dx2-y2 
 label:          43 Au                             8 s      
 label:          44 Au                             8 dxy    
 label:          45 Au                             8 dyz    
 label:          46 Au                             8 dz2    
 label:          47 Au                             8 dxz    
 label:          48 Au                             8 dx2-y2 
 label:          49 Au                             9 s      
 label:          50 Au                             9 dxy    
 label:          51 Au                             9 dyz    
 label:          52 Au                             9 dz2    
 label:          53 Au                             9 dxz    
 label:          54 Au                             9 dx2-y2 
 label:          55 Au                            10 s      
 label:          56 Au                            10 dxy    
 label:          57 Au                            10 dyz    
 label:          58 Au                            10 dz2    
 label:          59 Au                            10 dxz    
 label:          60 Au                            10 dx2-y2 
 label:          61 Au                            11 s      
 label:          62 Au                            11 dxy    
 label:          63 Au                            11 dyz    
 label:          64 Au                            11 dz2    
 label:          65 Au                            11 dxz    
 label:          66 Au                            11 dx2-y2 
 label:          67 Au                            12 s      
 label:          68 Au                            12 dxy    
 label:          69 Au                            12 dyz    
 label:          70 Au                            12 dz2    
 label:          71 Au                            12 dxz    
 label:          72 Au                            12 dx2-y2 
 label:          73 Au                            13 s      
 label:          74 Au                            13 dxy    
 label:          75 Au                            13 dyz    
 label:          76 Au                            13 dz2    
 label:          77 Au                            13 dxz    
 label:          78 Au                            13 dx2-y2 
 label:          79 Au                            14 s      
 label:          80 Au                            14 dxy    
 label:          81 Au                            14 dyz    
 label:          82 Au                            14 dz2    
 label:          83 Au                            14 dxz    
 label:          84 Au                            14 dx2-y2 
 label:          85 Au                            15 s      
 label:          86 Au                            15 dxy    
 label:          87 Au                            15 dyz    
 label:          88 Au                            15 dz2    
 label:          89 Au                            15 dxz    
 label:          90 Au                            15 dx2-y2 
 label:          91 Au                            16 s      
 label:          92 Au                            16 dxy    
 label:          93 Au                            16 dyz    
 label:          94 Au                            16 dz2    
 label:          95 Au                            16 dxz    
 label:          96 Au                            16 dx2-y2 
 label:          97 Au                            17 s      
 label:          98 Au                            17 dxy    
 label:          99 Au                            17 dyz    
 label:         100 Au                            17 dz2    
 label:         101 Au                            17 dxz    
 label:         102 Au                            17 dx2-y2 
 label:         103 Au                            18 s      
 label:         104 Au                            18 dxy    
 label:         105 Au                            18 dyz    
 label:         106 Au                            18 dz2    
 label:         107 Au                            18 dxz    
 label:         108 Au                            18 dx2-y2 
 label:         109 Au                            19 s      
 label:         110 Au                            19 dxy    
 label:         111 Au                            19 dyz    
 label:         112 Au                            19 dz2    
 label:         113 Au                            19 dxz    
 label:         114 Au                            19 dx2-y2 
 label:         115 Au                            20 s      
 label:         116 Au                            20 dxy    
 label:         117 Au                            20 dyz    
 label:         118 Au                            20 dz2    
 label:         119 Au                            20 dxz    
 label:         120 Au                            20 dx2-y2 
 label:         121 Au                            21 s      
 label:         122 Au                            21 dxy    
 label:         123 Au                            21 dyz    
 label:         124 Au                            21 dz2    
 label:         125 Au                            21 dxz    
 label:         126 Au                            21 dx2-y2 
 label:         127 Au                            22 s      
 label:         128 Au                            22 dxy    
 label:         129 Au                            22 dyz    
 label:         130 Au                            22 dz2    
 label:         131 Au                            22 dxz    
 label:         132 Au                            22 dx2-y2 
 label:         133 Au                            23 s      
 label:         134 Au                            23 dxy    
 label:         135 Au                            23 dyz    
 label:         136 Au                            23 dz2    
 label:         137 Au                            23 dxz    
 label:         138 Au                            23 dx2-y2 
 label:         139 Au                            24 s      
 label:         140 Au                            24 dxy    
 label:         141 Au                            24 dyz    
 label:         142 Au                            24 dz2    
 label:         143 Au                            24 dxz    
 label:         144 Au                            24 dx2-y2 
 label:         145 Au                            25 s      
 label:         146 Au                            25 dxy    
 label:         147 Au                            25 dyz    
 label:         148 Au                            25 dz2    
 label:         149 Au                            25 dxz    
 label:         150 Au                            25 dx2-y2 
 label:         151 Au                            26 s      
 label:         152 Au                            26 dxy    
 label:         153 Au                            26 dyz    
 label:         154 Au                            26 dz2    
 label:         155 Au                            26 dxz    
 label:         156 Au                            26 dx2-y2 
 label:         157 Au                            27 s      
 label:         158 Au                            27 dxy    
 label:         159 Au                            27 dyz    
 label:         160 Au                            27 dz2    
 label:         161 Au                            27 dxz    
 label:         162 Au                            27 dx2-y2 
 label:         163 Au                            28 s      
 label:         164 Au                            28 dxy    
 label:         165 Au                            28 dyz    
 label:         166 Au                            28 dz2    
 label:         167 Au                            28 dxz    
 label:         168 Au                            28 dx2-y2 
 label:         169 Au                            29 s      
 label:         170 Au                            29 dxy    
 label:         171 Au                            29 dyz    
 label:         172 Au                            29 dz2    
 label:         173 Au                            29 dxz    
 label:         174 Au                            29 dx2-y2 
 label:         175 Au                            30 s      
 label:         176 Au                            30 dxy    
 label:         177 Au                            30 dyz    
 label:         178 Au                            30 dz2    
 label:         179 Au                            30 dxz    
 label:         180 Au                            30 dx2-y2 
 label:         181 Au                            31 s      
 label:         182 Au                            31 dxy    
 label:         183 Au                            31 dyz    
 label:         184 Au                            31 dz2    
 label:         185 Au                            31 dxz    
 label:         186 Au                            31 dx2-y2 
 label:         187 Au                            32 s      
 label:         188 Au                            32 dxy    
 label:         189 Au                            32 dyz    
 label:         190 Au                            32 dz2    
 label:         191 Au                            32 dxz    
 label:         192 Au                            32 dx2-y2 

superc: Internal auxiliary supercell:     3 x     3 x     3  =      27
superc: Number of atoms, orbitals, and projectors:    864  5184 13824
 
* Maximum dynamic memory allocated =     1 MB

siesta:                 ==============================
                            Begin CG move =      0
                        ==============================

superc: Internal auxiliary supercell:     3 x     3 x     3  =      27
superc: Number of atoms, orbitals, and projectors:    864  5184 13824

read_ldau The LDA+U method used is from Czyzky PRB 49 14211
 NSCOBlocks=           0

InitMesh: MESH =    72 x    72 x    72 =      373248
InitMesh: Mesh cutoff (required, used) =   200.000   206.182 Ry
 
* Maximum dynamic memory allocated =    23 MB
cdiag: going 2D with      4 by      5 proc- grid

stepf: Fermi-Dirac step function

siesta: Program's energy decomposition (eV):
siesta: Eions   =     38560.014795
siesta: Ena     =      2136.575093
siesta: Ekin    =     21561.171304
siesta: Enl     =     -8293.747949
siesta: DEna    =         0.000008
siesta: DUscf   =         0.000000
siesta: DUext   =         0.000000
siesta: Exc     =    -13379.012104
siesta: eta*DQ  =         0.000000
siesta: Emadel  =         0.000000
siesta: Eharris =    -36479.137133
siesta: Eso     =         0.000000
siesta: Etot    =    -36535.028442
siesta: FreeEng =    -36535.028442

siesta: iscf   Eharris(eV)      E_KS(eV)   FreeEng(eV)     dDmax   Ef(eV)
siesta:    1   -36479.1371   -36535.0284   -36535.0284   2.01065  -2.7418
timer: Routine,Calls,Time,% = IterSCF        1      74.904  82.48
siesta:    2   -36479.0964   -36479.0931   -36479.1149   0.00554  -2.7996
siesta:    3   -36479.0958   -36479.0954   -36479.1204   0.00491  -2.7989
siesta:    4   -36479.0964   -36479.0955   -36479.1204   0.00024  -2.7936
siesta:    5   -36479.0966   -36479.0964   -36479.1208   0.00008  -2.7934
siesta:    6   -36479.0965   -36479.0965   -36479.1209   0.00000  -2.7933

siesta: E_KS(eV) =           -36479.0964

siesta: E_KS - E_eggbox =    -36479.0964

siesta: Atomic forces (eV/Ang):
     1    0.000008    0.000011    0.000019
     2    0.000006    0.007627    0.000015
     3    0.005394    0.005392    0.000017
     4    0.007623   -0.000002    0.000014
     5    0.007628    0.000008    0.000019
     6    0.005394    0.005392    0.000016
     7    0.000005    0.007626    0.000015
     8   -0.000001   -0.000001    0.000014
     9    0.000012    0.005391    0.005396
    10    0.000004    0.000007    0.007631
    11    0.005391    0.000012    0.005399
    12    0.003108    0.006227    0.003124
    13    0.006219    0.003113    0.003123
    14    0.006816    0.000002    0.003414
    15    0.000007    0.000005    0.007634
    16    0.000008    0.006821    0.003414
    17    0.000017    0.000013    0.007629
    18    0.000010    0.005392    0.005397
    19    0.003108    0.003113    0.006238
    20    0.003405    0.000001    0.006827
    21    0.005391    0.000010    0.005402
    22    0.004397    0.004404    0.004411
    23    0.000005    0.003412    0.006828
    24    0.000001    0.000000    0.007630
    25   -0.000002    0.007625    0.000010
    26   -0.000003    0.000005    0.000006
    27    0.007622    0.000001    0.000011
    28    0.003406    0.006822    0.000013
    29    0.006814    0.003410    0.000013
    30    0.007622    0.000002    0.000006
    31    0.000006   -0.000001    0.000012
    32    0.000006    0.007627    0.000006
----------------------------------------
 Tot    0.089427    0.089472    0.089704
----------------------------------------
 Max    0.007634
 Res    0.004119    sqrt( Sum f_i^2 / 3N )
----------------------------------------
 Max    0.007634    constrained
 
mulliken: Atomic and Orbital Populations:

Species: Au                  
Atom  Qatom  Qorb
               6s      5dxy    5dyz    5dz2    5dxz    5dx2-y2 
   1 11.000   1.208   1.951   1.949   1.966   1.949   1.978
   2 11.000   1.208   1.951   1.949   1.966   1.949   1.978
   3 11.000   1.208   1.951   1.949   1.966   1.949   1.978
   4 11.000   1.208   1.951   1.949   1.966   1.949   1.978
   5 11.000   1.208   1.951   1.949   1.966   1.949   1.978
   6 11.000   1.208   1.951   1.949   1.966   1.949   1.978
   7 11.000   1.208   1.951   1.949   1.966   1.949   1.978
   8 11.000   1.208   1.951   1.949   1.966   1.949   1.978
   9 11.000   1.208   1.951   1.949   1.966   1.949   1.978
  10 11.000   1.208   1.951   1.949   1.966   1.949   1.978
  11 11.000   1.208   1.951   1.949   1.966   1.949   1.978
  12 11.000   1.208   1.951   1.949   1.966   1.949   1.978
  13 11.000   1.208   1.951   1.949   1.966   1.949   1.978
  14 11.000   1.208   1.951   1.949   1.966   1.949   1.978
  15 11.000   1.208   1.951   1.949   1.966   1.949   1.978
  16 11.000   1.208   1.951   1.949   1.966   1.949   1.978
  17 11.000   1.208   1.951   1.949   1.966   1.949   1.978
  18 11.000   1.208   1.951   1.949   1.966   1.949   1.978
  19 11.000   1.208   1.951   1.949   1.966   1.949   1.978
  20 11.000   1.208   1.951   1.949   1.966   1.949   1.978
  21 11.000   1.208   1.951   1.949   1.966   1.949   1.978
  22 11.000   1.208   1.951   1.949   1.966   1.949   1.978
  23 11.000   1.208   1.951   1.949   1.966   1.949   1.978
  24 11.000   1.208   1.951   1.949   1.966   1.949   1.978
  25 11.000   1.208   1.951   1.949   1.966   1.949   1.978
  26 11.000   1.208   1.951   1.949   1.966   1.949   1.978
  27 11.000   1.208   1.951   1.949   1.966   1.949   1.978
  28 11.000   1.208   1.951   1.949   1.966   1.949   1.978
  29 11.000   1.208   1.951   1.949   1.966   1.949   1.978
  30 11.000   1.208   1.951   1.949   1.966   1.949   1.978
  31 11.000   1.208   1.951   1.949   1.966   1.949   1.978
  32 11.000   1.208   1.951   1.949   1.966   1.949   1.978

mulliken: Qtot =  352.000
 
* Maximum dynamic memory allocated =    23 MB

coxmol: Writing XMOL coordinates into file bulk.xyz                

siesta: Eigenvalues (eV):
  ik is    eps
   1  1 -13.11 -10.82 -10.82 -10.82 -10.82 -10.82 -10.82 -10.35 -10.35 -10.35
        -10.35 -10.03 -10.02 -10.02  -9.58  -9.58  -9.57  -9.22  -9.22  -9.22
         -9.22  -9.22  -9.22  -9.22  -9.22  -9.21  -9.21  -9.21  -9.21  -8.72
         -8.72  -8.72  -8.72  -8.70  -8.70  -8.64  -8.64  -8.64  -8.64  -8.62
         -8.62  -7.97  -7.97  -7.97  -7.97  -7.96  -7.96  -7.96  -7.96  -7.96
         -7.96  -7.96  -7.96  -7.81  -7.81  -7.81  -7.81  -7.81  -7.81  -7.81
         -7.81  -7.79  -7.79  -7.79  -7.79  -7.65  -7.65  -7.65  -7.65  -7.63
         -7.63  -7.63  -7.63  -7.63  -7.63  -7.63  -7.63  -7.58  -7.58  -7.58
         -7.58  -7.57  -7.57  -7.57  -7.57  -7.53  -7.53  -7.51  -6.96  -6.96
         -6.93  -6.93  -6.93  -6.93  -6.64  -6.64  -6.64  -6.64  -6.64  -6.64
         -6.64  -6.64  -6.62  -6.62  -6.62  -6.62  -6.30  -6.30  -6.30  -6.30
         -6.30  -6.30  -6.30  -6.30  -6.27  -6.27  -6.27  -6.27  -6.25  -6.25
         -6.21  -6.21  -6.21  -6.21  -6.05  -6.03  -6.03  -6.03  -6.03  -6.02
         -6.02  -6.02  -6.02  -6.02  -6.02  -6.02  -6.02  -6.02  -5.50  -5.50
         -5.50  -5.50  -5.47  -5.47  -4.91  -4.91  -4.89  -4.86  -4.86  -4.86
         -4.86  -4.85  -4.85  -4.85  -4.85  -4.54  -4.54  -4.54  -4.54  -4.54
         -4.54  -4.54  -4.54  -4.52  -4.52  -4.52  -4.52  -3.33  -3.33  -3.33
         -3.33  -3.33  -3.33  -3.33  -3.33  -3.32  -3.32  -3.32  -3.32  -0.51
         -0.51  -0.51  -0.51   1.40   1.40   1.40   1.40   1.41   1.41   2.17
          2.19   2.19
   2  1 -13.10 -11.00 -10.82 -10.82 -10.82 -10.82 -10.64 -10.35 -10.35 -10.35
        -10.35 -10.03 -10.02 -10.02  -9.58  -9.58  -9.56  -9.32  -9.32  -9.32
         -9.32  -9.23  -9.23  -9.23  -9.23  -9.12  -9.12  -9.12  -9.12  -8.71
         -8.71  -8.71  -8.71  -8.71  -8.71  -8.70  -8.64  -8.64  -8.64  -8.64
         -8.54  -8.00  -8.00  -8.00  -8.00  -7.98  -7.98  -7.96  -7.96  -7.96
         -7.96  -7.93  -7.93  -7.93  -7.93  -7.81  -7.81  -7.81  -7.81  -7.79
         -7.79  -7.79  -7.79  -7.65  -7.65  -7.65  -7.65  -7.63  -7.63  -7.63
         -7.63  -7.62  -7.62  -7.62  -7.62  -7.62  -7.62  -7.59  -7.59  -7.59
         -7.59  -7.57  -7.57  -7.57  -7.57  -7.53  -7.53  -7.52  -6.95  -6.94
         -6.94  -6.94  -6.94  -6.94  -6.65  -6.65  -6.65  -6.65  -6.64  -6.64
         -6.64  -6.64  -6.61  -6.61  -6.61  -6.61  -6.41  -6.41  -6.29  -6.29
         -6.29  -6.29  -6.27  -6.27  -6.27  -6.27  -6.23  -6.23  -6.21  -6.21
         -6.21  -6.21  -6.18  -6.18  -6.07  -6.07  -6.07  -6.07  -6.05  -6.02
         -6.01  -6.01  -6.01  -6.01  -5.96  -5.96  -5.96  -5.96  -5.52  -5.49
         -5.49  -5.49  -5.49  -5.43  -4.92  -4.92  -4.89  -4.86  -4.86  -4.86
         -4.86  -4.86  -4.86  -4.86  -4.86  -4.56  -4.56  -4.55  -4.55  -4.55
         -4.55  -4.55  -4.55  -4.52  -4.52  -4.52  -4.52  -3.50  -3.50  -3.50
         -3.50  -3.31  -3.31  -3.31  -3.31  -3.15  -3.15  -3.15  -3.15  -0.55
         -0.55  -0.55  -0.55   1.37   1.37   1.37   1.37   1.41   1.41   2.01
          2.19   2.19
   3  1 -13.08 -11.18 -10.80 -10.80 -10.80 -10.80 -10.48 -10.34 -10.34 -10.34
        -10.34 -10.02 -10.00 -10.00  -9.57  -9.57  -9.55  -9.42  -9.42  -9.42
         -9.42  -9.28  -9.28  -9.28  -9.28  -9.04  -9.04  -9.04  -9.04  -8.78
         -8.75  -8.75  -8.70  -8.70  -8.70  -8.70  -8.64  -8.64  -8.64  -8.64
         -8.46  -8.15  -8.15  -8.04  -8.04  -8.04  -8.04  -7.93  -7.93  -7.93
         -7.93  -7.89  -7.89  -7.89  -7.89  -7.83  -7.83  -7.83  -7.83  -7.79
         -7.79  -7.79  -7.79  -7.69  -7.69  -7.69  -7.69  -7.61  -7.61  -7.61
         -7.61  -7.59  -7.59  -7.59  -7.59  -7.56  -7.56  -7.56  -7.56  -7.56
         -7.56  -7.56  -7.56  -7.53  -7.52  -7.52  -7.43  -7.43  -6.98  -6.98
         -6.98  -6.98  -6.92  -6.89  -6.68  -6.68  -6.68  -6.68  -6.64  -6.64
         -6.64  -6.64  -6.56  -6.56  -6.56  -6.56  -6.52  -6.52  -6.28  -6.28
         -6.28  -6.28  -6.26  -6.26  -6.26  -6.26  -6.20  -6.20  -6.20  -6.20
         -6.19  -6.19  -6.12  -6.12  -6.12  -6.12  -6.07  -6.06  -6.06  -6.01
         -5.96  -5.96  -5.96  -5.96  -5.89  -5.89  -5.89  -5.89  -5.56  -5.48
         -5.48  -5.48  -5.48  -5.38  -4.93  -4.93  -4.89  -4.88  -4.88  -4.88
         -4.88  -4.87  -4.87  -4.87  -4.87  -4.60  -4.60  -4.57  -4.57  -4.57
         -4.57  -4.57  -4.57  -4.52  -4.52  -4.52  -4.52  -3.67  -3.67  -3.67
         -3.67  -3.30  -3.30  -3.30  -3.30  -2.96  -2.96  -2.96  -2.96  -0.66
         -0.66  -0.66  -0.66   1.28   1.28   1.28   1.28   1.43   1.43   1.55
          2.17   2.17
   4  1 -13.05 -11.36 -10.77 -10.77 -10.77 -10.77 -10.33 -10.32 -10.32 -10.32
        -10.32 -10.01  -9.97  -9.97  -9.55  -9.55  -9.54  -9.53  -9.53  -9.53
         -9.53  -9.36  -9.36  -9.36  -9.36  -8.96  -8.96  -8.96  -8.96  -8.86
         -8.82  -8.82  -8.69  -8.69  -8.69  -8.69  -8.62  -8.62  -8.62  -8.62
         -8.38  -8.31  -8.31  -8.09  -8.09  -8.09  -8.09  -7.89  -7.89  -7.89
         -7.89  -7.87  -7.87  -7.87  -7.87  -7.86  -7.86  -7.86  -7.86  -7.79
         -7.79  -7.79  -7.79  -7.73  -7.73  -7.73  -7.73  -7.62  -7.62  -7.62
         -7.62  -7.60  -7.60  -7.60  -7.60  -7.55  -7.54  -7.54  -7.54  -7.54
         -7.51  -7.51  -7.44  -7.44  -7.44  -7.44  -7.23  -7.23  -7.04  -7.04
         -7.04  -7.04  -6.88  -6.80  -6.74  -6.74  -6.74  -6.74  -6.62  -6.62
         -6.61  -6.61  -6.61  -6.61  -6.50  -6.50  -6.50  -6.50  -6.28  -6.28
         -6.28  -6.28  -6.22  -6.22  -6.22  -6.22  -6.18  -6.18  -6.18  -6.18
         -6.16  -6.16  -6.16  -6.16  -6.13  -6.13  -6.09  -6.00  -5.94  -5.94
         -5.89  -5.89  -5.89  -5.89  -5.81  -5.81  -5.81  -5.81  -5.60  -5.45
         -5.45  -5.45  -5.45  -5.34  -4.96  -4.96  -4.92  -4.92  -4.92  -4.92
         -4.90  -4.89  -4.89  -4.89  -4.89  -4.67  -4.67  -4.60  -4.60  -4.60
         -4.60  -4.60  -4.60  -4.52  -4.52  -4.52  -4.52  -3.82  -3.82  -3.82
         -3.82  -3.28  -3.28  -3.28  -3.28  -2.76  -2.76  -2.76  -2.76  -0.84
         -0.84  -0.84  -0.84   0.86   1.13   1.13   1.13   1.13   1.45   1.45
          2.15   2.15
   5  1 -13.00 -11.54 -10.74 -10.74 -10.74 -10.74 -10.29 -10.29 -10.29 -10.29
        -10.21 -10.00  -9.94  -9.94  -9.64  -9.64  -9.64  -9.64  -9.52  -9.52
         -9.52  -9.45  -9.45  -9.45  -9.45  -8.93  -8.90  -8.90  -8.88  -8.88
         -8.88  -8.88  -8.67  -8.67  -8.67  -8.67  -8.61  -8.61  -8.61  -8.61
         -8.46  -8.46  -8.30  -8.14  -8.14  -8.14  -8.14  -7.90  -7.90  -7.90
         -7.90  -7.86  -7.86  -7.86  -7.86  -7.84  -7.84  -7.84  -7.84  -7.79
         -7.79  -7.79  -7.79  -7.78  -7.78  -7.78  -7.78  -7.62  -7.62  -7.62
         -7.62  -7.61  -7.61  -7.61  -7.61  -7.57  -7.52  -7.52  -7.52  -7.52
         -7.48  -7.48  -7.27  -7.27  -7.27  -7.27  -7.11  -7.11  -7.11  -7.11
         -7.02  -7.02  -6.83  -6.82  -6.82  -6.82  -6.82  -6.72  -6.72  -6.66
         -6.56  -6.56  -6.56  -6.56  -6.43  -6.43  -6.43  -6.43  -6.28  -6.28
         -6.28  -6.28  -6.19  -6.19  -6.19  -6.19  -6.19  -6.19  -6.19  -6.19
         -6.16  -6.16  -6.16  -6.16  -6.11  -6.05  -6.05  -5.99  -5.82  -5.82
         -5.81  -5.81  -5.81  -5.81  -5.72  -5.72  -5.72  -5.72  -5.65  -5.40
         -5.40  -5.40  -5.40  -5.30  -5.00  -5.00  -4.98  -4.98  -4.98  -4.98
         -4.93  -4.93  -4.93  -4.93  -4.92  -4.76  -4.76  -4.65  -4.65  -4.65
         -4.65  -4.65  -4.65  -4.52  -4.52  -4.52  -4.52  -3.97  -3.97  -3.97
         -3.97  -3.24  -3.24  -3.24  -3.24  -2.54  -2.54  -2.54  -2.54  -1.08
         -1.08  -1.08  -1.08   0.04   0.94   0.94   0.94   0.94   1.49   1.49
          2.12   2.12
   6  1 -12.94 -11.72 -10.69 -10.69 -10.69 -10.69 -10.26 -10.26 -10.26 -10.26
        -10.10  -9.98  -9.89  -9.89  -9.76  -9.76  -9.76  -9.76  -9.54  -9.54
         -9.54  -9.54  -9.50  -9.48  -9.48  -9.00  -8.99  -8.99  -8.81  -8.81
         -8.81  -8.81  -8.64  -8.64  -8.64  -8.64  -8.60  -8.60  -8.59  -8.59
         -8.59  -8.59  -8.22  -8.19  -8.19  -8.19  -8.19  -7.94  -7.94  -7.94
         -7.94  -7.84  -7.84  -7.84  -7.84  -7.84  -7.84  -7.84  -7.84  -7.83
         -7.83  -7.83  -7.83  -7.78  -7.78  -7.78  -7.78  -7.62  -7.62  -7.62
         -7.62  -7.61  -7.61  -7.61  -7.61  -7.60  -7.49  -7.49  -7.49  -7.49
         -7.45  -7.45  -7.18  -7.18  -7.18  -7.18  -7.07  -7.07  -7.07  -7.07
         -6.89  -6.89  -6.89  -6.89  -6.82  -6.82  -6.81  -6.81  -6.77  -6.51
         -6.51  -6.51  -6.51  -6.47  -6.35  -6.35  -6.35  -6.35  -6.28  -6.28
         -6.28  -6.28  -6.21  -6.21  -6.21  -6.21  -6.16  -6.16  -6.16  -6.16
         -6.15  -6.13  -6.13  -6.13  -6.13  -5.98  -5.95  -5.95  -5.72  -5.72
         -5.72  -5.72  -5.70  -5.70  -5.69  -5.63  -5.63  -5.63  -5.63  -5.34
         -5.34  -5.34  -5.34  -5.25  -5.06  -5.06  -5.06  -5.06  -5.05  -5.05
         -4.97  -4.97  -4.97  -4.97  -4.93  -4.88  -4.88  -4.71  -4.71  -4.71
         -4.71  -4.70  -4.70  -4.52  -4.52  -4.52  -4.52  -4.12  -4.12  -4.12
         -4.12  -3.20  -3.20  -3.20  -3.20  -2.30  -2.30  -2.30  -2.30  -1.35
         -1.35  -1.35  -1.35  -0.84   0.70   0.70   0.70   0.70   1.53   1.53
          2.08   2.08
   7  1 -12.87 -11.89 -10.63 -10.63 -10.63 -10.63 -10.22 -10.22 -10.22 -10.22
        -10.03  -9.96  -9.88  -9.88  -9.88  -9.88  -9.83  -9.83  -9.64  -9.64
         -9.64  -9.64  -9.47  -9.43  -9.43  -9.09  -9.09  -9.07  -8.75  -8.75
         -8.75  -8.75  -8.73  -8.73  -8.61  -8.61  -8.61  -8.61  -8.56  -8.56
         -8.56  -8.56  -8.24  -8.24  -8.24  -8.24  -8.14  -7.98  -7.98  -7.98
         -7.98  -7.90  -7.90  -7.90  -7.90  -7.81  -7.81  -7.81  -7.81  -7.81
         -7.81  -7.81  -7.81  -7.78  -7.78  -7.78  -7.78  -7.64  -7.64  -7.64
         -7.64  -7.64  -7.60  -7.60  -7.60  -7.60  -7.45  -7.45  -7.45  -7.45
         -7.42  -7.42  -7.25  -7.25  -7.25  -7.25  -6.97  -6.97  -6.97  -6.97
         -6.91  -6.91  -6.85  -6.85  -6.85  -6.85  -6.70  -6.60  -6.60  -6.46
         -6.46  -6.46  -6.46  -6.28  -6.28  -6.28  -6.28  -6.28  -6.28  -6.28
         -6.28  -6.23  -6.23  -6.23  -6.23  -6.22  -6.19  -6.16  -6.16  -6.16
         -6.16  -6.11  -6.11  -6.11  -6.11  -5.96  -5.85  -5.85  -5.73  -5.63
         -5.63  -5.63  -5.63  -5.58  -5.58  -5.54  -5.54  -5.54  -5.54  -5.26
         -5.26  -5.26  -5.26  -5.21  -5.16  -5.16  -5.16  -5.16  -5.11  -5.11
         -5.02  -5.02  -5.02  -5.02  -5.02  -5.02  -4.95  -4.78  -4.78  -4.78
         -4.78  -4.77  -4.77  -4.52  -4.52  -4.52  -4.52  -4.27  -4.27  -4.27
         -4.27  -3.13  -3.13  -3.13  -3.13  -2.04  -2.04  -2.04  -2.04  -1.71
         -1.64  -1.64  -1.64  -1.64   0.42   0.42   0.42   0.42   1.58   1.58
          2.04   2.04
   8  1 -12.79 -12.05 -10.56 -10.56 -10.56 -10.56 -10.17 -10.17 -10.17 -10.17
         -9.99  -9.99  -9.99  -9.99  -9.97  -9.94  -9.76  -9.76  -9.73  -9.73
         -9.73  -9.73  -9.44  -9.38  -9.38  -9.20  -9.20  -9.13  -8.85  -8.85
         -8.69  -8.69  -8.69  -8.69  -8.59  -8.59  -8.59  -8.59  -8.53  -8.53
         -8.53  -8.53  -8.29  -8.29  -8.29  -8.29  -8.07  -8.03  -8.03  -8.03
         -8.03  -7.96  -7.96  -7.96  -7.96  -7.80  -7.80  -7.80  -7.80  -7.79
         -7.79  -7.79  -7.79  -7.78  -7.78  -7.78  -7.78  -7.69  -7.66  -7.66
         -7.66  -7.66  -7.59  -7.59  -7.59  -7.59  -7.41  -7.41  -7.41  -7.41
         -7.38  -7.38  -7.32  -7.32  -7.32  -7.32  -7.04  -7.04  -7.04  -7.04
         -6.99  -6.99  -6.63  -6.60  -6.60  -6.60  -6.60  -6.40  -6.40  -6.40
         -6.40  -6.38  -6.38  -6.28  -6.28  -6.28  -6.28  -6.25  -6.25  -6.25
         -6.25  -6.24  -6.22  -6.22  -6.22  -6.22  -6.16  -6.16  -6.16  -6.16
         -6.09  -6.09  -6.09  -6.09  -5.94  -5.91  -5.76  -5.74  -5.74  -5.54
         -5.54  -5.54  -5.54  -5.46  -5.46  -5.44  -5.44  -5.44  -5.44  -5.29
         -5.29  -5.29  -5.29  -5.18  -5.18  -5.17  -5.17  -5.17  -5.17  -5.17
         -5.17  -5.17  -5.08  -5.08  -5.08  -5.08  -4.98  -4.85  -4.85  -4.85
         -4.85  -4.85  -4.85  -4.52  -4.52  -4.52  -4.52  -4.41  -4.41  -4.41
         -4.41  -3.05  -3.05  -3.05  -3.05  -2.54  -1.93  -1.93  -1.93  -1.93
         -1.76  -1.76  -1.76  -1.76   0.12   0.12   0.12   0.12   1.63   1.63
          1.99   1.99
   9  1 -12.69 -12.20 -10.49 -10.49 -10.49 -10.49 -10.11 -10.11 -10.11 -10.11
        -10.10 -10.10 -10.10 -10.10  -9.94  -9.93  -9.82  -9.82  -9.82  -9.82
         -9.68  -9.68  -9.40  -9.31  -9.31  -9.30  -9.30  -9.19  -8.96  -8.96
         -8.64  -8.64  -8.64  -8.64  -8.57  -8.57  -8.57  -8.57  -8.50  -8.50
         -8.50  -8.50  -8.33  -8.33  -8.33  -8.33  -8.06  -8.06  -8.06  -8.06
         -8.01  -8.01  -8.01  -8.01  -8.00  -7.79  -7.79  -7.79  -7.79  -7.78
         -7.78  -7.78  -7.78  -7.77  -7.77  -7.77  -7.77  -7.74  -7.68  -7.68
         -7.68  -7.68  -7.56  -7.56  -7.56  -7.56  -7.38  -7.38  -7.38  -7.38
         -7.36  -7.36  -7.36  -7.36  -7.33  -7.33  -7.12  -7.12  -7.12  -7.12
         -7.07  -7.07  -6.56  -6.35  -6.35  -6.35  -6.35  -6.35  -6.35  -6.35
         -6.35  -6.30  -6.28  -6.28  -6.28  -6.28  -6.26  -6.26  -6.26  -6.26
         -6.18  -6.18  -6.18  -6.18  -6.17  -6.17  -6.17  -6.17  -6.17  -6.17
         -6.08  -6.08  -6.08  -6.08  -5.92  -5.80  -5.64  -5.64  -5.53  -5.46
         -5.46  -5.46  -5.46  -5.46  -5.46  -5.46  -5.46  -5.36  -5.36  -5.35
         -5.35  -5.33  -5.33  -5.33  -5.33  -5.25  -5.25  -5.14  -5.14  -5.14
         -5.14  -5.13  -5.06  -5.06  -5.06  -5.06  -5.00  -4.94  -4.94  -4.94
         -4.94  -4.93  -4.93  -4.55  -4.55  -4.55  -4.55  -4.52  -4.52  -4.52
         -4.52  -3.29  -2.95  -2.95  -2.95  -2.95  -2.20  -2.20  -2.20  -2.20
         -1.47  -1.47  -1.47  -1.47  -0.19  -0.19  -0.19  -0.19   1.69   1.69
          1.93   1.93
  10  1 -12.59 -12.34 -10.40 -10.40 -10.40 -10.40 -10.21 -10.21 -10.21 -10.21
        -10.05 -10.05 -10.05 -10.05  -9.92  -9.92  -9.90  -9.90  -9.90  -9.90
         -9.60  -9.60  -9.41  -9.41  -9.35  -9.25  -9.24  -9.24  -9.06  -9.06
         -8.60  -8.60  -8.60  -8.60  -8.56  -8.56  -8.56  -8.56  -8.46  -8.46
         -8.46  -8.46  -8.38  -8.38  -8.38  -8.38  -8.07  -8.07  -8.07  -8.07
         -8.05  -8.05  -8.05  -8.05  -7.93  -7.80  -7.79  -7.79  -7.79  -7.79
         -7.78  -7.78  -7.78  -7.78  -7.74  -7.74  -7.74  -7.74  -7.70  -7.70
         -7.70  -7.70  -7.53  -7.53  -7.53  -7.53  -7.44  -7.44  -7.44  -7.44
         -7.31  -7.31  -7.31  -7.31  -7.27  -7.27  -7.19  -7.19  -7.19  -7.19
         -7.14  -7.14  -6.49  -6.36  -6.30  -6.30  -6.30  -6.30  -6.28  -6.28
         -6.28  -6.28  -6.27  -6.27  -6.27  -6.27  -6.21  -6.21  -6.21  -6.21
         -6.13  -6.13  -6.13  -6.13  -6.10  -6.10  -6.10  -6.10  -6.09  -6.09
         -6.09  -6.09  -5.95  -5.95  -5.89  -5.83  -5.65  -5.65  -5.65  -5.65
         -5.55  -5.55  -5.53  -5.53  -5.37  -5.37  -5.37  -5.37  -5.34  -5.34
         -5.24  -5.24  -5.23  -5.23  -5.23  -5.23  -5.21  -5.21  -5.21  -5.21
         -5.10  -5.08  -5.03  -5.03  -5.03  -5.03  -5.03  -5.03  -5.03  -4.94
         -4.94  -4.94  -4.94  -4.69  -4.69  -4.69  -4.69  -4.52  -4.52  -4.52
         -4.52  -3.96  -2.81  -2.81  -2.81  -2.81  -2.44  -2.44  -2.44  -2.44
         -1.16  -1.16  -1.16  -1.16  -0.52  -0.52  -0.52  -0.52   1.75   1.75
          1.87   1.87
  11  1 -12.47 -12.47 -10.31 -10.31 -10.31 -10.31 -10.31 -10.31 -10.31 -10.31
         -9.98  -9.98  -9.98  -9.98  -9.98  -9.98  -9.98  -9.98  -9.91  -9.91
         -9.50  -9.50  -9.50  -9.50  -9.30  -9.30  -9.16  -9.16  -9.16  -9.16
         -8.57  -8.57  -8.57  -8.57  -8.57  -8.57  -8.57  -8.57  -8.42  -8.42
         -8.42  -8.42  -8.42  -8.42  -8.42  -8.42  -8.07  -8.07  -8.07  -8.07
         -8.07  -8.07  -8.07  -8.07  -7.86  -7.86  -7.78  -7.78  -7.78  -7.78
         -7.78  -7.78  -7.78  -7.78  -7.72  -7.72  -7.72  -7.72  -7.72  -7.72
         -7.72  -7.72  -7.49  -7.49  -7.49  -7.49  -7.49  -7.49  -7.49  -7.49
         -7.25  -7.25  -7.25  -7.25  -7.25  -7.25  -7.25  -7.25  -7.21  -7.21
         -7.21  -7.21  -6.42  -6.42  -6.27  -6.27  -6.27  -6.27  -6.27  -6.27
         -6.27  -6.27  -6.25  -6.25  -6.25  -6.25  -6.25  -6.25  -6.25  -6.25
         -6.10  -6.10  -6.10  -6.10  -6.10  -6.10  -6.10  -6.10  -5.87  -5.87
         -5.87  -5.87  -5.87  -5.87  -5.87  -5.87  -5.86  -5.86  -5.75  -5.75
         -5.75  -5.75  -5.43  -5.43  -5.43  -5.43  -5.29  -5.29  -5.29  -5.29
         -5.29  -5.29  -5.29  -5.29  -5.13  -5.13  -5.13  -5.13  -5.13  -5.13
         -5.13  -5.13  -5.13  -5.13  -5.13  -5.13  -5.06  -5.06  -4.82  -4.82
         -4.82  -4.82  -4.82  -4.82  -4.82  -4.82  -4.56  -4.56  -4.52  -4.52
         -4.52  -4.52  -2.64  -2.64  -2.64  -2.64  -2.64  -2.64  -2.64  -2.64
         -0.84  -0.84  -0.84  -0.84  -0.84  -0.84  -0.84  -0.84   1.81   1.81
          1.81   1.81
siesta: Fermi energy =      -2.793317 eV

siesta: Program's energy decomposition (eV):
siesta:-Eions   =  -38560.014795
siesta: Ena     =    2136.575093
siesta: Ekin    =   21516.075069
siesta: Enl     =   -8215.908969
siesta: DEna    =      14.997492
siesta: DUscf   =       0.047204
siesta: DUext   =       0.000000
siesta: Exc     =  -13370.867533
siesta: eta*DQ  =       0.000000
siesta: Emadel  =       0.000000
siesta: Ekinion =       0.000000
siesta: Eharris =  -36479.096535
siesta: Eso     =       0.000000
siesta: Etot    =  -36479.096441
siesta: FreeEng =  -36479.120924

siesta: Final energy (eV):
siesta:       Kinetic =   21516.075069
siesta:       Hartree =    3797.562530
siesta:    Ext. field =       0.000000
siesta:   Exch.-corr. =  -13370.867533
siesta:  Ion-electron =  -24225.785328
siesta:       Ion-ion =  -24196.081178
siesta:       Ekinion =       0.000000
siesta:         Total =  -36479.096441

siesta: Stress tensor (static) (eV/Ang**3):
siesta:    -0.045893   -0.000000   -0.000000
siesta:    -0.000000   -0.045893   -0.000000
siesta:    -0.000000   -0.000000   -0.024219

siesta: Cell volume =        579.259437 Ang**3

siesta: Pressure (static):
siesta:                Solid            Molecule  Units
siesta:           0.00042114          0.00042093  Ry/Bohr**3
siesta:           0.03866797          0.03864798  eV/Ang**3
siesta:          61.95359065         61.92155298  kBar

siesta: Total spin polarization (Qup-Qdown) =    0.000000
siesta: Spin vector =    0.000000    0.000000    0.000000
siesta: No SpinPolK block detected...
The transport is along the z direction.
 
* Maximum dynamic memory allocated : Node    0 =    27 MB
* Maximum dynamic memory allocated : Node    1 =    26 MB
* Maximum dynamic memory allocated : Node    2 =    26 MB
* Maximum dynamic memory allocated : Node    3 =    26 MB
* Maximum dynamic memory allocated : Node    4 =    25 MB
* Maximum dynamic memory allocated : Node    5 =    26 MB
* Maximum dynamic memory allocated : Node    6 =    25 MB
* Maximum dynamic memory allocated : Node    7 =    25 MB
* Maximum dynamic memory allocated : Node    8 =    25 MB
* Maximum dynamic memory allocated : Node    9 =    25 MB
* Maximum dynamic memory allocated : Node   10 =    26 MB
* Maximum dynamic memory allocated : Node   11 =    25 MB
* Maximum dynamic memory allocated : Node   12 =    25 MB
* Maximum dynamic memory allocated : Node   13 =    25 MB
* Maximum dynamic memory allocated : Node   14 =    25 MB
* Maximum dynamic memory allocated : Node   15 =    26 MB
* Maximum dynamic memory allocated : Node   16 =    25 MB
* Maximum dynamic memory allocated : Node   17 =    25 MB
* Maximum dynamic memory allocated : Node   18 =    25 MB
* Maximum dynamic memory allocated : Node   19 =    25 MB
* Maximum memory occured during bulktrans                     

timer: CPU execution times:
timer:  Routine       Calls   Time/call    Tot.time        %
timer:  siesta            1     265.446     265.446   100.00
timer:  Setup             1       5.735       5.735     2.16
timer:  bands             1       0.003       0.003     0.00
timer:  writewave         1       0.009       0.009     0.00
timer:  KSV_init          1       0.001       0.001     0.00
timer:  IterMD            1     221.759     221.759    83.54
timer:  hsparse           2       1.472       2.944     1.11
timer:  overfsm           2       0.718       1.437     0.54
timer:  IterSCF           7      30.469     213.286    80.35
timer:  kinefsm           2       0.646       1.292     0.49
timer:  nlefsm            2      16.127      32.254    12.15
timer:  DHSCF             8      12.860     102.877    38.76
timer:  DHSCF1            1       1.183       1.183     0.45
timer:  DHSCF2            1      20.612      20.612     7.76
timer:  REORD            86       0.001       0.124     0.05
timer:  POISON            9       0.132       1.187     0.45
timer:  DHSCF3            8       8.805      70.437    26.54
timer:  rhoofd            8       4.831      38.644    14.56
timer:  CELLXC            8       0.053       0.422     0.16
timer:  vmat              7       3.541      24.785     9.34
timer:  diagon            6      10.678      64.067    24.14
timer:  cdiag           132       0.369      48.680    18.34
timer:  DHSCF4            1      10.485      10.485     3.95
timer:  dfscf             1       7.621       7.621     2.87
  
>> End of run:  17-NOV-2023  17:17:10
