ATOMS
H             3.25353201      5.72009504     18.92650888            -0.58682471      0.39450496      0.00161152
H             3.25912820      5.72513736     19.72876617             0.58682471     -0.39450496     -0.00161152
