ATOMS
H             3.25353201      5.72009504     18.92650888             0.70641677     -0.02865581      0.01241766
H             3.25912820      5.72513736     19.72876617             0.70641677     -0.02865581      0.01241766
