ATOMS
H             3.25353201      5.72009504     18.92650888             0.00503727     -0.17292655     -0.68561726
H             3.25912820      5.72513736     19.72876617             0.00503727     -0.17292655     -0.68561726
