ATOMS
H             3.25353201      5.72009504     18.92650888             0.03082174      0.68503668     -0.17255367
H             3.25912820      5.72513736     19.72876617             0.03082174      0.68503668     -0.17255367
