ATOMS
H             3.25353201      5.72009504     18.92650888            -0.39447384     -0.58680678      0.00694217
H             3.25912820      5.72513736     19.72876617             0.39447384      0.58680678     -0.00694217
