ATOMS
H             0.00000000      0.00000000     -0.01586883            -0.64233179      0.29565161     -0.00000290
H             0.00000000      0.00000000      0.74588125             0.64233179     -0.29565161      0.00000290
