 DBCSR| CPU Multiplication driver                                           XSMM
 DBCSR| Multrec recursion limit                                              512
 DBCSR| Multiplication stack size                                           1000
 DBCSR| Maximum elements for images                                    UNLIMITED
 DBCSR| Multiplicative factor virtual images                                   1
 DBCSR| Use multiplication densification                                       T
 DBCSR| Multiplication size stacks                                             3
 DBCSR| Use memory pool for CPU allocation                                     F
 DBCSR| Number of 3D layers                                               SINGLE
 DBCSR| Use MPI memory allocation                                              F
 DBCSR| Use RMA algorithm                                                      F
 DBCSR| Use Communication thread                                               T
 DBCSR| Communication thread load                                             87
 DBCSR| MPI: My node id                                                        0
 DBCSR| MPI: Number of nodes                                                 240
 DBCSR| OMP: Current number of threads                                         1
 DBCSR| OMP: Max number of threads                                             1
 DBCSR| Split modifier for TAS multiplication algorithm                  1.0E+00


  **** **** ******  **  PROGRAM STARTED AT               2023-02-20 21:57:50.562
 ***** ** ***  *** **   PROGRAM STARTED ON                 cn1066.scarf.rl.ac.uk
 **    ****   ******    PROGRAM STARTED BY                             scarf1157
 ***** **    ** ** **   PROGRAM PROCESS ID                                 19247
  **** **  *******  **  PROGRAM STARTED IN /work4/scd/scarf1157/work/testing/cp2
                                           k-smeagol/bdt/cp2k/hollow-site/transp
                                           ort-cp2k/5-4/geometry-ordered/3x3-4/s
                                           z/bulk_layers-4/kpoints_bulk-100_em-1
                                           -1-1

 CP2K| version string:                 CP2K version 2022.1 (Development Version)
 CP2K| source code revision number:                                  git:1ef701d
 CP2K| cp2kflags: omp fftw3 libxc parallel mpi3 scalapack xsmm spglib           
 CP2K| is freely available from                            https://www.cp2k.org/
 CP2K| Program compiled at                          Thu 26 Jan 13:39:53 GMT 2023
 CP2K| Program compiled on                                 cn1108.scarf.rl.ac.uk
 CP2K| Program compiled for                                                local
 CP2K| Data directory path    /home/vol07/scarf1157/code/smeagol/cp2k-smeagol/sc
 CP2K| Input file name                                                  3_0V.inp

 GLOBAL| Force Environment number                                              1
 GLOBAL| Basis set file name                                        BASIS_MOLOPT
 GLOBAL| Potential file name                                      GTH_POTENTIALS
 GLOBAL| MM Potential file name                                     MM_POTENTIAL
 GLOBAL| Coordinate file name                                             em.xyz
 GLOBAL| Method name                                                        CP2K
 GLOBAL| Project name                                                         0V
 GLOBAL| Run type                                                         ENERGY
 GLOBAL| FFT library                                                       FFTW3
 GLOBAL| Diagonalization library                                       ScaLAPACK
 GLOBAL| Orthonormality check for eigenvectors                          DISABLED
 GLOBAL| Matrix multiplication library                                 ScaLAPACK
 GLOBAL| All-to-all communication in single precision                          F
 GLOBAL| FFTs using library dependent lengths                                  T
 GLOBAL| Grid backend                                                       AUTO
 GLOBAL| Global print level                                               MEDIUM
 GLOBAL| MPI I/O enabled                                                       T
 GLOBAL| Total number of message passing processes                           240
 GLOBAL| Number of threads for this process                                    1
 GLOBAL| This output is from process                                           0
 GLOBAL| Stack size for threads created by OpenMP (OMP_STACKSIZE)        default
 GLOBAL| CPU model name                         AMD EPYC 7502P 32-Core Processor
 GLOBAL| CPUID                                                              1002

 MEMORY| system memory details [Kb]
 MEMORY|                        rank 0           min           max       average
 MEMORY| MemTotal            263896984     263896980     263896984     263896983
 MEMORY| MemFree             167115904     167115184     212720576     198816105
 MEMORY| Buffers                  2564          2564          2568          2566
 MEMORY| Cached               77988700      35513708      77988700      49202887
 MEMORY| Slab                  1159356       1007328       1159468       1072238
 MEMORY| SReclaimable           658556        528144        658556        587241
 MEMORY| MemLikelyFree       245765724     245763824     249260872     248608800


 *** Fundamental physical constants (SI units) ***

 *** Literature: B. J. Mohr and B. N. Taylor,
 ***             CODATA recommended values of the fundamental physical
 ***             constants: 2006, Web Version 5.1
 ***             http://physics.nist.gov/constants

 Speed of light in vacuum [m/s]                             2.99792458000000E+08
 Magnetic constant or permeability of vacuum [N/A**2]       1.25663706143592E-06
 Electric constant or permittivity of vacuum [F/m]          8.85418781762039E-12
 Planck constant (h) [J*s]                                  6.62606896000000E-34
 Planck constant (h-bar) [J*s]                              1.05457162825177E-34
 Elementary charge [C]                                      1.60217648700000E-19
 Electron mass [kg]                                         9.10938215000000E-31
 Electron g factor [ ]                                     -2.00231930436220E+00
 Proton mass [kg]                                           1.67262163700000E-27
 Fine-structure constant                                    7.29735253760000E-03
 Rydberg constant [1/m]                                     1.09737315685270E+07
 Avogadro constant [1/mol]                                  6.02214179000000E+23
 Boltzmann constant [J/K]                                   1.38065040000000E-23
 Atomic mass unit [kg]                                      1.66053878200000E-27
 Bohr radius [m]                                            5.29177208590000E-11

 *** Conversion factors ***

 [u] -> [a.u.]                                              1.82288848426455E+03
 [Angstrom] -> [Bohr] = [a.u.]                              1.88972613288564E+00
 [a.u.] = [Bohr] -> [Angstrom]                              5.29177208590000E-01
 [a.u.] -> [s]                                              2.41888432650478E-17
 [a.u.] -> [fs]                                             2.41888432650478E-02
 [a.u.] -> [J]                                              4.35974393937059E-18
 [a.u.] -> [N]                                              8.23872205491840E-08
 [a.u.] -> [K]                                              3.15774647902944E+05
 [a.u.] -> [kJ/mol]                                         2.62549961709828E+03
 [a.u.] -> [kcal/mol]                                       6.27509468713739E+02
 [a.u.] -> [Pa]                                             2.94210107994716E+13
 [a.u.] -> [bar]                                            2.94210107994716E+08
 [a.u.] -> [atm]                                            2.90362800883016E+08
 [a.u.] -> [eV]                                             2.72113838565563E+01
 [a.u.] -> [Hz]                                             6.57968392072181E+15
 [a.u.] -> [1/cm] (wave numbers)                            2.19474631370540E+05
 [a.u./Bohr**2] -> [1/cm]                                   5.14048714338585E+03
 

 CELL_TOP| Volume [angstrom^3]:                                      2357.480286
 CELL_TOP| Vector a [angstrom     8.336     0.000     0.000   |a| =     8.336000
 CELL_TOP| Vector b [angstrom     0.000     8.336     0.000   |b| =     8.336000
 CELL_TOP| Vector c [angstrom     0.000     0.000    33.926   |c| =    33.926000
 CELL_TOP| Angle (b,c), alpha [degree]:                                90.000000
 CELL_TOP| Angle (a,c), beta  [degree]:                                90.000000
 CELL_TOP| Angle (a,b), gamma [degree]:                                90.000000
 CELL_TOP| Numerically orthorhombic:                                         YES
 CELL_TOP| Periodicity                                                       XYZ

 GENERATE|  Preliminary Number of Bonds generated:                             0
 GENERATE|  Achieved consistency in connectivity generation.

 CELL| Volume [angstrom^3]:                                          2357.480286
 CELL| Vector a [angstrom]:       8.336     0.000     0.000   |a| =     8.336000
 CELL| Vector b [angstrom]:       0.000     8.336     0.000   |b| =     8.336000
 CELL| Vector c [angstrom]:       0.000     0.000    33.926   |c| =    33.926000
 CELL| Angle (b,c), alpha [degree]:                                    90.000000
 CELL| Angle (a,c), beta  [degree]:                                    90.000000
 CELL| Angle (a,b), gamma [degree]:                                    90.000000
 CELL| Numerically orthorhombic:                                             YES
 CELL| Periodicity                                                           XYZ

 CELL_REF| Volume [angstrom^3]:                                      2357.480286
 CELL_REF| Vector a [angstrom     8.336     0.000     0.000   |a| =     8.336000
 CELL_REF| Vector b [angstrom     0.000     8.336     0.000   |b| =     8.336000
 CELL_REF| Vector c [angstrom     0.000     0.000    33.926   |c| =    33.926000
 CELL_REF| Angle (b,c), alpha [degree]:                                90.000000
 CELL_REF| Angle (a,c), beta  [degree]:                                90.000000
 CELL_REF| Angle (a,b), gamma [degree]:                                90.000000
 CELL_REF| Numerically orthorhombic:                                         YES
 CELL_REF| Periodicity                                                       XYZ

 *******************************************************************************
                                    Kpoints
 *******************************************************************************
 BRILLOUIN| K-point scheme                                        Monkhorst-Pack
 BRILLOUIN| K-Point grid                                             1    1    1
 BRILLOUIN| Accuracy in Symmetry determination                      0.100000E-07
 BRILLOUIN| K-Point point group symmetrization                               OFF
 BRILLOUIN| Wavefunction type                                            COMPLEX
 BRILLOUIN| Use full k-point grid     
 BRILLOUIN| List of Kpoints [2 Pi/Bohr]                                        1
 BRILLOUIN| Number           Weight            X              Y              Z
 BRILLOUIN|     1           1.00000        0.00000        0.00000        0.00000
 *******************************************************************************

 *******************************************************************************
 *******************************************************************************
 **                                                                           **
 **     #####                         ##              ##                      **
 **    ##   ##            ##          ##              ##                      **
 **   ##     ##                       ##            ######                    **
 **   ##     ##  ##   ##  ##   #####  ##  ##   ####   ##    #####    #####    **
 **   ##     ##  ##   ##  ##  ##      ## ##   ##      ##   ##   ##  ##   ##   **
 **   ##  ## ##  ##   ##  ##  ##      ####     ###    ##   ######   ######    **
 **    ##  ###   ##   ##  ##  ##      ## ##      ##   ##   ##       ##        **
 **     #######   #####   ##   #####  ##  ##  ####    ##    #####   ##        **
 **           ##                                                    ##        **
 **                                                                           **
 **                                                ... make the atoms dance   **
 **                                                                           **
 **            Copyright (C) by CP2K developers group (2000-2022)             **
 **                      J. Chem. Phys. 152, 194103 (2020)                    **
 **                                                                           **
 *******************************************************************************

 DFT| Spin restricted Kohn-Sham (RKS) calculation                            RKS
 DFT| Multiplicity                                                             1
 DFT| Number of spin states                                                    1
 DFT| Charge                                                                   0
 DFT| Self-interaction correction (SIC)                                       NO
 DFT| Cutoffs: density                                              1.000000E-10
 DFT|          gradient                                             1.000000E-10
 DFT|          tau                                                  1.000000E-10
 DFT|          cutoff_smoothing_range                               0.000000E+00
 DFT| XC density smoothing                                                  NONE
 DFT| XC derivatives                                                          PW

 FUNCTIONAL| PADE:
 FUNCTIONAL| S. Goedecker, M. Teter and J. Hutter, Phys. Rev. B 54, 1703 (1996) 


 QS| Method:                                                                 GPW
 QS| Density plane wave grid type                        NON-SPHERICAL FULLSPACE
 QS| Number of grid levels:                                                    4
 QS| Density cutoff [a.u.]:                                                200.0
 QS| Multi grid cutoff [a.u.]: 1) grid level                               200.0
 QS|                           2) grid level                                66.7
 QS|                           3) grid level                                22.2
 QS|                           4) grid level                                 7.4
 QS| Grid level progression factor:                                          3.0
 QS| Relative density cutoff [a.u.]:                                        20.0
 QS| Interaction thresholds: eps_pgf_orb:                                1.0E-05
 QS|                         eps_filter_matrix:                          0.0E+00
 QS|                         eps_core_charge:                            1.0E-12
 QS|                         eps_rho_gspace:                             1.0E-10
 QS|                         eps_rho_rspace:                             1.0E-10
 QS|                         eps_gvg_rspace:                             1.0E-05
 QS|                         eps_ppl:                                    1.0E-02
 QS|                         eps_ppnl:                                   1.0E-07


 ATOMIC KIND INFORMATION

  1. Atomic kind: Au                                    Number of atoms:     104

     Orbital Basis Set                                         SZV-MOLOPT-SR-GTH

       Number of orbital shell sets:                                           1
       Number of orbital shells:                                               3
       Number of primitive Cartesian functions:                                5
       Number of Cartesian basis functions:                                   10
       Number of spherical basis functions:                                    9
       Norm type:                                                              2

       Normalised Cartesian orbitals:

                        Set   Shell   Orbital            Exponent    Coefficient

                          1       1    2s                2.950008       0.074626
                                                         1.563057      -0.007898
                                                         0.666664      -0.297688
                                                         0.251083       0.136809
                                                         0.081714       0.088198

                          1       2    3px               2.950008       0.148824
                                                         1.563057       0.025430
                                                         0.666664      -0.123003
                                                         0.251083       0.033648
                                                         0.081714       0.059008
                          1       2    3py               2.950008       0.148824
                                                         1.563057       0.025430
                                                         0.666664      -0.123003
                                                         0.251083       0.033648
                                                         0.081714       0.059008
                          1       2    3pz               2.950008       0.148824
                                                         1.563057       0.025430
                                                         0.666664      -0.123003
                                                         0.251083       0.033648
                                                         0.081714       0.059008

                          1       3    4dx2              2.950008      -0.139595
                                                         1.563057       1.319655
                                                         0.666664       0.377081
                                                         0.251083       0.046872
                                                         0.081714       0.001393
                          1       3    4dxy              2.950008      -0.241786
                                                         1.563057       2.285709
                                                         0.666664       0.653124
                                                         0.251083       0.081185
                                                         0.081714       0.002412
                          1       3    4dxz              2.950008      -0.241786
                                                         1.563057       2.285709
                                                         0.666664       0.653124
                                                         0.251083       0.081185
                                                         0.081714       0.002412
                          1       3    4dy2              2.950008      -0.139595
                                                         1.563057       1.319655
                                                         0.666664       0.377081
                                                         0.251083       0.046872
                                                         0.081714       0.001393
                          1       3    4dyz              2.950008      -0.241786
                                                         1.563057       2.285709
                                                         0.666664       0.653124
                                                         0.251083       0.081185
                                                         0.081714       0.002412
                          1       3    4dz2              2.950008      -0.139595
                                                         1.563057       1.319655
                                                         0.666664       0.377081
                                                         0.251083       0.046872
                                                         0.081714       0.001393

       Atomic covalent radius [Angstrom]:                                  1.340

       Atomic van der Waals radius [Angstrom]:                             1.660

     GTH Potential information for                                  GTH-PADE-q11

       Description:                       Goedecker-Teter-Hutter pseudopotential
                                           Goedecker et al., PRB 54, 1703 (1996)
                                          Hartwigsen et al., PRB 58, 3641 (1998)
                                                      Krack, TCA 114, 145 (2005)

       Gaussian exponent of the core charge distribution:               1.436369
       Electronic configuration (s p d ...):                           1   0  10

       Parameters of the local part of the GTH pseudopotential:

                          rloc        C1          C2          C3          C4
                        0.590000   11.604428

       Parameters of the non-local part of the GTH pseudopotential:

                   l      r(l)      h(i,j,l)

                   0    0.521180    2.538614   -1.046137
                                   -1.046137    2.701113
                   1    0.630613    0.394853   -0.869592
                                   -0.869592    2.057831
                   2    0.440706   -4.719070    0.727771
                                    0.727771   -1.650429

  2. Atomic kind: S                                     Number of atoms:       2

     Orbital Basis Set                                         SZV-MOLOPT-SR-GTH

       Number of orbital shell sets:                                           1
       Number of orbital shells:                                               2
       Number of primitive Cartesian functions:                                4
       Number of Cartesian basis functions:                                    4
       Number of spherical basis functions:                                    4
       Norm type:                                                              2

       Normalised Cartesian orbitals:

                        Set   Shell   Orbital            Exponent    Coefficient

                          1       1    2s                2.215855       0.308496
                                                         1.131471       0.138505
                                                         0.410168      -0.373736
                                                         0.140587      -0.040370

                          1       2    3px               2.215855       0.420434
                                                         1.131471      -0.319283
                                                         0.410168      -0.335323
                                                         0.140587      -0.030976
                          1       2    3py               2.215855       0.420434
                                                         1.131471      -0.319283
                                                         0.410168      -0.335323
                                                         0.140587      -0.030976
                          1       2    3pz               2.215855       0.420434
                                                         1.131471      -0.319283
                                                         0.410168      -0.335323
                                                         0.140587      -0.030976

       Atomic covalent radius [Angstrom]:                                  1.020

       Atomic van der Waals radius [Angstrom]:                             1.800

     GTH Potential information for                                   GTH-PADE-q6

       Description:                       Goedecker-Teter-Hutter pseudopotential
                                           Goedecker et al., PRB 54, 1703 (1996)
                                          Hartwigsen et al., PRB 58, 3641 (1998)
                                                      Krack, TCA 114, 145 (2005)

       Gaussian exponent of the core charge distribution:               2.834467
       Electronic configuration (s p d ...):                               2   4

       Parameters of the local part of the GTH pseudopotential:

                          rloc        C1          C2          C3          C4
                        0.420000   -6.554492

       Parameters of the non-local part of the GTH pseudopotential:

                   l      r(l)      h(i,j,l)

                   0    0.361757    7.905303   -1.731881
                                   -1.731881    4.471698
                   1    0.405285    3.866579

  3. Atomic kind: C                                     Number of atoms:       6

     Orbital Basis Set                                         SZV-MOLOPT-SR-GTH

       Number of orbital shell sets:                                           1
       Number of orbital shells:                                               2
       Number of primitive Cartesian functions:                                5
       Number of Cartesian basis functions:                                    4
       Number of spherical basis functions:                                    4
       Norm type:                                                              2

       Normalised Cartesian orbitals:

                        Set   Shell   Orbital            Exponent    Coefficient

                          1       1    2s                5.605331       0.322515
                                                         2.113016       0.213043
                                                         0.769911      -0.209686
                                                         0.348157      -0.219794
                                                         0.128212      -0.022789

                          1       2    3px               5.605331      -0.703879
                                                         2.113016      -0.642521
                                                         0.769911      -0.374851
                                                         0.348157      -0.139743
                                                         0.128212      -0.027849
                          1       2    3py               5.605331      -0.703879
                                                         2.113016      -0.642521
                                                         0.769911      -0.374851
                                                         0.348157      -0.139743
                                                         0.128212      -0.027849
                          1       2    3pz               5.605331      -0.703879
                                                         2.113016      -0.642521
                                                         0.769911      -0.374851
                                                         0.348157      -0.139743
                                                         0.128212      -0.027849

       Atomic covalent radius [Angstrom]:                                  0.770

       Atomic van der Waals radius [Angstrom]:                             1.700

     GTH Potential information for                                   GTH-PADE-q4

       Description:                       Goedecker-Teter-Hutter pseudopotential
                                           Goedecker et al., PRB 54, 1703 (1996)
                                          Hartwigsen et al., PRB 58, 3641 (1998)
                                                      Krack, TCA 114, 145 (2005)

       Gaussian exponent of the core charge distribution:               4.109048
       Electronic configuration (s p d ...):                               2   2

       Parameters of the local part of the GTH pseudopotential:

                          rloc        C1          C2          C3          C4
                        0.348830   -8.513771    1.228432

       Parameters of the non-local part of the GTH pseudopotential:

                   l      r(l)      h(i,j,l)

                   0    0.304553    9.522842
                   1    0.232677

  4. Atomic kind: H                                     Number of atoms:       4

     Orbital Basis Set                                         SZV-MOLOPT-SR-GTH

       Number of orbital shell sets:                                           1
       Number of orbital shells:                                               1
       Number of primitive Cartesian functions:                                5
       Number of Cartesian basis functions:                                    1
       Number of spherical basis functions:                                    1
       Norm type:                                                              2

       Normalised Cartesian orbitals:

                        Set   Shell   Orbital            Exponent    Coefficient

                          1       1    2s               10.068468      -0.133023
                                                         2.680223      -0.177618
                                                         0.791502      -0.258419
                                                         0.239116      -0.107525
                                                         0.082193      -0.014019

       Atomic covalent radius [Angstrom]:                                  0.320

       Atomic van der Waals radius [Angstrom]:                             1.090

     GTH Potential information for                                   GTH-PADE-q1

       Description:                       Goedecker-Teter-Hutter pseudopotential
                                           Goedecker et al., PRB 54, 1703 (1996)
                                          Hartwigsen et al., PRB 58, 3641 (1998)
                                                      Krack, TCA 114, 145 (2005)

       Gaussian exponent of the core charge distribution:              12.500000
       Electronic configuration (s p d ...):                                   1

       Parameters of the local part of the GTH pseudopotential:

                          rloc        C1          C2          C3          C4
                        0.200000   -4.180237    0.725075


 MOLECULE KIND INFORMATION


 All atoms are their own molecule, skipping detailed information


 TOTAL NUMBERS AND MAXIMUM NUMBERS

  Total number of            - Atomic kinds:                                   4
                             - Atoms:                                        116
                             - Shell sets:                                   116
                             - Shells:                                       332
                             - Primitive Cartesian functions:                578
                             - Cartesian basis functions:                   1076
                             - Spherical basis functions:                    972

  Maximum angular momentum of- Orbital basis functions:                        2
                             - Local part of the GTH pseudopotential:          2
                             - Non-local part of the GTH pseudopotential:      4


 MODULE QUICKSTEP: ATOMIC COORDINATES IN ANGSTROM

   Atom Kind Element         X             Y             Z       Z(eff)     Mass
      1    1 Au   79      0.000000      0.000000      0.000000  11.0000 196.9666
      2    1 Au   79      0.000000      4.168000      0.000000  11.0000 196.9666
      3    1 Au   79      2.084000      2.084000      0.000000  11.0000 196.9666
      4    1 Au   79      2.084000      6.252000      0.000000  11.0000 196.9666
      5    1 Au   79      4.168000      0.000000      0.000000  11.0000 196.9666
      6    1 Au   79      4.168000      4.168000      0.000000  11.0000 196.9666
      7    1 Au   79      6.252000      2.084000      0.000000  11.0000 196.9666
      8    1 Au   79      6.252000      6.252000      0.000000  11.0000 196.9666
      9    1 Au   79      0.000000      2.084000      2.084000  11.0000 196.9666
     10    1 Au   79      0.000000      6.252000      2.084000  11.0000 196.9666
     11    1 Au   79      2.084000      0.000000      2.084000  11.0000 196.9666
     12    1 Au   79      2.084000      4.168000      2.084000  11.0000 196.9666
     13    1 Au   79      4.168000      2.084000      2.084000  11.0000 196.9666
     14    1 Au   79      4.168000      6.252000      2.084000  11.0000 196.9666
     15    1 Au   79      6.252000      0.000000      2.084000  11.0000 196.9666
     16    1 Au   79      6.252000      4.168000      2.084000  11.0000 196.9666
     17    1 Au   79      0.000000      0.000000      4.168000  11.0000 196.9666
     18    1 Au   79      0.000000      4.168000      4.168000  11.0000 196.9666
     19    1 Au   79      2.084000      2.084000      4.168000  11.0000 196.9666
     20    1 Au   79      2.084000      6.252000      4.168000  11.0000 196.9666
     21    1 Au   79      4.168000      0.000000      4.168000  11.0000 196.9666
     22    1 Au   79      4.168000      4.168000      4.168000  11.0000 196.9666
     23    1 Au   79      6.252000      2.084000      4.168000  11.0000 196.9666
     24    1 Au   79      6.252000      6.252000      4.168000  11.0000 196.9666
     25    1 Au   79      0.000000      2.084000      6.252000  11.0000 196.9666
     26    1 Au   79      0.000000      6.252000      6.252000  11.0000 196.9666
     27    1 Au   79      2.084000      0.000000      6.252000  11.0000 196.9666
     28    1 Au   79      2.084000      4.168000      6.252000  11.0000 196.9666
     29    1 Au   79      4.168000      2.084000      6.252000  11.0000 196.9666
     30    1 Au   79      4.168000      6.252000      6.252000  11.0000 196.9666
     31    1 Au   79      6.252000      0.000000      6.252000  11.0000 196.9666
     32    1 Au   79      6.252000      4.168000      6.252000  11.0000 196.9666
     33    1 Au   79      0.000000      0.000000      8.336000  11.0000 196.9666
     34    1 Au   79      0.000000      4.168000      8.336000  11.0000 196.9666
     35    1 Au   79      2.084000      2.084000      8.336000  11.0000 196.9666
     36    1 Au   79      2.084000      6.252000      8.336000  11.0000 196.9666
     37    1 Au   79      4.168000      0.000000      8.336000  11.0000 196.9666
     38    1 Au   79      4.168000      4.168000      8.336000  11.0000 196.9666
     39    1 Au   79      6.252000      2.084000      8.336000  11.0000 196.9666
     40    1 Au   79      6.252000      6.252000      8.336000  11.0000 196.9666
     41    1 Au   79      0.000000      2.084000     10.420000  11.0000 196.9666
     42    1 Au   79      0.000000      6.252000     10.420000  11.0000 196.9666
     43    1 Au   79      2.084000      0.000000     10.420000  11.0000 196.9666
     44    1 Au   79      2.084000      4.168000     10.420000  11.0000 196.9666
     45    1 Au   79      4.168000      2.084000     10.420000  11.0000 196.9666
     46    1 Au   79      4.168000      6.252000     10.420000  11.0000 196.9666
     47    1 Au   79      6.252000      0.000000     10.420000  11.0000 196.9666
     48    1 Au   79      6.252000      4.168000     10.420000  11.0000 196.9666
     49    1 Au   79      0.000000      0.000000     12.504000  11.0000 196.9666
     50    1 Au   79      0.000000      4.168000     12.504000  11.0000 196.9666
     51    1 Au   79      2.084000      2.084000     12.504000  11.0000 196.9666
     52    1 Au   79      2.084000      6.252000     12.504000  11.0000 196.9666
     53    1 Au   79      4.168000      0.000000     12.504000  11.0000 196.9666
     54    1 Au   79      4.168000      4.168000     12.504000  11.0000 196.9666
     55    1 Au   79      6.252000      2.084000     12.504000  11.0000 196.9666
     56    1 Au   79      6.252000      6.252000     12.504000  11.0000 196.9666
     57    2 S    16      4.171000      2.086000     13.790000   6.0000  32.0650
     58    3 C     6      4.175000      2.089000     15.551000   4.0000  12.0107
     59    4 H     1      2.073000      2.116000     15.734000   1.0000   1.0079
     60    4 H     1      6.269000      2.116000     15.740000   1.0000   1.0079
     61    3 C     6      2.965000      2.095000     16.251000   4.0000  12.0107
     62    3 C     6      5.373000      2.095000     16.251000   4.0000  12.0107
     63    3 C     6      2.959000      2.074000     17.674000   4.0000  12.0107
     64    3 C     6      5.367000      2.074000     17.674000   4.0000  12.0107
     65    4 H     1      2.063000      2.053000     18.186000   1.0000   1.0079
     66    4 H     1      6.259000      2.053000     18.192000   1.0000   1.0079
     67    3 C     6      4.157000      2.080000     18.375000   4.0000  12.0107
     68    2 S    16      4.171000      2.086000     20.136000   6.0000  32.0650
     69    1 Au   79      0.000000      0.000000     21.422000  11.0000 196.9666
     70    1 Au   79      0.000000      4.168000     21.422000  11.0000 196.9666
     71    1 Au   79      2.084000      2.084000     21.422000  11.0000 196.9666
     72    1 Au   79      2.084000      6.252000     21.422000  11.0000 196.9666
     73    1 Au   79      4.168000      0.000000     21.422000  11.0000 196.9666
     74    1 Au   79      4.168000      4.168000     21.422000  11.0000 196.9666
     75    1 Au   79      6.252000      2.084000     21.422000  11.0000 196.9666
     76    1 Au   79      6.252000      6.252000     21.422000  11.0000 196.9666
     77    1 Au   79      0.000000      2.084000     23.506000  11.0000 196.9666
     78    1 Au   79      0.000000      6.252000     23.506000  11.0000 196.9666
     79    1 Au   79      2.084000      0.000000     23.506000  11.0000 196.9666
     80    1 Au   79      2.084000      4.168000     23.506000  11.0000 196.9666
     81    1 Au   79      4.168000      2.084000     23.506000  11.0000 196.9666
     82    1 Au   79      4.168000      6.252000     23.506000  11.0000 196.9666
     83    1 Au   79      6.252000      0.000000     23.506000  11.0000 196.9666
     84    1 Au   79      6.252000      4.168000     23.506000  11.0000 196.9666
     85    1 Au   79      0.000000      0.000000     25.590000  11.0000 196.9666
     86    1 Au   79      0.000000      4.168000     25.590000  11.0000 196.9666
     87    1 Au   79      2.084000      2.084000     25.590000  11.0000 196.9666
     88    1 Au   79      2.084000      6.252000     25.590000  11.0000 196.9666
     89    1 Au   79      4.168000      0.000000     25.590000  11.0000 196.9666
     90    1 Au   79      4.168000      4.168000     25.590000  11.0000 196.9666
     91    1 Au   79      6.252000      2.084000     25.590000  11.0000 196.9666
     92    1 Au   79      6.252000      6.252000     25.590000  11.0000 196.9666
     93    1 Au   79      0.000000      2.084000     27.674000  11.0000 196.9666
     94    1 Au   79      0.000000      6.252000     27.674000  11.0000 196.9666
     95    1 Au   79      2.084000      0.000000     27.674000  11.0000 196.9666
     96    1 Au   79      2.084000      4.168000     27.674000  11.0000 196.9666
     97    1 Au   79      4.168000      2.084000     27.674000  11.0000 196.9666
     98    1 Au   79      4.168000      6.252000     27.674000  11.0000 196.9666
     99    1 Au   79      6.252000      0.000000     27.674000  11.0000 196.9666
    100    1 Au   79      6.252000      4.168000     27.674000  11.0000 196.9666
    101    1 Au   79      0.000000      0.000000     29.758000  11.0000 196.9666
    102    1 Au   79      0.000000      4.168000     29.758000  11.0000 196.9666
    103    1 Au   79      2.084000      2.084000     29.758000  11.0000 196.9666
    104    1 Au   79      2.084000      6.252000     29.758000  11.0000 196.9666
    105    1 Au   79      4.168000      0.000000     29.758000  11.0000 196.9666
    106    1 Au   79      4.168000      4.168000     29.758000  11.0000 196.9666
    107    1 Au   79      6.252000      2.084000     29.758000  11.0000 196.9666
    108    1 Au   79      6.252000      6.252000     29.758000  11.0000 196.9666
    109    1 Au   79      0.000000      2.084000     31.842000  11.0000 196.9666
    110    1 Au   79      0.000000      6.252000     31.842000  11.0000 196.9666
    111    1 Au   79      2.084000      0.000000     31.842000  11.0000 196.9666
    112    1 Au   79      2.084000      4.168000     31.842000  11.0000 196.9666
    113    1 Au   79      4.168000      2.084000     31.842000  11.0000 196.9666
    114    1 Au   79      4.168000      6.252000     31.842000  11.0000 196.9666
    115    1 Au   79      6.252000      0.000000     31.842000  11.0000 196.9666
    116    1 Au   79      6.252000      4.168000     31.842000  11.0000 196.9666



 SCF PARAMETERS         Density guess:                                   RESTART
                        --------------------------------------------------------
                        max_scf:                                             100
                        max_scf_history:                                       0
                        max_diis:                                              4
                        --------------------------------------------------------
                        eps_scf:                                        1.00E-07
                        eps_scf_history:                                0.00E+00
                        eps_diis:                                       1.00E-01
                        eps_eigval:                                     1.00E-05
                        --------------------------------------------------------
                        level_shift [a.u.]:                             0.000000
                        added MOs                                       100    0
                        --------------------------------------------------------
                        Mixing method:                            BROYDEN_MIXING
                                                charge density mixing in g-space
                        --------------------------------------------------------
                        Smear method:                                FERMI_DIRAC
                        Electronic temperature [K]:                        293.0
                        Electronic temperature [a.u.]:                  9.28E-04
                        Accuracy threshold:                             1.00E-10
                        --------------------------------------------------------
                        No outer SCF

 PW_GRID| Information for grid number                                          1
 PW_GRID| Grid distributed over                                   240 processors
 PW_GRID| Real space group dimensions                                    12   20
 PW_GRID| the grid is blocked:                                               YES
 PW_GRID| Cutoff [a.u.]                                                    200.0
 PW_GRID| spherical cutoff:                                                   NO
 PW_GRID|   Bounds   1            -52      52                Points:         105
 PW_GRID|   Bounds   2            -52      52                Points:         105
 PW_GRID|   Bounds   3           -210     209                Points:         420
 PW_GRID| Volume element (a.u.^3)  0.3436E-02     Volume (a.u.^3)     15909.0657
 PW_GRID| Grid span                                                    FULLSPACE
 PW_GRID|   Distribution                         Average         Max         Min
 PW_GRID|   G-Vectors                            19293.8       19845       17640
 PW_GRID|   G-Rays                                 183.8         189         168
 PW_GRID|   Real Space Points                    19293.8       19845       17640

 PW_GRID| Information for grid number                                          2
 PW_GRID| Number of the reference grid                                         1
 PW_GRID| Grid distributed over                                   240 processors
 PW_GRID| Real space group dimensions                                    12   20
 PW_GRID| the grid is blocked:                                                NO
 PW_GRID| Cutoff [a.u.]                                                     66.7
 PW_GRID| spherical cutoff:                                                   NO
 PW_GRID|   Bounds   1            -30      29                Points:          60
 PW_GRID|   Bounds   2            -30      29                Points:          60
 PW_GRID|   Bounds   3           -120     119                Points:         240
 PW_GRID| Volume element (a.u.^3)  0.1841E-01     Volume (a.u.^3)     15909.0657
 PW_GRID| Grid span                                                    FULLSPACE
 PW_GRID|   Distribution                         Average         Max         Min
 PW_GRID|   G-Vectors                             3600.0       11340           0
 PW_GRID|   G-Rays                                  60.0         189           0
 PW_GRID|   Real Space Points                     3600.0        3600        3600

 PW_GRID| Information for grid number                                          3
 PW_GRID| Number of the reference grid                                         1
 PW_GRID| Grid distributed over                                   240 processors
 PW_GRID| Real space group dimensions                                    12   20
 PW_GRID| the grid is blocked:                                                NO
 PW_GRID| Cutoff [a.u.]                                                     22.2
 PW_GRID| spherical cutoff:                                                   NO
 PW_GRID|   Bounds   1            -16      16                Points:          33
 PW_GRID|   Bounds   2            -16      16                Points:          33
 PW_GRID|   Bounds   3            -70      69                Points:         140
 PW_GRID| Volume element (a.u.^3)  0.1043         Volume (a.u.^3)     15909.0657
 PW_GRID| Grid span                                                    FULLSPACE
 PW_GRID|   Distribution                         Average         Max         Min
 PW_GRID|   G-Vectors                              635.2        6237           0
 PW_GRID|   G-Rays                                  19.2         189           0
 PW_GRID|   Real Space Points                      635.2         840         280

 PW_GRID| Information for grid number                                          4
 PW_GRID| Number of the reference grid                                         1
 PW_GRID| Grid distributed over                                   240 processors
 PW_GRID| Real space group dimensions                                    12   20
 PW_GRID| the grid is blocked:                                                NO
 PW_GRID| Cutoff [a.u.]                                                      7.4
 PW_GRID| spherical cutoff:                                                   NO
 PW_GRID|   Bounds   1            -10       9                Points:          20
 PW_GRID|   Bounds   2            -10       9                Points:          20
 PW_GRID|   Bounds   3            -40      39                Points:          80
 PW_GRID| Volume element (a.u.^3)  0.4972         Volume (a.u.^3)     15909.0657
 PW_GRID| Grid span                                                    FULLSPACE
 PW_GRID|   Distribution                         Average         Max         Min
 PW_GRID|   G-Vectors                              133.3        3780           0
 PW_GRID|   G-Rays                                   6.7         189           0
 PW_GRID|   Real Space Points                      133.3         160          80

 POISSON| Solver                                                        PERIODIC
 POISSON| Periodicity                                                        XYZ

 RS_GRID| Information for grid number                                          1
 RS_GRID|   Bounds   1            -52      52                Points:         105
 RS_GRID|   Bounds   2            -52      52                Points:         105
 RS_GRID|   Bounds   3           -210     209                Points:         420
 RS_GRID| Real space distribution over                                  8 groups
 RS_GRID| Real space distribution along direction                              2
 RS_GRID| Border size                                                         30
 RS_GRID| Real space distribution over                                 30 groups
 RS_GRID| Real space distribution along direction                              3
 RS_GRID| Border size                                                         30
 RS_GRID|   Distribution                         Average         Max         Min
 RS_GRID|   Planes                                  73.1          74          73
 RS_GRID|   Distribution                         Average         Max         Min
 RS_GRID|   Planes                                  74.0          74          74

 RS_GRID| Information for grid number                                          2
 RS_GRID|   Bounds   1            -30      29                Points:          60
 RS_GRID|   Bounds   2            -30      29                Points:          60
 RS_GRID|   Bounds   3           -120     119                Points:         240
 RS_GRID| Real space distribution over                                  8 groups
 RS_GRID| Real space distribution along direction                              2
 RS_GRID| Border size                                                         21
 RS_GRID| Real space distribution over                                 30 groups
 RS_GRID| Real space distribution along direction                              3
 RS_GRID| Border size                                                         21
 RS_GRID|   Distribution                         Average         Max         Min
 RS_GRID|   Planes                                  49.5          50          49
 RS_GRID|   Distribution                         Average         Max         Min
 RS_GRID|   Planes                                  50.0          50          50

 RS_GRID| Information for grid number                                          3
 RS_GRID|   Bounds   1            -16      16                Points:          33
 RS_GRID|   Bounds   2            -16      16                Points:          33
 RS_GRID|   Bounds   3            -70      69                Points:         140
 RS_GRID| Real space fully replicated
 RS_GRID| Group size                                                           1

 RS_GRID| Information for grid number                                          4
 RS_GRID|   Bounds   1            -10       9                Points:          20
 RS_GRID|   Bounds   2            -10       9                Points:          20
 RS_GRID|   Bounds   3            -40      39                Points:          80
 RS_GRID| Real space fully replicated
 RS_GRID| Group size                                                           1

 KPOINTS| Number of kpoint groups                                              1
 KPOINTS| Size of each kpoint group                                          240
 KPOINTS| Number of kpoints per group                                          1

 Number of electrons:                                                       1184
 Number of occupied orbitals:                                                592
 Number of molecular orbitals:                                               692

 Number of orbital functions:                                                972
 Number of independent orbital functions:                                    972

 Extrapolation method: initial_guess


 SCF WAVEFUNCTION OPTIMIZATION

  Step     Update method      Time    Convergence         Total energy    Change
  ------------------------------------------------------------------------------
 Using HartreeLeadsBottom   0.0000000000000000     
 v_hartree_z_average(0)   0.0000000000000000     
     1 NoMix/SMGL  0.30E+00   17.8     0.55901738     -3517.6022853093 -3.52E+03
 Using HartreeLeadsBottom   0.0000000000000000     
 v_hartree_z_average(0)   0.0000000000000000     
     2 Broy./SMGL  0.30E+00    6.7     0.25275641     -3489.8374094785  2.78E+01
 Using HartreeLeadsBottom   0.0000000000000000     
 v_hartree_z_average(0)   0.0000000000000000     
     3 Broy./SMGL  0.30E+00    6.6     0.23676524     -3508.1387614978 -1.83E+01
 Using HartreeLeadsBottom   0.0000000000000000     
 v_hartree_z_average(0)   0.0000000000000000     
     4 Broy./SMGL  0.30E+00    6.7     0.24022741     -3544.3178098776 -3.62E+01
 Using HartreeLeadsBottom   0.0000000000000000     
 v_hartree_z_average(0)   0.0000000000000000     
     5 Broy./SMGL  0.30E+00    6.7     0.09344054     -3504.1160606911  4.02E+01
 Using HartreeLeadsBottom   0.0000000000000000     
 v_hartree_z_average(0)   0.0000000000000000     
     6 Broy./SMGL  0.30E+00    9.0     0.10191143     -3509.0930901761 -4.98E+00
 Using HartreeLeadsBottom   0.0000000000000000     
 v_hartree_z_average(0)   0.0000000000000000     
     7 Broy./SMGL  0.30E+00    6.7     0.04017648     -3504.9232504740  4.17E+00
 Using HartreeLeadsBottom   0.0000000000000000     
 v_hartree_z_average(0)   0.0000000000000000     
     8 Broy./SMGL  0.30E+00    6.8     0.13018909     -3505.3710568354 -4.48E-01
 Using HartreeLeadsBottom   0.0000000000000000     
 v_hartree_z_average(0)   0.0000000000000000     
     9 Broy./SMGL  0.30E+00    6.7     0.07185383     -3513.3487135641 -7.98E+00
 Using HartreeLeadsBottom   0.0000000000000000     
 v_hartree_z_average(0)   0.0000000000000000     
    10 Broy./SMGL  0.30E+00    6.7     0.03773990     -3518.7427898331 -5.39E+00
 Using HartreeLeadsBottom   0.0000000000000000     
 v_hartree_z_average(0)   0.0000000000000000     
    11 Broy./SMGL  0.30E+00    6.7     0.02785060     -3517.4632679780  1.28E+00
 Using HartreeLeadsBottom   0.0000000000000000     
 v_hartree_z_average(0)   0.0000000000000000     
    12 Broy./SMGL  0.30E+00    6.9     0.02075099     -3517.1188945289  3.44E-01
 Using HartreeLeadsBottom   0.0000000000000000     
 v_hartree_z_average(0)   0.0000000000000000     
    13 Broy./SMGL  0.30E+00    7.3     0.01069565     -3516.3982801002  7.21E-01
 Using HartreeLeadsBottom   0.0000000000000000     
 v_hartree_z_average(0)   0.0000000000000000     
    14 Broy./SMGL  0.30E+00    6.7     0.03646329     -3516.9603724563 -5.62E-01
 Using HartreeLeadsBottom   0.0000000000000000     
 v_hartree_z_average(0)   0.0000000000000000     
    15 Broy./SMGL  0.30E+00    6.8     0.01685568     -3514.9951839736  1.97E+00
 Using HartreeLeadsBottom   0.0000000000000000     
 v_hartree_z_average(0)   0.0000000000000000     
    16 Broy./SMGL  0.30E+00    6.8     0.01768445     -3515.6907873944 -6.96E-01
 Using HartreeLeadsBottom   0.0000000000000000     
 v_hartree_z_average(0)   0.0000000000000000     
    17 Broy./SMGL  0.30E+00    6.7     0.00523361     -3516.4863583567 -7.96E-01
 Using HartreeLeadsBottom   0.0000000000000000     
 v_hartree_z_average(0)   0.0000000000000000     
    18 Broy./SMGL  0.30E+00    6.8     0.01054671     -3516.3219497961  1.64E-01
 Using HartreeLeadsBottom   0.0000000000000000     
 v_hartree_z_average(0)   0.0000000000000000     
    19 Broy./SMGL  0.30E+00    6.7     0.00570847     -3516.8020759836 -4.80E-01
 Using HartreeLeadsBottom   0.0000000000000000     
 v_hartree_z_average(0)   0.0000000000000000     
    20 Broy./SMGL  0.30E+00    6.7     0.00190368     -3516.6437708269  1.58E-01
 Using HartreeLeadsBottom   0.0000000000000000     
 v_hartree_z_average(0)   0.0000000000000000     
    21 Broy./SMGL  0.30E+00    6.6     0.00061961     -3516.7403459775 -9.66E-02
 Using HartreeLeadsBottom   0.0000000000000000     
 v_hartree_z_average(0)   0.0000000000000000     
    22 Broy./SMGL  0.30E+00    6.7     0.00222990     -3516.7551395414 -1.48E-02
 Using HartreeLeadsBottom   0.0000000000000000     
 v_hartree_z_average(0)   0.0000000000000000     
    23 Broy./SMGL  0.30E+00    6.6     0.00265133     -3516.7795426729 -2.44E-02
 Using HartreeLeadsBottom   0.0000000000000000     
 v_hartree_z_average(0)   0.0000000000000000     
    24 Broy./SMGL  0.30E+00    6.7     0.00259339     -3516.7838734883 -4.33E-03
 Using HartreeLeadsBottom   0.0000000000000000     
 v_hartree_z_average(0)   0.0000000000000000     
    25 Broy./SMGL  0.30E+00    7.1     0.00265084     -3516.7743003294  9.57E-03
 Using HartreeLeadsBottom   0.0000000000000000     
 v_hartree_z_average(0)   0.0000000000000000     
    26 Broy./SMGL  0.30E+00    7.1     0.00265084     -3516.7709898209  3.31E-03
 Using HartreeLeadsBottom   0.0000000000000000     
 v_hartree_z_average(0)   0.0000000000000000     
    27 Broy./SMGL  0.30E+00    6.7     0.00265097     -3516.7683224083  2.67E-03
 Using HartreeLeadsBottom   0.0000000000000000     
 v_hartree_z_average(0)   0.0000000000000000     
    28 Broy./SMGL  0.30E+00    6.6     0.00224701     -3516.7713049465 -2.98E-03
 Using HartreeLeadsBottom   0.0000000000000000     
 v_hartree_z_average(0)   0.0000000000000000     
    29 Broy./SMGL  0.30E+00    6.6     0.00222942     -3516.7703404335  9.65E-04
 Using HartreeLeadsBottom   0.0000000000000000     
 v_hartree_z_average(0)   0.0000000000000000     
    30 Broy./SMGL  0.30E+00    6.7     0.00224798     -3516.7724205034 -2.08E-03
 Using HartreeLeadsBottom   0.0000000000000000     
 v_hartree_z_average(0)   0.0000000000000000     
    31 Broy./SMGL  0.30E+00    6.8     0.00002489     -3516.7717487220  6.72E-04
 Using HartreeLeadsBottom   0.0000000000000000     
 v_hartree_z_average(0)   0.0000000000000000     
    32 Broy./SMGL  0.30E+00    6.6     0.00004882     -3516.7726477085 -8.99E-04
 Using HartreeLeadsBottom   0.0000000000000000     
 v_hartree_z_average(0)   0.0000000000000000     
    33 Broy./SMGL  0.30E+00    6.7     0.00008572     -3516.7721056118  5.42E-04
 Using HartreeLeadsBottom   0.0000000000000000     
 v_hartree_z_average(0)   0.0000000000000000     
    34 Broy./SMGL  0.30E+00    6.8     0.00008572     -3516.7725153495 -4.10E-04
 Using HartreeLeadsBottom   0.0000000000000000     
 v_hartree_z_average(0)   0.0000000000000000     
    35 Broy./SMGL  0.30E+00    6.7     0.00006034     -3516.7722466247  2.69E-04
 Using HartreeLeadsBottom   0.0000000000000000     
 v_hartree_z_average(0)   0.0000000000000000     
    36 Broy./SMGL  0.30E+00    6.7     0.00005096     -3516.7720250649  2.22E-04
 Using HartreeLeadsBottom   0.0000000000000000     
 v_hartree_z_average(0)   0.0000000000000000     
    37 Broy./SMGL  0.30E+00    7.0     0.00004882     -3516.7721482158 -1.23E-04
 Using HartreeLeadsBottom   0.0000000000000000     
 v_hartree_z_average(0)   0.0000000000000000     
    38 Broy./SMGL  0.30E+00    7.0     0.00004881     -3516.7720312316  1.17E-04
 Using HartreeLeadsBottom   0.0000000000000000     
 v_hartree_z_average(0)   0.0000000000000000     
    39 Broy./SMGL  0.30E+00    6.7     0.00003135     -3516.7720411816 -9.95E-06
 Using HartreeLeadsBottom   0.0000000000000000     
 v_hartree_z_average(0)   0.0000000000000000     
    40 Broy./SMGL  0.30E+00    8.8     0.00222978     -3516.7721119509 -7.08E-05
 Using HartreeLeadsBottom   0.0000000000000000     
 v_hartree_z_average(0)   0.0000000000000000     
    41 Broy./SMGL  0.30E+00    6.8     0.00001020     -3516.7721036637  8.29E-06
 Using HartreeLeadsBottom   0.0000000000000000     
 v_hartree_z_average(0)   0.0000000000000000     
    42 Broy./SMGL  0.30E+00    6.8     0.00008572     -3516.7720988881  4.78E-06
 Using HartreeLeadsBottom   0.0000000000000000     
 v_hartree_z_average(0)   0.0000000000000000     
    43 Broy./SMGL  0.30E+00    6.7     0.00008572     -3516.7720938390  5.05E-06
 Using HartreeLeadsBottom   0.0000000000000000     
 v_hartree_z_average(0)   0.0000000000000000     
    44 Broy./SMGL  0.30E+00    6.7     0.00006035     -3516.7720914557  2.38E-06
 Using HartreeLeadsBottom   0.0000000000000000     
 v_hartree_z_average(0)   0.0000000000000000     
    45 Broy./SMGL  0.30E+00    6.7     0.00000074     -3516.7720921051 -6.49E-07
 Using HartreeLeadsBottom   0.0000000000000000     
 v_hartree_z_average(0)   0.0000000000000000     
    46 Broy./SMGL  0.30E+00    6.6     0.00000074     -3516.7720954000 -3.29E-06
 Using HartreeLeadsBottom   0.0000000000000000     
 v_hartree_z_average(0)   0.0000000000000000     
    47 Broy./SMGL  0.30E+00    6.7     0.00000906     -3516.7720987100 -3.31E-06
 Using HartreeLeadsBottom   0.0000000000000000     
 v_hartree_z_average(0)   0.0000000000000000     
    48 Broy./SMGL  0.30E+00    6.7     0.00008572     -3516.7720970604  1.65E-06
 Using HartreeLeadsBottom   0.0000000000000000     
 v_hartree_z_average(0)   0.0000000000000000     
    49 Broy./SMGL  0.30E+00    6.7     0.00008572     -3516.7720983335 -1.27E-06
 Using HartreeLeadsBottom   0.0000000000000000     
 v_hartree_z_average(0)   0.0000000000000000     
    50 Broy./SMGL  0.30E+00    7.1     0.00000004     -3516.7720987601 -4.27E-07

  *** SCF run converged in    50 steps ***


  Electronic density on regular grids:      -1186.5495602106       -2.5495602106
  Core density on regular grids:             1183.9999998085       -0.0000001915
  Total charge density on r-space grids:       -2.5495604021
  Total charge density g-space grids:          -2.5495604021

  Overlap energy of the core charge distribution:               0.00001347459308
  Self energy of the core charge distribution:              -6148.38221378166963
  Core Hamiltonian energy:                                   1943.41963917585781
  Hartree energy:                                            1244.23864488809545
  Exchange-correlation energy:                               -556.04818251697532
  Electronic entropic energy:                                   0.00000000000000
  Fermi energy:                                                 0.00000000000000

  Total energy:                                             -3516.77209876009874

 The electron density is written in cube file format to the file:

 0V-ELECTRON_DENSITY-1_0.cube

 !-----------------------------------------------------------------------------!
                     Mulliken Population Analysis

 #  Atom  Element  Kind  Atomic population                           Net charge
       1     Au       1         10.992557                              0.007443
       2     Au       1         10.992533                              0.007467
       3     Au       1         10.994267                              0.005733
       4     Au       1         10.992849                              0.007151
       5     Au       1         10.993582                              0.006418
       6     Au       1         10.993574                              0.006426
       7     Au       1         10.994319                              0.005681
       8     Au       1         10.992810                              0.007190
       9     Au       1         11.000244                             -0.000244
      10     Au       1         11.000423                             -0.000423
      11     Au       1         10.999932                              0.000068
      12     Au       1         10.999913                              0.000087
      13     Au       1         10.999188                              0.000812
      14     Au       1         11.000131                             -0.000131
      15     Au       1         10.999912                              0.000088
      16     Au       1         10.999892                              0.000108
      17     Au       1         10.997874                              0.002126
      18     Au       1         10.997850                              0.002150
      19     Au       1         10.998308                              0.001692
      20     Au       1         10.998375                              0.001625
      21     Au       1         10.998134                              0.001866
      22     Au       1         10.998142                              0.001858
      23     Au       1         10.998330                              0.001670
      24     Au       1         10.998337                              0.001663
      25     Au       1         11.002569                             -0.002569
      26     Au       1         11.017815                             -0.017815
      27     Au       1         11.001371                             -0.001371
      28     Au       1         11.001414                             -0.001414
      29     Au       1         11.011562                             -0.011562
      30     Au       1         11.002390                             -0.002390
      31     Au       1         11.001336                             -0.001336
      32     Au       1         11.001376                             -0.001376
      33     Au       1         11.099727                             -0.099727
      34     Au       1         11.099728                             -0.099728
      35     Au       1         11.114414                             -0.114414
      36     Au       1         11.100112                             -0.100112
      37     Au       1         11.113873                             -0.113873
      38     Au       1         11.113823                             -0.113823
      39     Au       1         11.114319                             -0.114319
      40     Au       1         11.100256                             -0.100256
      41     Au       1         10.960784                              0.039216
      42     Au       1         10.999840                              0.000160
      43     Au       1         10.941839                              0.058161
      44     Au       1         10.941711                              0.058289
      45     Au       1         10.944855                              0.055145
      46     Au       1         10.964854                              0.035146
      47     Au       1         10.941576                              0.058424
      48     Au       1         10.941448                              0.058552
      49     Au       1         11.127674                             -0.127674
      50     Au       1         11.128202                             -0.128202
      51     Au       1         11.283824                             -0.283824
      52     Au       1         11.122685                             -0.122685
      53     Au       1         11.253496                             -0.253496
      54     Au       1         11.254521                             -0.254521
      55     Au       1         11.284846                             -0.284846
      56     Au       1         11.122677                             -0.122677
      57     S        2          5.311963                              0.688037
      58     C        3          4.082099                             -0.082099
      59     H        4          0.845229                              0.154771
      60     H        4          0.844770                              0.155230
      61     C        3          4.111185                             -0.111185
      62     C        3          4.113471                             -0.113471
      63     C        3          4.113404                             -0.113404
      64     C        3          4.111092                             -0.111092
      65     H        4          0.845019                              0.154981
      66     H        4          0.845721                              0.154279
      67     C        3          4.082638                             -0.082638
      68     S        2          5.311674                              0.688326
      69     Au       1         11.090427                             -0.090427
      70     Au       1         11.089916                             -0.089916
      71     Au       1         11.251699                             -0.251699
      72     Au       1         11.085069                             -0.085069
      73     Au       1         11.222435                             -0.222435
      74     Au       1         11.222656                             -0.222656
      75     Au       1         11.252634                             -0.252634
      76     Au       1         11.085061                             -0.085061
      77     Au       1         11.092840                             -0.092840
      78     Au       1         11.155057                             -0.155057
      79     Au       1         11.080344                             -0.080344
      80     Au       1         11.080214                             -0.080214
      81     Au       1         11.088837                             -0.088837
      82     Au       1         11.096332                             -0.096332
      83     Au       1         11.080241                             -0.080241
      84     Au       1         11.080108                             -0.080108
      85     Au       1         10.981065                              0.018935
      86     Au       1         10.981026                              0.018974
      87     Au       1         10.995427                              0.004573
      88     Au       1         10.982015                              0.017985
      89     Au       1         10.994217                              0.005783
      90     Au       1         10.994156                              0.005844
      91     Au       1         10.995319                              0.004681
      92     Au       1         10.981896                              0.018104
      93     Au       1         10.998958                              0.001042
      94     Au       1         10.997759                              0.002241
      95     Au       1         10.997436                              0.002564
      96     Au       1         10.997443                              0.002557
      97     Au       1         10.996932                              0.003068
      98     Au       1         10.999029                              0.000971
      99     Au       1         10.997438                              0.002562
     100     Au       1         10.997445                              0.002555
     101     Au       1         10.997776                              0.002224
     102     Au       1         10.997772                              0.002228
     103     Au       1         10.998318                              0.001682
     104     Au       1         10.998036                              0.001964
     105     Au       1         10.997816                              0.002184
     106     Au       1         10.997835                              0.002165
     107     Au       1         10.998356                              0.001644
     108     Au       1         10.998025                              0.001975
     109     Au       1         10.999481                              0.000519
     110     Au       1         10.999924                              0.000076
     111     Au       1         10.990880                              0.009120
     112     Au       1         10.990845                              0.009155
     113     Au       1         11.001525                             -0.001525
     114     Au       1         10.999215                              0.000785
     115     Au       1         10.990850                              0.009150
     116     Au       1         10.990814                              0.009186
 # Total charge                           1186.549560                 -2.549560

 !-----------------------------------------------------------------------------!

 !-----------------------------------------------------------------------------!
                           Hirshfeld Charges

  #Atom  Element  Kind  Ref Charge     Population                    Net charge
      1       Au     1      11.000         10.996                         0.004
      2       Au     1      11.000         10.995                         0.005
      3       Au     1      11.000         10.996                         0.004
      4       Au     1      11.000         10.996                         0.004
      5       Au     1      11.000         10.995                         0.005
      6       Au     1      11.000         10.995                         0.005
      7       Au     1      11.000         10.996                         0.004
      8       Au     1      11.000         10.996                         0.004
      9       Au     1      11.000         11.001                        -0.001
     10       Au     1      11.000         11.001                        -0.001
     11       Au     1      11.000         11.001                        -0.001
     12       Au     1      11.000         11.001                        -0.001
     13       Au     1      11.000         11.001                        -0.001
     14       Au     1      11.000         11.001                        -0.001
     15       Au     1      11.000         11.001                        -0.001
     16       Au     1      11.000         11.001                        -0.001
     17       Au     1      11.000         11.004                        -0.004
     18       Au     1      11.000         11.004                        -0.004
     19       Au     1      11.000         11.004                        -0.004
     20       Au     1      11.000         11.004                        -0.004
     21       Au     1      11.000         11.004                        -0.004
     22       Au     1      11.000         11.004                        -0.004
     23       Au     1      11.000         11.004                        -0.004
     24       Au     1      11.000         11.004                        -0.004
     25       Au     1      11.000         11.051                        -0.051
     26       Au     1      11.000         11.058                        -0.058
     27       Au     1      11.000         11.056                        -0.056
     28       Au     1      11.000         11.056                        -0.056
     29       Au     1      11.000         11.056                        -0.056
     30       Au     1      11.000         11.052                        -0.052
     31       Au     1      11.000         11.056                        -0.056
     32       Au     1      11.000         11.056                        -0.056
     33       Au     1      11.000         11.048                        -0.048
     34       Au     1      11.000         11.048                        -0.048
     35       Au     1      11.000         11.049                        -0.049
     36       Au     1      11.000         11.047                        -0.047
     37       Au     1      11.000         11.049                        -0.049
     38       Au     1      11.000         11.049                        -0.049
     39       Au     1      11.000         11.049                        -0.049
     40       Au     1      11.000         11.047                        -0.047
     41       Au     1      11.000         10.996                         0.004
     42       Au     1      11.000         11.007                        -0.007
     43       Au     1      11.000         11.017                        -0.017
     44       Au     1      11.000         11.017                        -0.017
     45       Au     1      11.000         11.013                        -0.013
     46       Au     1      11.000         10.995                         0.005
     47       Au     1      11.000         11.017                        -0.017
     48       Au     1      11.000         11.017                        -0.017
     49       Au     1      11.000         11.087                        -0.087
     50       Au     1      11.000         11.087                        -0.087
     51       Au     1      11.000         11.032                        -0.032
     52       Au     1      11.000         11.086                        -0.086
     53       Au     1      11.000         11.039                        -0.039
     54       Au     1      11.000         11.039                        -0.039
     55       Au     1      11.000         11.031                        -0.031
     56       Au     1      11.000         11.086                        -0.086
     57       S      2       6.000          5.936                         0.064
     58       C      3       4.000          4.009                        -0.009
     59       H      4       1.000          0.965                         0.035
     60       H      4       1.000          0.965                         0.035
     61       C      3       4.000          4.054                        -0.054
     62       C      3       4.000          4.055                        -0.055
     63       C      3       4.000          4.055                        -0.055
     64       C      3       4.000          4.054                        -0.054
     65       H      4       1.000          0.964                         0.036
     66       H      4       1.000          0.965                         0.035
     67       C      3       4.000          4.009                        -0.009
     68       S      2       6.000          5.935                         0.065
     69       Au     1      11.000         11.089                        -0.089
     70       Au     1      11.000         11.089                        -0.089
     71       Au     1      11.000         11.032                        -0.032
     72       Au     1      11.000         11.087                        -0.087
     73       Au     1      11.000         11.040                        -0.040
     74       Au     1      11.000         11.040                        -0.040
     75       Au     1      11.000         11.032                        -0.032
     76       Au     1      11.000         11.087                        -0.087
     77       Au     1      11.000         11.028                        -0.028
     78       Au     1      11.000         11.036                        -0.036
     79       Au     1      11.000         11.046                        -0.046
     80       Au     1      11.000         11.046                        -0.046
     81       Au     1      11.000         11.047                        -0.047
     82       Au     1      11.000         11.027                        -0.027
     83       Au     1      11.000         11.046                        -0.046
     84       Au     1      11.000         11.046                        -0.046
     85       Au     1      11.000         11.051                        -0.051
     86       Au     1      11.000         11.051                        -0.051
     87       Au     1      11.000         11.055                        -0.055
     88       Au     1      11.000         11.052                        -0.052
     89       Au     1      11.000         11.054                        -0.054
     90       Au     1      11.000         11.054                        -0.054
     91       Au     1      11.000         11.055                        -0.055
     92       Au     1      11.000         11.052                        -0.052
     93       Au     1      11.000         11.004                        -0.004
     94       Au     1      11.000         11.005                        -0.005
     95       Au     1      11.000         11.004                        -0.004
     96       Au     1      11.000         11.004                        -0.004
     97       Au     1      11.000         11.004                        -0.004
     98       Au     1      11.000         11.004                        -0.004
     99       Au     1      11.000         11.004                        -0.004
    100       Au     1      11.000         11.004                        -0.004
    101       Au     1      11.000         11.000                         0.000
    102       Au     1      11.000         11.000                         0.000
    103       Au     1      11.000         11.000                        -0.000
    104       Au     1      11.000         11.000                         0.000
    105       Au     1      11.000         11.000                         0.000
    106       Au     1      11.000         11.000                         0.000
    107       Au     1      11.000         11.000                        -0.000
    108       Au     1      11.000         11.000                         0.000
    109       Au     1      11.000         10.991                         0.009
    110       Au     1      11.000         10.990                         0.010
    111       Au     1      11.000         10.988                         0.012
    112       Au     1      11.000         10.988                         0.012
    113       Au     1      11.000         10.993                         0.007
    114       Au     1      11.000         10.991                         0.009
    115       Au     1      11.000         10.988                         0.012
    116       Au     1      11.000         10.988                         0.012

  Total Charge                                                           -2.550
 !-----------------------------------------------------------------------------!
 Calculating transmission coefficient

 ENERGY| Total FORCE_EVAL ( QS ) energy [a.u.]:            -3516.772098760098743

 -------------------------------------------------------------------------------
 -                                                                             -
 -                                DBCSR STATISTICS                             -
 -                                                                             -
 -------------------------------------------------------------------------------
 COUNTER                                    TOTAL       BLAS       SMM       ACC
 flops inhomo. stacks                           0       0.0%      0.0%      0.0%
 flops total                         0.000000E+00       0.0%      0.0%      0.0%
 flops max/rank                      0.000000E+00       0.0%      0.0%      0.0%
 matmuls inhomo. stacks                         0       0.0%      0.0%      0.0%
 matmuls total                                  0       0.0%      0.0%      0.0%
 number of processed stacks                     0       0.0%      0.0%      0.0%
 average stack size                                     0.0       0.0       0.0
 marketing flops                     0.000000E+00
 -------------------------------------------------------------------------------
 -                                                                             -
 -                      DBCSR MESSAGE PASSING PERFORMANCE                      -
 -                                                                             -
 -------------------------------------------------------------------------------
 ROUTINE             CALLS      AVE VOLUME [Bytes]
 MP_Bcast                1                     12.
 MP_Allreduce         4219                      8.
 MP_Alltoall          3506                 173611.
 -------------------------------------------------------------------------------

 -------------------------------------------------------------------------------
 -                                                                             -
 -                                DBM STATISTICS                               -
 -                                                                             -
 -------------------------------------------------------------------------------
    M  x    N  x    K                                          COUNT     PERCENT
 -------------------------------------------------------------------------------

 -------------------------------------------------------------------------------
 -                                                                             -
 -                                GRID STATISTICS                              -
 -                                                                             -
 -------------------------------------------------------------------------------
 LP    KERNEL             BACKEND                              COUNT     PERCENT
 4     collocate ortho    REF                                4848672      44.17%
 4     integrate ortho    REF                                4753600      43.30%
 0     collocate general  REF                                 250560       2.28%
 3     collocate ortho    REF                                 232101       2.11%
 3     integrate ortho    REF                                 227550       2.07%
 0     integrate general  REF                                 222720       2.03%
 2     collocate ortho    REF                                 167331       1.52%
 2     integrate ortho    REF                                 164050       1.49%
 1     collocate ortho    REF                                  41820       0.38%
 1     integrate ortho    REF                                  41000       0.37%
 0     collocate ortho    REF                                  14382       0.13%
 0     integrate ortho    REF                                  14100       0.13%
 -------------------------------------------------------------------------------

 MEMORY| Estimated peak process memory [MiB]                                 754

 -------------------------------------------------------------------------------
 ----                             MULTIGRID INFO                            ----
 -------------------------------------------------------------------------------
 count for grid        1:         403725          cutoff [a.u.]          200.00
 count for grid        2:         625157          cutoff [a.u.]           66.67
 count for grid        3:         344958          cutoff [a.u.]           22.22
 count for grid        4:         152886          cutoff [a.u.]            7.41
 total gridlevel count  :        1526726

 -------------------------------------------------------------------------------
 -                                                                             -
 -                         MESSAGE PASSING PERFORMANCE                         -
 -                                                                             -
 -------------------------------------------------------------------------------

 ROUTINE             CALLS      AVE VOLUME [Bytes]
 MP_Group                5
 MP_Bcast            50366                  20091.
 MP_Allreduce         3717                 886750.
 MP_Sync               610
 MP_Alltoall           925              240601415.
 MP_ISendRecv        48278                   4000.
 MP_Wait             59535
 MP_ISend            16347                  37484.
 MP_IRecv            16445                  37277.
 MP_Recv              3780                 248832.
 MP_Write_All            2                 248850.
 -------------------------------------------------------------------------------


 -------------------------------------------------------------------------------
 -                                                                             -
 -                           R E F E R E N C E S                               -
 -                                                                             -
 -------------------------------------------------------------------------------
 
 CP2K version 2022.1 (Development Version), the CP2K developers group (2022).
 CP2K is freely available from https://www.cp2k.org/ .

 Kuehne,Thomas D.; Iannuzzi,Marcella; Del Ben,Mauro;
 Rybkin,Vladimir V.; Seewald,Patrick; Stein,Frederick; Laino,Teodoro;
 Khaliullin,Rustam Z.; Schuett,Ole; Schiffmann,Florian; Golze,Dorothea;
 Wilhelm,Jan; Chulkov,Sergey; Bani-Hashemian,Mohammad Hossein;
 Weber,Valery; Borstnik,Urban; Taillefumier,Mathieu;
 Jakobovits,Alice Shoshana; Lazzaro,Alfio; Pabst,Hans; Mueller,Tiziano;
 Schade,Robert; Guidon,Manuel; Andermatt,Samuel; Holmberg,Nico;
 Schenter,Gregory K.; Hehn,Anna; Bussy,Augustin; Belleflamme,Fabian;
 Tabacchi,Gloria; Gloess,Andreas; Lass,Michael; Bethune,Iain;
 Mundy,Christopher J.; Plessl,Christian; Watkins,Matt;
 VandeVondele,Joost; Krack,Matthias; Hutter,Juerg. 
 The Journal of Chemical Physics, 152 (19), (2020). 
 CP2K: An electronic structure and molecular dynamics software package -
 Quickstep: Efficient and accurate electronic structure calculations.
 https://doi.org/10.1063/5.0007045

 Togo, Atsushi; Tanaka, Isao. arXiv, 1808.01590 (2018). 
 Spglib : a software library for crystal symmetry search.
 https://doi.org/xxx

 Schuett, Ole; Messmer, Peter; Hutter, Juerg; VandeVondele, Joost. 
 Electronic Structure Calculations on Graphics Processing Units, John
 Wiley & Sons, Ltd, 173-190 (2016). 
 GPU-Accelerated Sparse Matrix-Matrix Multiplication for
 Linear Scaling Density Functional Theory.
 https://doi.org/10.1002/9781118670712.ch8

 Heinecke, A; Henry, G; Hutchinson, M; Pabst, H. 
 Proceedings of Intl. Supercomputing Conference, 981-991 (2016). 
 LIBXSMM: Accelerating Small Matrix Multiplications
 by Runtime Code Generation.
 https://doi.org/10.1109/SC.2016.83

 Borstnik, U; VandeVondele, J; Weber, V; Hutter, J. 
 PARALLEL COMPUTING, 40 (5-6), 47-58 (2014). 
 Sparse matrix multiplication: The distributed block-compressed sparse
 row library.
 https://doi.org/10.1016/j.parco.2014.03.012

 Hutter, J; Iannuzzi, M; Schiffmann, F; VandeVondele, J. 
 WIREs Comput Mol Sci., 4 (1), 15-25 (2014). 
 CP2K: atomistic simulations of condensed matter systems.
 https://doi.org/10.1002/wcms.1159

 VandeVondele, J; Hutter, J. 
 JOURNAL OF CHEMICAL PHYSICS, 127 (11), 114105 (2007). 
 Gaussian basis sets for accurate calculations on molecular systems in
 gas and condensed phases.
 https://doi.org/10.1063/1.2770708

 Krack, M. 
 THEORETICAL CHEMISTRY ACCOUNTS, 114 (1-3), 145-152 (2005). 
 Pseudopotentials for H to Kr optimized for gradient-corrected
 exchange-correlation functionals.
 https://doi.org/10.1007/s00214-005-0655-y

 VandeVondele, J; Krack, M; Mohamed, F; Parrinello, M; Chassaing, T;
 Hutter, J. COMPUTER PHYSICS COMMUNICATIONS, 167 (2), 103-128 (2005). 
 QUICKSTEP: Fast and accurate density functional calculations using a
 mixed Gaussian and plane waves approach.
 https://doi.org/10.1016/j.cpc.2004.12.014

 Frigo, M; Johnson, SG. 
 PROCEEDINGS OF THE IEEE, 93 (2), 216-231 (2005). 
 The design and implementation of FFTW3.
 https://doi.org/10.1109/JPROC.2004.840301

 Hartwigsen, C; Goedecker, S; Hutter, J. 
 PHYSICAL REVIEW B, 58 (7), 3641-3662 (1998). 
 Relativistic separable dual-space Gaussian pseudopotentials from H to Rn.
 https://doi.org/10.1103/PhysRevB.58.3641

 Lippert, G; Hutter, J; Parrinello, M. 
 MOLECULAR PHYSICS, 92 (3), 477-487 (1997). 
 A hybrid Gaussian and plane wave density functional scheme.
 https://doi.org/10.1080/002689797170220

 Goedecker, S; Teter, M; Hutter, J. 
 PHYSICAL REVIEW B, 54 (3), 1703-1710 (1996). 
 Separable dual-space Gaussian pseudopotentials.
 https://doi.org/10.1103/PhysRevB.54.1703


 -------------------------------------------------------------------------------
 -                                                                             -
 -                                T I M I N G                                  -
 -                                                                             -
 -------------------------------------------------------------------------------
 SUBROUTINE                       CALLS  ASD         SELF TIME        TOTAL TIME
                                MAXIMUM       AVERAGE  MAXIMUM  AVERAGE  MAXIMUM
 CP2K                                 1  1.0    0.028    0.056  377.380  377.383
 qs_energies                          1  2.0    0.000    0.001  377.168  377.173
 run_smeagol_emtrans                 51  5.9  257.314  299.109  357.889  358.204
 scf_env_do_scf                       1  3.0    0.000    0.000  355.608  355.653
 scf_env_do_scf_inner_loop           50  4.0    0.009    1.590  355.608  355.653
 qs_scf_new_mos_kp                   50  5.0    0.000    0.001  345.013  345.331
 mp_sum_iv                          422  7.4   42.618   45.218   42.618   45.218
 convert_dbcsr_to_replsiesta        152  7.0    6.645    7.088   35.542   36.132
 dbcsr_replicate                   8526  8.0    0.474    0.541   35.993   36.089
 dbcsr_finalize                    9792  8.7    0.057    0.074   15.851   18.057
 dbcsr_merge_all                   8794  9.9    0.356    0.486   15.742   17.958
 dbcsr_sort_data                   8526 11.0   12.893   15.274   12.893   15.274
 mp_allgatherv_dv                  8526  9.0   13.234   13.475   13.234   13.475
 mp_allgather_i12                  8526  9.0    4.244   12.421    4.244   12.421
 replsiesta_struct_create            51  6.9    2.665    3.232   11.724   12.314
 mp_sum_dv                          249  7.4    8.709    9.151    8.709    9.151
 scf_post_calculation_gpw             1  3.0    0.000    0.000    7.908    7.909
 write_available_results              1  4.0    0.000    0.000    7.908    7.908
 write_mo_free_results                1  5.0    3.352    3.630    7.908    7.908
 -------------------------------------------------------------------------------

 The number of warnings for this run is : 0
 
 -------------------------------------------------------------------------------
  **** **** ******  **  PROGRAM ENDED AT                 2023-02-20 22:04:09.050
 ***** ** ***  *** **   PROGRAM RAN ON                     cn1066.scarf.rl.ac.uk
 **    ****   ******    PROGRAM RAN BY                                 scarf1157
 ***** **    ** ** **   PROGRAM PROCESS ID                                 19247
  **** **  *******  **  PROGRAM STOPPED IN /work4/scd/scarf1157/work/testing/cp2
                                           k-smeagol/bdt/cp2k/hollow-site/transp
                                           ort-cp2k/5-4/geometry-ordered/3x3-4/s
                                           z/bulk_layers-4/kpoints_bulk-100_em-1
                                           -1-1
