 DBCSR| CPU Multiplication driver                                           XSMM
 DBCSR| Multrec recursion limit                                              512
 DBCSR| Multiplication stack size                                           1000
 DBCSR| Maximum elements for images                                    UNLIMITED
 DBCSR| Multiplicative factor virtual images                                   1
 DBCSR| Use multiplication densification                                       T
 DBCSR| Multiplication size stacks                                             3
 DBCSR| Use memory pool for CPU allocation                                     F
 DBCSR| Number of 3D layers                                               SINGLE
 DBCSR| Use MPI memory allocation                                              F
 DBCSR| Use RMA algorithm                                                      F
 DBCSR| Use Communication thread                                               T
 DBCSR| Communication thread load                                             87
 DBCSR| MPI: My node id                                                        0
 DBCSR| MPI: Number of nodes                                                 240
 DBCSR| OMP: Current number of threads                                         1
 DBCSR| OMP: Max number of threads                                             1
 DBCSR| Split modifier for TAS multiplication algorithm                  1.0E+00


  **** **** ******  **  PROGRAM STARTED AT               2023-02-20 21:57:16.963
 ***** ** ***  *** **   PROGRAM STARTED ON                 cn1066.scarf.rl.ac.uk
 **    ****   ******    PROGRAM STARTED BY                             scarf1157
 ***** **    ** ** **   PROGRAM PROCESS ID                                 18632
  **** **  *******  **  PROGRAM STARTED IN /work4/scd/scarf1157/work/testing/cp2
                                           k-smeagol/bdt/cp2k/hollow-site/transp
                                           ort-cp2k/5-4/geometry-ordered/3x3-4/s
                                           z/bulk_layers-4/kpoints_bulk-100_em-1
                                           -1-1

 CP2K| version string:                 CP2K version 2022.1 (Development Version)
 CP2K| source code revision number:                                  git:1ef701d
 CP2K| cp2kflags: omp fftw3 libxc parallel mpi3 scalapack xsmm spglib           
 CP2K| is freely available from                            https://www.cp2k.org/
 CP2K| Program compiled at                          Thu 26 Jan 13:39:53 GMT 2023
 CP2K| Program compiled on                                 cn1108.scarf.rl.ac.uk
 CP2K| Program compiled for                                                local
 CP2K| Data directory path    /home/vol07/scarf1157/code/smeagol/cp2k-smeagol/sc
 CP2K| Input file name                                             2_dft_wfn.inp

 GLOBAL| Force Environment number                                              1
 GLOBAL| Basis set file name                                        BASIS_MOLOPT
 GLOBAL| Potential file name                                      GTH_POTENTIALS
 GLOBAL| MM Potential file name                                     MM_POTENTIAL
 GLOBAL| Coordinate file name                                             em.xyz
 GLOBAL| Method name                                                        CP2K
 GLOBAL| Project name                                                    dft_wfn
 GLOBAL| Run type                                                         ENERGY
 GLOBAL| FFT library                                                       FFTW3
 GLOBAL| Diagonalization library                                       ScaLAPACK
 GLOBAL| Orthonormality check for eigenvectors                          DISABLED
 GLOBAL| Matrix multiplication library                                 ScaLAPACK
 GLOBAL| All-to-all communication in single precision                          F
 GLOBAL| FFTs using library dependent lengths                                  T
 GLOBAL| Grid backend                                                       AUTO
 GLOBAL| Global print level                                               MEDIUM
 GLOBAL| MPI I/O enabled                                                       T
 GLOBAL| Total number of message passing processes                           240
 GLOBAL| Number of threads for this process                                    1
 GLOBAL| This output is from process                                           0
 GLOBAL| Stack size for threads created by OpenMP (OMP_STACKSIZE)        default
 GLOBAL| CPU model name                         AMD EPYC 7502P 32-Core Processor
 GLOBAL| CPUID                                                              1002

 MEMORY| system memory details [Kb]
 MEMORY|                        rank 0           min           max       average
 MEMORY| MemTotal            263896984     263896980     263896984     263896983
 MEMORY| MemFree             168331008     168331008     212716412     198961391
 MEMORY| Buffers                  2564          2564          2568          2566
 MEMORY| Cached               76741108      35521372      76741108      49047295
 MEMORY| Slab                  1158156       1007228       1158156       1072109
 MEMORY| SReclaimable           657728        528448        657728        587690
 MEMORY| MemLikelyFree       245732408     245732408     249248988     248598942


 *** Fundamental physical constants (SI units) ***

 *** Literature: B. J. Mohr and B. N. Taylor,
 ***             CODATA recommended values of the fundamental physical
 ***             constants: 2006, Web Version 5.1
 ***             http://physics.nist.gov/constants

 Speed of light in vacuum [m/s]                             2.99792458000000E+08
 Magnetic constant or permeability of vacuum [N/A**2]       1.25663706143592E-06
 Electric constant or permittivity of vacuum [F/m]          8.85418781762039E-12
 Planck constant (h) [J*s]                                  6.62606896000000E-34
 Planck constant (h-bar) [J*s]                              1.05457162825177E-34
 Elementary charge [C]                                      1.60217648700000E-19
 Electron mass [kg]                                         9.10938215000000E-31
 Electron g factor [ ]                                     -2.00231930436220E+00
 Proton mass [kg]                                           1.67262163700000E-27
 Fine-structure constant                                    7.29735253760000E-03
 Rydberg constant [1/m]                                     1.09737315685270E+07
 Avogadro constant [1/mol]                                  6.02214179000000E+23
 Boltzmann constant [J/K]                                   1.38065040000000E-23
 Atomic mass unit [kg]                                      1.66053878200000E-27
 Bohr radius [m]                                            5.29177208590000E-11

 *** Conversion factors ***

 [u] -> [a.u.]                                              1.82288848426455E+03
 [Angstrom] -> [Bohr] = [a.u.]                              1.88972613288564E+00
 [a.u.] = [Bohr] -> [Angstrom]                              5.29177208590000E-01
 [a.u.] -> [s]                                              2.41888432650478E-17
 [a.u.] -> [fs]                                             2.41888432650478E-02
 [a.u.] -> [J]                                              4.35974393937059E-18
 [a.u.] -> [N]                                              8.23872205491840E-08
 [a.u.] -> [K]                                              3.15774647902944E+05
 [a.u.] -> [kJ/mol]                                         2.62549961709828E+03
 [a.u.] -> [kcal/mol]                                       6.27509468713739E+02
 [a.u.] -> [Pa]                                             2.94210107994716E+13
 [a.u.] -> [bar]                                            2.94210107994716E+08
 [a.u.] -> [atm]                                            2.90362800883016E+08
 [a.u.] -> [eV]                                             2.72113838565563E+01
 [a.u.] -> [Hz]                                             6.57968392072181E+15
 [a.u.] -> [1/cm] (wave numbers)                            2.19474631370540E+05
 [a.u./Bohr**2] -> [1/cm]                                   5.14048714338585E+03
 

 CELL_TOP| Volume [angstrom^3]:                                      2357.480286
 CELL_TOP| Vector a [angstrom     8.336     0.000     0.000   |a| =     8.336000
 CELL_TOP| Vector b [angstrom     0.000     8.336     0.000   |b| =     8.336000
 CELL_TOP| Vector c [angstrom     0.000     0.000    33.926   |c| =    33.926000
 CELL_TOP| Angle (b,c), alpha [degree]:                                90.000000
 CELL_TOP| Angle (a,c), beta  [degree]:                                90.000000
 CELL_TOP| Angle (a,b), gamma [degree]:                                90.000000
 CELL_TOP| Numerically orthorhombic:                                         YES
 CELL_TOP| Periodicity                                                       XYZ

 GENERATE|  Preliminary Number of Bonds generated:                             0
 GENERATE|  Achieved consistency in connectivity generation.

 CELL| Volume [angstrom^3]:                                          2357.480286
 CELL| Vector a [angstrom]:       8.336     0.000     0.000   |a| =     8.336000
 CELL| Vector b [angstrom]:       0.000     8.336     0.000   |b| =     8.336000
 CELL| Vector c [angstrom]:       0.000     0.000    33.926   |c| =    33.926000
 CELL| Angle (b,c), alpha [degree]:                                    90.000000
 CELL| Angle (a,c), beta  [degree]:                                    90.000000
 CELL| Angle (a,b), gamma [degree]:                                    90.000000
 CELL| Numerically orthorhombic:                                             YES
 CELL| Periodicity                                                           XYZ

 CELL_REF| Volume [angstrom^3]:                                      2357.480286
 CELL_REF| Vector a [angstrom     8.336     0.000     0.000   |a| =     8.336000
 CELL_REF| Vector b [angstrom     0.000     8.336     0.000   |b| =     8.336000
 CELL_REF| Vector c [angstrom     0.000     0.000    33.926   |c| =    33.926000
 CELL_REF| Angle (b,c), alpha [degree]:                                90.000000
 CELL_REF| Angle (a,c), beta  [degree]:                                90.000000
 CELL_REF| Angle (a,b), gamma [degree]:                                90.000000
 CELL_REF| Numerically orthorhombic:                                         YES
 CELL_REF| Periodicity                                                       XYZ

 *******************************************************************************
                                    Kpoints
 *******************************************************************************
 BRILLOUIN| K-point scheme                                        Monkhorst-Pack
 BRILLOUIN| K-Point grid                                             1    1    1
 BRILLOUIN| Accuracy in Symmetry determination                      0.100000E-07
 BRILLOUIN| K-Point point group symmetrization                               OFF
 BRILLOUIN| Wavefunction type                                            COMPLEX
 BRILLOUIN| Use full k-point grid     
 BRILLOUIN| List of Kpoints [2 Pi/Bohr]                                        1
 BRILLOUIN| Number           Weight            X              Y              Z
 BRILLOUIN|     1           1.00000        0.00000        0.00000        0.00000
 *******************************************************************************

 *******************************************************************************
 *******************************************************************************
 **                                                                           **
 **     #####                         ##              ##                      **
 **    ##   ##            ##          ##              ##                      **
 **   ##     ##                       ##            ######                    **
 **   ##     ##  ##   ##  ##   #####  ##  ##   ####   ##    #####    #####    **
 **   ##     ##  ##   ##  ##  ##      ## ##   ##      ##   ##   ##  ##   ##   **
 **   ##  ## ##  ##   ##  ##  ##      ####     ###    ##   ######   ######    **
 **    ##  ###   ##   ##  ##  ##      ## ##      ##   ##   ##       ##        **
 **     #######   #####   ##   #####  ##  ##  ####    ##    #####   ##        **
 **           ##                                                    ##        **
 **                                                                           **
 **                                                ... make the atoms dance   **
 **                                                                           **
 **            Copyright (C) by CP2K developers group (2000-2022)             **
 **                      J. Chem. Phys. 152, 194103 (2020)                    **
 **                                                                           **
 *******************************************************************************

 DFT| Spin restricted Kohn-Sham (RKS) calculation                            RKS
 DFT| Multiplicity                                                             1
 DFT| Number of spin states                                                    1
 DFT| Charge                                                                   0
 DFT| Self-interaction correction (SIC)                                       NO
 DFT| Cutoffs: density                                              1.000000E-10
 DFT|          gradient                                             1.000000E-10
 DFT|          tau                                                  1.000000E-10
 DFT|          cutoff_smoothing_range                               0.000000E+00
 DFT| XC density smoothing                                                  NONE
 DFT| XC derivatives                                                          PW

 FUNCTIONAL| PADE:
 FUNCTIONAL| S. Goedecker, M. Teter and J. Hutter, Phys. Rev. B 54, 1703 (1996) 


 QS| Method:                                                                 GPW
 QS| Density plane wave grid type                        NON-SPHERICAL FULLSPACE
 QS| Number of grid levels:                                                    4
 QS| Density cutoff [a.u.]:                                                200.0
 QS| Multi grid cutoff [a.u.]: 1) grid level                               200.0
 QS|                           2) grid level                                66.7
 QS|                           3) grid level                                22.2
 QS|                           4) grid level                                 7.4
 QS| Grid level progression factor:                                          3.0
 QS| Relative density cutoff [a.u.]:                                        20.0
 QS| Interaction thresholds: eps_pgf_orb:                                1.0E-05
 QS|                         eps_filter_matrix:                          0.0E+00
 QS|                         eps_core_charge:                            1.0E-12
 QS|                         eps_rho_gspace:                             1.0E-10
 QS|                         eps_rho_rspace:                             1.0E-10
 QS|                         eps_gvg_rspace:                             1.0E-05
 QS|                         eps_ppl:                                    1.0E-02
 QS|                         eps_ppnl:                                   1.0E-07


 ATOMIC KIND INFORMATION

  1. Atomic kind: Au                                    Number of atoms:     104

     Orbital Basis Set                                         SZV-MOLOPT-SR-GTH

       Number of orbital shell sets:                                           1
       Number of orbital shells:                                               3
       Number of primitive Cartesian functions:                                5
       Number of Cartesian basis functions:                                   10
       Number of spherical basis functions:                                    9
       Norm type:                                                              2

       Normalised Cartesian orbitals:

                        Set   Shell   Orbital            Exponent    Coefficient

                          1       1    2s                2.950008       0.074626
                                                         1.563057      -0.007898
                                                         0.666664      -0.297688
                                                         0.251083       0.136809
                                                         0.081714       0.088198

                          1       2    3px               2.950008       0.148824
                                                         1.563057       0.025430
                                                         0.666664      -0.123003
                                                         0.251083       0.033648
                                                         0.081714       0.059008
                          1       2    3py               2.950008       0.148824
                                                         1.563057       0.025430
                                                         0.666664      -0.123003
                                                         0.251083       0.033648
                                                         0.081714       0.059008
                          1       2    3pz               2.950008       0.148824
                                                         1.563057       0.025430
                                                         0.666664      -0.123003
                                                         0.251083       0.033648
                                                         0.081714       0.059008

                          1       3    4dx2              2.950008      -0.139595
                                                         1.563057       1.319655
                                                         0.666664       0.377081
                                                         0.251083       0.046872
                                                         0.081714       0.001393
                          1       3    4dxy              2.950008      -0.241786
                                                         1.563057       2.285709
                                                         0.666664       0.653124
                                                         0.251083       0.081185
                                                         0.081714       0.002412
                          1       3    4dxz              2.950008      -0.241786
                                                         1.563057       2.285709
                                                         0.666664       0.653124
                                                         0.251083       0.081185
                                                         0.081714       0.002412
                          1       3    4dy2              2.950008      -0.139595
                                                         1.563057       1.319655
                                                         0.666664       0.377081
                                                         0.251083       0.046872
                                                         0.081714       0.001393
                          1       3    4dyz              2.950008      -0.241786
                                                         1.563057       2.285709
                                                         0.666664       0.653124
                                                         0.251083       0.081185
                                                         0.081714       0.002412
                          1       3    4dz2              2.950008      -0.139595
                                                         1.563057       1.319655
                                                         0.666664       0.377081
                                                         0.251083       0.046872
                                                         0.081714       0.001393

       Atomic covalent radius [Angstrom]:                                  1.340

       Atomic van der Waals radius [Angstrom]:                             1.660

     GTH Potential information for                                  GTH-PADE-q11

       Description:                       Goedecker-Teter-Hutter pseudopotential
                                           Goedecker et al., PRB 54, 1703 (1996)
                                          Hartwigsen et al., PRB 58, 3641 (1998)
                                                      Krack, TCA 114, 145 (2005)

       Gaussian exponent of the core charge distribution:               1.436369
       Electronic configuration (s p d ...):                           1   0  10

       Parameters of the local part of the GTH pseudopotential:

                          rloc        C1          C2          C3          C4
                        0.590000   11.604428

       Parameters of the non-local part of the GTH pseudopotential:

                   l      r(l)      h(i,j,l)

                   0    0.521180    2.538614   -1.046137
                                   -1.046137    2.701113
                   1    0.630613    0.394853   -0.869592
                                   -0.869592    2.057831
                   2    0.440706   -4.719070    0.727771
                                    0.727771   -1.650429

  2. Atomic kind: S                                     Number of atoms:       2

     Orbital Basis Set                                         SZV-MOLOPT-SR-GTH

       Number of orbital shell sets:                                           1
       Number of orbital shells:                                               2
       Number of primitive Cartesian functions:                                4
       Number of Cartesian basis functions:                                    4
       Number of spherical basis functions:                                    4
       Norm type:                                                              2

       Normalised Cartesian orbitals:

                        Set   Shell   Orbital            Exponent    Coefficient

                          1       1    2s                2.215855       0.308496
                                                         1.131471       0.138505
                                                         0.410168      -0.373736
                                                         0.140587      -0.040370

                          1       2    3px               2.215855       0.420434
                                                         1.131471      -0.319283
                                                         0.410168      -0.335323
                                                         0.140587      -0.030976
                          1       2    3py               2.215855       0.420434
                                                         1.131471      -0.319283
                                                         0.410168      -0.335323
                                                         0.140587      -0.030976
                          1       2    3pz               2.215855       0.420434
                                                         1.131471      -0.319283
                                                         0.410168      -0.335323
                                                         0.140587      -0.030976

       Atomic covalent radius [Angstrom]:                                  1.020

       Atomic van der Waals radius [Angstrom]:                             1.800

     GTH Potential information for                                   GTH-PADE-q6

       Description:                       Goedecker-Teter-Hutter pseudopotential
                                           Goedecker et al., PRB 54, 1703 (1996)
                                          Hartwigsen et al., PRB 58, 3641 (1998)
                                                      Krack, TCA 114, 145 (2005)

       Gaussian exponent of the core charge distribution:               2.834467
       Electronic configuration (s p d ...):                               2   4

       Parameters of the local part of the GTH pseudopotential:

                          rloc        C1          C2          C3          C4
                        0.420000   -6.554492

       Parameters of the non-local part of the GTH pseudopotential:

                   l      r(l)      h(i,j,l)

                   0    0.361757    7.905303   -1.731881
                                   -1.731881    4.471698
                   1    0.405285    3.866579

  3. Atomic kind: C                                     Number of atoms:       6

     Orbital Basis Set                                         SZV-MOLOPT-SR-GTH

       Number of orbital shell sets:                                           1
       Number of orbital shells:                                               2
       Number of primitive Cartesian functions:                                5
       Number of Cartesian basis functions:                                    4
       Number of spherical basis functions:                                    4
       Norm type:                                                              2

       Normalised Cartesian orbitals:

                        Set   Shell   Orbital            Exponent    Coefficient

                          1       1    2s                5.605331       0.322515
                                                         2.113016       0.213043
                                                         0.769911      -0.209686
                                                         0.348157      -0.219794
                                                         0.128212      -0.022789

                          1       2    3px               5.605331      -0.703879
                                                         2.113016      -0.642521
                                                         0.769911      -0.374851
                                                         0.348157      -0.139743
                                                         0.128212      -0.027849
                          1       2    3py               5.605331      -0.703879
                                                         2.113016      -0.642521
                                                         0.769911      -0.374851
                                                         0.348157      -0.139743
                                                         0.128212      -0.027849
                          1       2    3pz               5.605331      -0.703879
                                                         2.113016      -0.642521
                                                         0.769911      -0.374851
                                                         0.348157      -0.139743
                                                         0.128212      -0.027849

       Atomic covalent radius [Angstrom]:                                  0.770

       Atomic van der Waals radius [Angstrom]:                             1.700

     GTH Potential information for                                   GTH-PADE-q4

       Description:                       Goedecker-Teter-Hutter pseudopotential
                                           Goedecker et al., PRB 54, 1703 (1996)
                                          Hartwigsen et al., PRB 58, 3641 (1998)
                                                      Krack, TCA 114, 145 (2005)

       Gaussian exponent of the core charge distribution:               4.109048
       Electronic configuration (s p d ...):                               2   2

       Parameters of the local part of the GTH pseudopotential:

                          rloc        C1          C2          C3          C4
                        0.348830   -8.513771    1.228432

       Parameters of the non-local part of the GTH pseudopotential:

                   l      r(l)      h(i,j,l)

                   0    0.304553    9.522842
                   1    0.232677

  4. Atomic kind: H                                     Number of atoms:       4

     Orbital Basis Set                                         SZV-MOLOPT-SR-GTH

       Number of orbital shell sets:                                           1
       Number of orbital shells:                                               1
       Number of primitive Cartesian functions:                                5
       Number of Cartesian basis functions:                                    1
       Number of spherical basis functions:                                    1
       Norm type:                                                              2

       Normalised Cartesian orbitals:

                        Set   Shell   Orbital            Exponent    Coefficient

                          1       1    2s               10.068468      -0.133023
                                                         2.680223      -0.177618
                                                         0.791502      -0.258419
                                                         0.239116      -0.107525
                                                         0.082193      -0.014019

       Atomic covalent radius [Angstrom]:                                  0.320

       Atomic van der Waals radius [Angstrom]:                             1.090

     GTH Potential information for                                   GTH-PADE-q1

       Description:                       Goedecker-Teter-Hutter pseudopotential
                                           Goedecker et al., PRB 54, 1703 (1996)
                                          Hartwigsen et al., PRB 58, 3641 (1998)
                                                      Krack, TCA 114, 145 (2005)

       Gaussian exponent of the core charge distribution:              12.500000
       Electronic configuration (s p d ...):                                   1

       Parameters of the local part of the GTH pseudopotential:

                          rloc        C1          C2          C3          C4
                        0.200000   -4.180237    0.725075


 MOLECULE KIND INFORMATION


 All atoms are their own molecule, skipping detailed information


 TOTAL NUMBERS AND MAXIMUM NUMBERS

  Total number of            - Atomic kinds:                                   4
                             - Atoms:                                        116
                             - Shell sets:                                   116
                             - Shells:                                       332
                             - Primitive Cartesian functions:                578
                             - Cartesian basis functions:                   1076
                             - Spherical basis functions:                    972

  Maximum angular momentum of- Orbital basis functions:                        2
                             - Local part of the GTH pseudopotential:          2
                             - Non-local part of the GTH pseudopotential:      4


 MODULE QUICKSTEP: ATOMIC COORDINATES IN ANGSTROM

   Atom Kind Element         X             Y             Z       Z(eff)     Mass
      1    1 Au   79      0.000000      0.000000      0.000000  11.0000 196.9666
      2    1 Au   79      0.000000      4.168000      0.000000  11.0000 196.9666
      3    1 Au   79      2.084000      2.084000      0.000000  11.0000 196.9666
      4    1 Au   79      2.084000      6.252000      0.000000  11.0000 196.9666
      5    1 Au   79      4.168000      0.000000      0.000000  11.0000 196.9666
      6    1 Au   79      4.168000      4.168000      0.000000  11.0000 196.9666
      7    1 Au   79      6.252000      2.084000      0.000000  11.0000 196.9666
      8    1 Au   79      6.252000      6.252000      0.000000  11.0000 196.9666
      9    1 Au   79      0.000000      2.084000      2.084000  11.0000 196.9666
     10    1 Au   79      0.000000      6.252000      2.084000  11.0000 196.9666
     11    1 Au   79      2.084000      0.000000      2.084000  11.0000 196.9666
     12    1 Au   79      2.084000      4.168000      2.084000  11.0000 196.9666
     13    1 Au   79      4.168000      2.084000      2.084000  11.0000 196.9666
     14    1 Au   79      4.168000      6.252000      2.084000  11.0000 196.9666
     15    1 Au   79      6.252000      0.000000      2.084000  11.0000 196.9666
     16    1 Au   79      6.252000      4.168000      2.084000  11.0000 196.9666
     17    1 Au   79      0.000000      0.000000      4.168000  11.0000 196.9666
     18    1 Au   79      0.000000      4.168000      4.168000  11.0000 196.9666
     19    1 Au   79      2.084000      2.084000      4.168000  11.0000 196.9666
     20    1 Au   79      2.084000      6.252000      4.168000  11.0000 196.9666
     21    1 Au   79      4.168000      0.000000      4.168000  11.0000 196.9666
     22    1 Au   79      4.168000      4.168000      4.168000  11.0000 196.9666
     23    1 Au   79      6.252000      2.084000      4.168000  11.0000 196.9666
     24    1 Au   79      6.252000      6.252000      4.168000  11.0000 196.9666
     25    1 Au   79      0.000000      2.084000      6.252000  11.0000 196.9666
     26    1 Au   79      0.000000      6.252000      6.252000  11.0000 196.9666
     27    1 Au   79      2.084000      0.000000      6.252000  11.0000 196.9666
     28    1 Au   79      2.084000      4.168000      6.252000  11.0000 196.9666
     29    1 Au   79      4.168000      2.084000      6.252000  11.0000 196.9666
     30    1 Au   79      4.168000      6.252000      6.252000  11.0000 196.9666
     31    1 Au   79      6.252000      0.000000      6.252000  11.0000 196.9666
     32    1 Au   79      6.252000      4.168000      6.252000  11.0000 196.9666
     33    1 Au   79      0.000000      0.000000      8.336000  11.0000 196.9666
     34    1 Au   79      0.000000      4.168000      8.336000  11.0000 196.9666
     35    1 Au   79      2.084000      2.084000      8.336000  11.0000 196.9666
     36    1 Au   79      2.084000      6.252000      8.336000  11.0000 196.9666
     37    1 Au   79      4.168000      0.000000      8.336000  11.0000 196.9666
     38    1 Au   79      4.168000      4.168000      8.336000  11.0000 196.9666
     39    1 Au   79      6.252000      2.084000      8.336000  11.0000 196.9666
     40    1 Au   79      6.252000      6.252000      8.336000  11.0000 196.9666
     41    1 Au   79      0.000000      2.084000     10.420000  11.0000 196.9666
     42    1 Au   79      0.000000      6.252000     10.420000  11.0000 196.9666
     43    1 Au   79      2.084000      0.000000     10.420000  11.0000 196.9666
     44    1 Au   79      2.084000      4.168000     10.420000  11.0000 196.9666
     45    1 Au   79      4.168000      2.084000     10.420000  11.0000 196.9666
     46    1 Au   79      4.168000      6.252000     10.420000  11.0000 196.9666
     47    1 Au   79      6.252000      0.000000     10.420000  11.0000 196.9666
     48    1 Au   79      6.252000      4.168000     10.420000  11.0000 196.9666
     49    1 Au   79      0.000000      0.000000     12.504000  11.0000 196.9666
     50    1 Au   79      0.000000      4.168000     12.504000  11.0000 196.9666
     51    1 Au   79      2.084000      2.084000     12.504000  11.0000 196.9666
     52    1 Au   79      2.084000      6.252000     12.504000  11.0000 196.9666
     53    1 Au   79      4.168000      0.000000     12.504000  11.0000 196.9666
     54    1 Au   79      4.168000      4.168000     12.504000  11.0000 196.9666
     55    1 Au   79      6.252000      2.084000     12.504000  11.0000 196.9666
     56    1 Au   79      6.252000      6.252000     12.504000  11.0000 196.9666
     57    2 S    16      4.171000      2.086000     13.790000   6.0000  32.0650
     58    3 C     6      4.175000      2.089000     15.551000   4.0000  12.0107
     59    4 H     1      2.073000      2.116000     15.734000   1.0000   1.0079
     60    4 H     1      6.269000      2.116000     15.740000   1.0000   1.0079
     61    3 C     6      2.965000      2.095000     16.251000   4.0000  12.0107
     62    3 C     6      5.373000      2.095000     16.251000   4.0000  12.0107
     63    3 C     6      2.959000      2.074000     17.674000   4.0000  12.0107
     64    3 C     6      5.367000      2.074000     17.674000   4.0000  12.0107
     65    4 H     1      2.063000      2.053000     18.186000   1.0000   1.0079
     66    4 H     1      6.259000      2.053000     18.192000   1.0000   1.0079
     67    3 C     6      4.157000      2.080000     18.375000   4.0000  12.0107
     68    2 S    16      4.171000      2.086000     20.136000   6.0000  32.0650
     69    1 Au   79      0.000000      0.000000     21.422000  11.0000 196.9666
     70    1 Au   79      0.000000      4.168000     21.422000  11.0000 196.9666
     71    1 Au   79      2.084000      2.084000     21.422000  11.0000 196.9666
     72    1 Au   79      2.084000      6.252000     21.422000  11.0000 196.9666
     73    1 Au   79      4.168000      0.000000     21.422000  11.0000 196.9666
     74    1 Au   79      4.168000      4.168000     21.422000  11.0000 196.9666
     75    1 Au   79      6.252000      2.084000     21.422000  11.0000 196.9666
     76    1 Au   79      6.252000      6.252000     21.422000  11.0000 196.9666
     77    1 Au   79      0.000000      2.084000     23.506000  11.0000 196.9666
     78    1 Au   79      0.000000      6.252000     23.506000  11.0000 196.9666
     79    1 Au   79      2.084000      0.000000     23.506000  11.0000 196.9666
     80    1 Au   79      2.084000      4.168000     23.506000  11.0000 196.9666
     81    1 Au   79      4.168000      2.084000     23.506000  11.0000 196.9666
     82    1 Au   79      4.168000      6.252000     23.506000  11.0000 196.9666
     83    1 Au   79      6.252000      0.000000     23.506000  11.0000 196.9666
     84    1 Au   79      6.252000      4.168000     23.506000  11.0000 196.9666
     85    1 Au   79      0.000000      0.000000     25.590000  11.0000 196.9666
     86    1 Au   79      0.000000      4.168000     25.590000  11.0000 196.9666
     87    1 Au   79      2.084000      2.084000     25.590000  11.0000 196.9666
     88    1 Au   79      2.084000      6.252000     25.590000  11.0000 196.9666
     89    1 Au   79      4.168000      0.000000     25.590000  11.0000 196.9666
     90    1 Au   79      4.168000      4.168000     25.590000  11.0000 196.9666
     91    1 Au   79      6.252000      2.084000     25.590000  11.0000 196.9666
     92    1 Au   79      6.252000      6.252000     25.590000  11.0000 196.9666
     93    1 Au   79      0.000000      2.084000     27.674000  11.0000 196.9666
     94    1 Au   79      0.000000      6.252000     27.674000  11.0000 196.9666
     95    1 Au   79      2.084000      0.000000     27.674000  11.0000 196.9666
     96    1 Au   79      2.084000      4.168000     27.674000  11.0000 196.9666
     97    1 Au   79      4.168000      2.084000     27.674000  11.0000 196.9666
     98    1 Au   79      4.168000      6.252000     27.674000  11.0000 196.9666
     99    1 Au   79      6.252000      0.000000     27.674000  11.0000 196.9666
    100    1 Au   79      6.252000      4.168000     27.674000  11.0000 196.9666
    101    1 Au   79      0.000000      0.000000     29.758000  11.0000 196.9666
    102    1 Au   79      0.000000      4.168000     29.758000  11.0000 196.9666
    103    1 Au   79      2.084000      2.084000     29.758000  11.0000 196.9666
    104    1 Au   79      2.084000      6.252000     29.758000  11.0000 196.9666
    105    1 Au   79      4.168000      0.000000     29.758000  11.0000 196.9666
    106    1 Au   79      4.168000      4.168000     29.758000  11.0000 196.9666
    107    1 Au   79      6.252000      2.084000     29.758000  11.0000 196.9666
    108    1 Au   79      6.252000      6.252000     29.758000  11.0000 196.9666
    109    1 Au   79      0.000000      2.084000     31.842000  11.0000 196.9666
    110    1 Au   79      0.000000      6.252000     31.842000  11.0000 196.9666
    111    1 Au   79      2.084000      0.000000     31.842000  11.0000 196.9666
    112    1 Au   79      2.084000      4.168000     31.842000  11.0000 196.9666
    113    1 Au   79      4.168000      2.084000     31.842000  11.0000 196.9666
    114    1 Au   79      4.168000      6.252000     31.842000  11.0000 196.9666
    115    1 Au   79      6.252000      0.000000     31.842000  11.0000 196.9666
    116    1 Au   79      6.252000      4.168000     31.842000  11.0000 196.9666



 SCF PARAMETERS         Density guess:                                    ATOMIC
                        --------------------------------------------------------
                        max_scf:                                             100
                        max_scf_history:                                       0
                        max_diis:                                              4
                        --------------------------------------------------------
                        eps_scf:                                        1.00E-07
                        eps_scf_history:                                0.00E+00
                        eps_diis:                                       1.00E-01
                        eps_eigval:                                     1.00E-05
                        --------------------------------------------------------
                        level_shift [a.u.]:                             0.000000
                        added MOs                                       100    0
                        --------------------------------------------------------
                        Mixing method:                            BROYDEN_MIXING
                                                charge density mixing in g-space
                        --------------------------------------------------------
                        Smear method:                                FERMI_DIRAC
                        Electronic temperature [K]:                        293.0
                        Electronic temperature [a.u.]:                  9.28E-04
                        Accuracy threshold:                             1.00E-10
                        --------------------------------------------------------
                        No outer SCF

 PW_GRID| Information for grid number                                          1
 PW_GRID| Grid distributed over                                   240 processors
 PW_GRID| Real space group dimensions                                    12   20
 PW_GRID| the grid is blocked:                                               YES
 PW_GRID| Cutoff [a.u.]                                                    200.0
 PW_GRID| spherical cutoff:                                                   NO
 PW_GRID|   Bounds   1            -52      52                Points:         105
 PW_GRID|   Bounds   2            -52      52                Points:         105
 PW_GRID|   Bounds   3           -210     209                Points:         420
 PW_GRID| Volume element (a.u.^3)  0.3436E-02     Volume (a.u.^3)     15909.0657
 PW_GRID| Grid span                                                    FULLSPACE
 PW_GRID|   Distribution                         Average         Max         Min
 PW_GRID|   G-Vectors                            19293.8       19845       17640
 PW_GRID|   G-Rays                                 183.8         189         168
 PW_GRID|   Real Space Points                    19293.8       19845       17640

 PW_GRID| Information for grid number                                          2
 PW_GRID| Number of the reference grid                                         1
 PW_GRID| Grid distributed over                                   240 processors
 PW_GRID| Real space group dimensions                                    12   20
 PW_GRID| the grid is blocked:                                                NO
 PW_GRID| Cutoff [a.u.]                                                     66.7
 PW_GRID| spherical cutoff:                                                   NO
 PW_GRID|   Bounds   1            -30      29                Points:          60
 PW_GRID|   Bounds   2            -30      29                Points:          60
 PW_GRID|   Bounds   3           -120     119                Points:         240
 PW_GRID| Volume element (a.u.^3)  0.1841E-01     Volume (a.u.^3)     15909.0657
 PW_GRID| Grid span                                                    FULLSPACE
 PW_GRID|   Distribution                         Average         Max         Min
 PW_GRID|   G-Vectors                             3600.0       11340           0
 PW_GRID|   G-Rays                                  60.0         189           0
 PW_GRID|   Real Space Points                     3600.0        3600        3600

 PW_GRID| Information for grid number                                          3
 PW_GRID| Number of the reference grid                                         1
 PW_GRID| Grid distributed over                                   240 processors
 PW_GRID| Real space group dimensions                                    12   20
 PW_GRID| the grid is blocked:                                                NO
 PW_GRID| Cutoff [a.u.]                                                     22.2
 PW_GRID| spherical cutoff:                                                   NO
 PW_GRID|   Bounds   1            -16      16                Points:          33
 PW_GRID|   Bounds   2            -16      16                Points:          33
 PW_GRID|   Bounds   3            -70      69                Points:         140
 PW_GRID| Volume element (a.u.^3)  0.1043         Volume (a.u.^3)     15909.0657
 PW_GRID| Grid span                                                    FULLSPACE
 PW_GRID|   Distribution                         Average         Max         Min
 PW_GRID|   G-Vectors                              635.2        6237           0
 PW_GRID|   G-Rays                                  19.2         189           0
 PW_GRID|   Real Space Points                      635.2         840         280

 PW_GRID| Information for grid number                                          4
 PW_GRID| Number of the reference grid                                         1
 PW_GRID| Grid distributed over                                   240 processors
 PW_GRID| Real space group dimensions                                    12   20
 PW_GRID| the grid is blocked:                                                NO
 PW_GRID| Cutoff [a.u.]                                                      7.4
 PW_GRID| spherical cutoff:                                                   NO
 PW_GRID|   Bounds   1            -10       9                Points:          20
 PW_GRID|   Bounds   2            -10       9                Points:          20
 PW_GRID|   Bounds   3            -40      39                Points:          80
 PW_GRID| Volume element (a.u.^3)  0.4972         Volume (a.u.^3)     15909.0657
 PW_GRID| Grid span                                                    FULLSPACE
 PW_GRID|   Distribution                         Average         Max         Min
 PW_GRID|   G-Vectors                              133.3        3780           0
 PW_GRID|   G-Rays                                   6.7         189           0
 PW_GRID|   Real Space Points                      133.3         160          80

 POISSON| Solver                                                        PERIODIC
 POISSON| Periodicity                                                        XYZ

 RS_GRID| Information for grid number                                          1
 RS_GRID|   Bounds   1            -52      52                Points:         105
 RS_GRID|   Bounds   2            -52      52                Points:         105
 RS_GRID|   Bounds   3           -210     209                Points:         420
 RS_GRID| Real space distribution over                                  8 groups
 RS_GRID| Real space distribution along direction                              2
 RS_GRID| Border size                                                         30
 RS_GRID| Real space distribution over                                 30 groups
 RS_GRID| Real space distribution along direction                              3
 RS_GRID| Border size                                                         30
 RS_GRID|   Distribution                         Average         Max         Min
 RS_GRID|   Planes                                  73.1          74          73
 RS_GRID|   Distribution                         Average         Max         Min
 RS_GRID|   Planes                                  74.0          74          74

 RS_GRID| Information for grid number                                          2
 RS_GRID|   Bounds   1            -30      29                Points:          60
 RS_GRID|   Bounds   2            -30      29                Points:          60
 RS_GRID|   Bounds   3           -120     119                Points:         240
 RS_GRID| Real space distribution over                                  8 groups
 RS_GRID| Real space distribution along direction                              2
 RS_GRID| Border size                                                         21
 RS_GRID| Real space distribution over                                 30 groups
 RS_GRID| Real space distribution along direction                              3
 RS_GRID| Border size                                                         21
 RS_GRID|   Distribution                         Average         Max         Min
 RS_GRID|   Planes                                  49.5          50          49
 RS_GRID|   Distribution                         Average         Max         Min
 RS_GRID|   Planes                                  50.0          50          50

 RS_GRID| Information for grid number                                          3
 RS_GRID|   Bounds   1            -16      16                Points:          33
 RS_GRID|   Bounds   2            -16      16                Points:          33
 RS_GRID|   Bounds   3            -70      69                Points:         140
 RS_GRID| Real space fully replicated
 RS_GRID| Group size                                                           1

 RS_GRID| Information for grid number                                          4
 RS_GRID|   Bounds   1            -10       9                Points:          20
 RS_GRID|   Bounds   2            -10       9                Points:          20
 RS_GRID|   Bounds   3            -40      39                Points:          80
 RS_GRID| Real space fully replicated
 RS_GRID| Group size                                                           1

 KPOINTS| Number of kpoint groups                                              1
 KPOINTS| Size of each kpoint group                                          240
 KPOINTS| Number of kpoints per group                                          1

 Number of electrons:                                                       1184
 Number of occupied orbitals:                                                592
 Number of molecular orbitals:                                               692

 Number of orbital functions:                                                972
 Number of independent orbital functions:                                    972

 Extrapolation method: initial_guess

 Atomic guess: The first density matrix is obtained in terms of atomic orbitals
               and electronic configurations assigned to each atomic kind

 Guess for atomic kind: Au

 Electronic structure
    Total number of core electrons                                         68.00
    Total number of valence electrons                                      11.00
    Total number of electrons                                              79.00
    Multiplicity                                                   not specified
    S   [  2.00  2.00  2.00  2.00  2.00] 1.00
    P   [  6.00  6.00  6.00  6.00]
    D   [ 10.00 10.00]10.00
    F   [ 14.00]


 *******************************************************************************
                  Iteration          Convergence                     Energy [au]
 *******************************************************************************
                          1         0.00000                     -33.033218197848

 Energy components [Hartree]           Total Energy ::          -33.033218197848
                                        Band Energy ::           -1.147505983145
                                     Kinetic Energy ::           24.744064437587
                                   Potential Energy ::          -57.777282635435
                                      Virial (-V/T) ::            2.334995642336
                                        Core Energy ::          -60.197309615488
                                          XC Energy ::           -5.116883226844
                                     Coulomb Energy ::           32.280974644483
                       Total Pseudopotential Energy ::          -85.042885173964
                       Local Pseudopotential Energy ::          -66.341694915099
                    Nonlocal Pseudopotential Energy ::          -18.701190258865
                                        Confinement ::            1.015111208892

 Orbital energies  State     L     Occupation   Energy[a.u.]          Energy[eV]

                       1     0          1.000      -0.213792           -5.817572

                       1     2         10.000      -0.093371           -2.540765


 Total Electron Density at R=0:                                         0.000035

 Guess for atomic kind: S

 Electronic structure
    Total number of core electrons                                         10.00
    Total number of valence electrons                                       6.00
    Total number of electrons                                              16.00
    Multiplicity                                                   not specified
    S   [  2.00  2.00] 2.00
    P   [  6.00] 4.00


 *******************************************************************************
                  Iteration          Convergence                     Energy [au]
 *******************************************************************************
                          1         0.00000                      -9.853460757856

 Energy components [Hartree]           Total Energy ::           -9.853460757856
                                        Band Energy ::           -2.356337656970
                                     Kinetic Energy ::            4.823553161963
                                   Potential Energy ::          -14.677013919818
                                      Virial (-V/T) ::            3.042780586634
                                        Core Energy ::          -17.027141804256
                                          XC Energy ::           -2.306120006027
                                     Coulomb Energy ::            9.479801052427
                       Total Pseudopotential Energy ::          -21.894561428820
                       Local Pseudopotential Energy ::          -24.454849976053
                    Nonlocal Pseudopotential Energy ::            2.560288547233
                                        Confinement ::            0.438664626013

 Orbital energies  State     L     Occupation   Energy[a.u.]          Energy[eV]

                       1     0          2.000      -0.651558          -17.729806

                       1     1          4.000      -0.263305           -7.164899


 Total Electron Density at R=0:                                         0.002164

 Guess for atomic kind: C

 Electronic structure
    Total number of core electrons                                          2.00
    Total number of valence electrons                                       4.00
    Total number of electrons                                               6.00
    Multiplicity                                                   not specified
    S   [  2.00] 2.00
    P      2.00


 *******************************************************************************
                  Iteration          Convergence                     Energy [au]
 *******************************************************************************
                          1         0.00000                      -5.203769106903

 Energy components [Hartree]           Total Energy ::           -5.203769106903
                                        Band Energy ::           -1.102062531975
                                     Kinetic Energy ::            4.436946353555
                                   Potential Energy ::           -9.640715460459
                                      Virial (-V/T) ::            2.172826690306
                                        Core Energy ::           -8.622900759898
                                          XC Energy ::           -1.549179882233
                                     Coulomb Energy ::            4.968311535227
                       Total Pseudopotential Energy ::          -13.085360153352
                       Local Pseudopotential Energy ::          -13.648615018058
                    Nonlocal Pseudopotential Energy ::            0.563254864706
                                        Confinement ::            0.255130398990

 Orbital energies  State     L     Occupation   Energy[a.u.]          Energy[eV]

                       1     0          2.000      -0.416370          -11.330000

                       1     1          2.000      -0.134661           -3.664323


 Total Electron Density at R=0:                                         0.013874

 Guess for atomic kind: H

 Electronic structure
    Total number of core electrons                                          0.00
    Total number of valence electrons                                       1.00
    Total number of electrons                                               1.00
    Multiplicity                                                   not specified
    S      1.00


 *******************************************************************************
                  Iteration          Convergence                     Energy [au]
 *******************************************************************************
                          1         0.00000                      -0.372474116344

 Energy components [Hartree]           Total Energy ::           -0.372474116344
                                        Band Energy ::           -0.184689713228
                                     Kinetic Energy ::            0.795946116619
                                   Potential Energy ::           -1.168420232963
                                      Virial (-V/T) ::            1.467963984706
                                        Core Energy ::           -0.452545141516
                                          XC Energy ::           -0.314416247311
                                     Coulomb Energy ::            0.394487272483
                       Total Pseudopotential Energy ::           -1.259976600556
                       Local Pseudopotential Energy ::           -1.259976600556
                    Nonlocal Pseudopotential Energy ::            0.000000000000
                                        Confinement ::            0.114853424211

 Orbital energies  State     L     Occupation   Energy[a.u.]          Energy[eV]

                       1     0          1.000      -0.184690           -5.025663


 Total Electron Density at R=0:                                         0.476934
 Re-scaling the density matrix to get the right number of electrons
                  # Electrons              Trace(P)               Scaling factor
                         1184              1184.000                        1.000


 SCF WAVEFUNCTION OPTIMIZATION

  Step     Update method      Time    Convergence         Total energy    Change
  ------------------------------------------------------------------------------
     1 NoMix/Diag. 0.30E+00    0.4     1.96833665     -3517.8833588058 -3.52E+03
     2 Broy./Diag. 0.30E+00    0.3     0.60111138     -3601.3997453731 -8.35E+01
     3 Broy./Diag. 0.30E+00    0.4     0.53203011     -3563.8498301588  3.75E+01
     4 Broy./Diag. 0.30E+00    0.3     0.54113197     -3536.4393012735  2.74E+01
     5 Broy./Diag. 0.30E+00    0.3     0.18096342     -3524.7796419073  1.17E+01
     6 Broy./Diag. 0.30E+00    0.4     0.13639555     -3520.8593125258  3.92E+00
     7 Broy./Diag. 0.30E+00    0.3     0.09231529     -3519.2983254456  1.56E+00
     8 Broy./Diag. 0.30E+00    0.3     0.05474744     -3518.0910830168  1.21E+00
     9 Broy./Diag. 0.30E+00    0.3     0.08483781     -3517.5866877611  5.04E-01
    10 Broy./Diag. 0.30E+00    0.3     0.05884038     -3517.3691211699  2.18E-01
    11 Broy./Diag. 0.30E+00    0.3     0.04894239     -3517.5655087826 -1.96E-01
    12 Broy./Diag. 0.30E+00    0.3     0.01707329     -3517.5251252260  4.04E-02
    13 Broy./Diag. 0.30E+00    0.3     0.01624209     -3517.5455190711 -2.04E-02
    14 Broy./Diag. 0.30E+00    0.4     0.01087443     -3517.5983593938 -5.28E-02
    15 Broy./Diag. 0.30E+00    0.4     0.00427128     -3517.6509218988 -5.26E-02
    16 Broy./Diag. 0.30E+00    0.4     0.00323488     -3517.6221097499  2.88E-02
    17 Broy./Diag. 0.30E+00    0.3     0.00305340     -3517.6350891734 -1.30E-02
    18 Broy./Diag. 0.30E+00    0.3     0.00170719     -3517.6384747521 -3.39E-03
    19 Broy./Diag. 0.30E+00    0.3     0.00099001     -3517.6385322550 -5.75E-05
    20 Broy./Diag. 0.30E+00    0.3     0.00161066     -3517.6322855253  6.25E-03
    21 Broy./Diag. 0.30E+00    0.3     0.00212919     -3517.6318482657  4.37E-04
    22 Broy./Diag. 0.30E+00    0.3     0.00142452     -3517.6299710577  1.88E-03
    23 Broy./Diag. 0.30E+00    0.3     0.00152053     -3517.6282401213  1.73E-03
    24 Broy./Diag. 0.30E+00    0.3     0.00074832     -3517.6285896161 -3.49E-04
    25 Broy./Diag. 0.30E+00    0.3     0.00041926     -3517.6277366503  8.53E-04
    26 Broy./Diag. 0.30E+00    0.3     0.00023740     -3517.6228827733  4.85E-03
    27 Broy./Diag. 0.30E+00    0.3     0.00056436     -3517.6231937911 -3.11E-04
    28 Broy./Diag. 0.30E+00    0.3     0.00046923     -3517.6215862802  1.61E-03
    29 Broy./Diag. 0.30E+00    0.3     0.00022554     -3517.6212415010  3.45E-04
    30 Broy./Diag. 0.30E+00    0.4     0.00034859     -3517.6201846157  1.06E-03
    31 Broy./Diag. 0.30E+00    0.3     0.00039038     -3517.6202204514 -3.58E-05
    32 Broy./Diag. 0.30E+00    0.4     0.00018208     -3517.6199222548  2.98E-04
    33 Broy./Diag. 0.30E+00    0.3     0.00023191     -3517.6196624760  2.60E-04
    34 Broy./Diag. 0.30E+00    0.3     0.00015276     -3517.6199226814 -2.60E-04
    35 Broy./Diag. 0.30E+00    0.3     0.00015076     -3517.6197362477  1.86E-04
    36 Broy./Diag. 0.30E+00    0.3     0.00008366     -3517.6191725892  5.64E-04
    37 Broy./Diag. 0.30E+00    0.3     0.00005865     -3517.6193136178 -1.41E-04
    38 Broy./Diag. 0.30E+00    0.3     0.00005907     -3517.6191399156  1.74E-04
    39 Broy./Diag. 0.30E+00    0.3     0.00005857     -3517.6191098050  3.01E-05
    40 Broy./Diag. 0.30E+00    0.3     0.00007206     -3517.6190209301  8.89E-05
    41 Broy./Diag. 0.30E+00    0.3     0.00007593     -3517.6190946449 -7.37E-05
    42 Broy./Diag. 0.30E+00    0.3     0.00004742     -3517.6190782543  1.64E-05
    43 Broy./Diag. 0.30E+00    0.3     0.00004255     -3517.6190023611  7.59E-05
    44 Broy./Diag. 0.30E+00    0.3     0.00003215     -3517.6190235003 -2.11E-05
    45 Broy./Diag. 0.30E+00    0.3     0.00002205     -3517.6190195387  3.96E-06
    46 Broy./Diag. 0.30E+00    0.3     0.00002098     -3517.6190346690 -1.51E-05
    47 Broy./Diag. 0.30E+00    0.3     0.00001535     -3517.6190999173 -6.52E-05
    48 Broy./Diag. 0.30E+00    0.3     0.00001084     -3517.6190679467  3.20E-05
    49 Broy./Diag. 0.30E+00    0.3     0.00001022     -3517.6190762699 -8.32E-06
    50 Broy./Diag. 0.30E+00    0.3     0.00001218     -3517.6191018438 -2.56E-05
    51 Broy./Diag. 0.30E+00    0.3     0.00001209     -3517.6191316511 -2.98E-05
    52 Broy./Diag. 0.30E+00    0.3     0.00000712     -3517.6191289728  2.68E-06
    53 Broy./Diag. 0.30E+00    0.4     0.00000462     -3517.6191319295 -2.96E-06
    54 Broy./Diag. 0.30E+00    0.3     0.00000543     -3517.6191460016 -1.41E-05
    55 Broy./Diag. 0.30E+00    0.3     0.00000592     -3517.6191536417 -7.64E-06
    56 Broy./Diag. 0.30E+00    0.3     0.00000592     -3517.6191663460 -1.27E-05
    57 Broy./Diag. 0.30E+00    0.3     0.00000362     -3517.6191968464 -3.05E-05
    58 Broy./Diag. 0.30E+00    0.3     0.00000252     -3517.6191816800  1.52E-05
    59 Broy./Diag. 0.30E+00    0.4     0.00000194     -3517.6191932480 -1.16E-05
    60 Broy./Diag. 0.30E+00    0.3     0.00000128     -3517.6191970369 -3.79E-06
    61 Broy./Diag. 0.30E+00    0.3     0.00000174     -3517.6192014600 -4.42E-06
    62 Broy./Diag. 0.30E+00    0.4     0.00000197     -3517.6191984982  2.96E-06
    63 Broy./Diag. 0.30E+00    0.3     0.00000127     -3517.6191979349  5.63E-07
    64 Broy./Diag. 0.30E+00    0.3     0.00000151     -3517.6192020548 -4.12E-06
    65 Broy./Diag. 0.30E+00    0.3     0.00000091     -3517.6192020232  3.16E-08
    66 Broy./Diag. 0.30E+00    0.3     0.00000077     -3517.6192007739  1.25E-06
    67 Broy./Diag. 0.30E+00    0.3     0.00000074     -3517.6192012101 -4.36E-07
    68 Broy./Diag. 0.30E+00    0.3     0.00000068     -3517.6191970753  4.13E-06
    69 Broy./Diag. 0.30E+00    0.3     0.00000047     -3517.6191991235 -2.05E-06
    70 Broy./Diag. 0.30E+00    0.3     0.00000037     -3517.6191989692  1.54E-07
    71 Broy./Diag. 0.30E+00    0.3     0.00000051     -3517.6191981348  8.34E-07
    72 Broy./Diag. 0.30E+00    0.3     0.00000062     -3517.6191980339  1.01E-07
    73 Broy./Diag. 0.30E+00    0.3     0.00000023     -3517.6191973913  6.43E-07
    74 Broy./Diag. 0.30E+00    0.4     0.00000021     -3517.6191974168 -2.55E-08
    75 Broy./Diag. 0.30E+00    0.3     0.00000014     -3517.6191971215  2.95E-07
    76 Broy./Diag. 0.30E+00    0.3     0.00000014     -3517.6191968843  2.37E-07
    77 Broy./Diag. 0.30E+00    0.3     0.00000014     -3517.6191967170  1.67E-07
    78 Broy./Diag. 0.30E+00    0.3     0.00000011     -3517.6191957741  9.43E-07
    79 Broy./Diag. 0.30E+00    0.4     0.00000007     -3517.6191961887 -4.15E-07

  *** SCF run converged in    79 steps ***


  Electronic density on regular grids:      -1183.9999999949        0.0000000051
  Core density on regular grids:             1183.9999998085       -0.0000001915
  Total charge density on r-space grids:       -0.0000001864
  Total charge density g-space grids:          -0.0000001864

  Overlap energy of the core charge distribution:               0.00001347459308
  Self energy of the core charge distribution:              -6148.38221378166963
  Core Hamiltonian energy:                                   1941.78022171633734
  Hartree energy:                                            1243.99709535261695
  Exchange-correlation energy:                               -554.99740253964455
  Electronic entropic energy:                                  -0.01691041049016
  Fermi energy:                                                 0.23964088665439

  Total energy:                                             -3517.61919618866386

 The electron density is written in cube file format to the file:

 dft_wfn-ELECTRON_DENSITY-1_0.cube

 !-----------------------------------------------------------------------------!
                     Mulliken Population Analysis

 #  Atom  Element  Kind  Atomic population                           Net charge
       1     Au       1         10.999796                              0.000204
       2     Au       1         10.999833                              0.000167
       3     Au       1         10.999354                              0.000646
       4     Au       1         10.999459                              0.000541
       5     Au       1         10.999700                              0.000300
       6     Au       1         10.999648                              0.000352
       7     Au       1         10.999249                              0.000751
       8     Au       1         10.999530                              0.000470
       9     Au       1         10.999659                              0.000341
      10     Au       1         11.000395                             -0.000395
      11     Au       1         10.989360                              0.010640
      12     Au       1         10.989370                              0.010630
      13     Au       1         11.001328                             -0.001328
      14     Au       1         10.999708                              0.000292
      15     Au       1         10.989377                              0.010623
      16     Au       1         10.989386                              0.010614
      17     Au       1         10.995019                              0.004981
      18     Au       1         10.995077                              0.004923
      19     Au       1         10.995249                              0.004751
      20     Au       1         10.994575                              0.005425
      21     Au       1         10.995360                              0.004640
      22     Au       1         10.995324                              0.004676
      23     Au       1         10.995173                              0.004827
      24     Au       1         10.994677                              0.005323
      25     Au       1         10.997799                              0.002201
      26     Au       1         11.004391                             -0.004391
      27     Au       1         10.989239                              0.010761
      28     Au       1         10.989228                              0.010772
      29     Au       1         11.000041                             -0.000041
      30     Au       1         10.998683                              0.001317
      31     Au       1         10.989214                              0.010786
      32     Au       1         10.989203                              0.010797
      33     Au       1         10.982105                              0.017895
      34     Au       1         10.982199                              0.017801
      35     Au       1         10.998217                              0.001783
      36     Au       1         10.981784                              0.018216
      37     Au       1         10.997033                              0.002967
      38     Au       1         10.996978                              0.003022
      39     Au       1         10.998075                              0.001925
      40     Au       1         10.981941                              0.018059
      41     Au       1         10.975715                              0.024285
      42     Au       1         11.010128                             -0.010128
      43     Au       1         10.950725                              0.049275
      44     Au       1         10.950604                              0.049396
      45     Au       1         10.955582                              0.044418
      46     Au       1         10.976999                              0.023001
      47     Au       1         10.950457                              0.049543
      48     Au       1         10.950334                              0.049666
      49     Au       1         11.083110                             -0.083110
      50     Au       1         11.083638                             -0.083638
      51     Au       1         11.241592                             -0.241592
      52     Au       1         11.076690                             -0.076690
      53     Au       1         11.212634                             -0.212634
      54     Au       1         11.213686                             -0.213686
      55     Au       1         11.242536                             -0.242536
      56     Au       1         11.076771                             -0.076771
      57     S        2          5.297206                              0.702794
      58     C        3          4.073433                             -0.073433
      59     H        4          0.842039                              0.157961
      60     H        4          0.841537                              0.158463
      61     C        3          4.099451                             -0.099451
      62     C        3          4.101816                             -0.101816
      63     C        3          4.101549                             -0.101549
      64     C        3          4.099152                             -0.099152
      65     H        4          0.841499                              0.158501
      66     H        4          0.842241                              0.157759
      67     C        3          4.073465                             -0.073465
      68     S        2          5.297242                              0.702758
      69     Au       1         11.083590                             -0.083590
      70     Au       1         11.083160                             -0.083160
      71     Au       1         11.241620                             -0.241620
      72     Au       1         11.076697                             -0.076697
      73     Au       1         11.213062                             -0.213062
      74     Au       1         11.213277                             -0.213277
      75     Au       1         11.242563                             -0.242563
      76     Au       1         11.076771                             -0.076771
      77     Au       1         10.975708                              0.024292
      78     Au       1         11.010124                             -0.010124
      79     Au       1         10.950774                              0.049226
      80     Au       1         10.950599                              0.049401
      81     Au       1         10.955586                              0.044414
      82     Au       1         10.976993                              0.023007
      83     Au       1         10.950460                              0.049540
      84     Au       1         10.950283                              0.049717
      85     Au       1         10.982109                              0.017891
      86     Au       1         10.982201                              0.017799
      87     Au       1         10.998241                              0.001759
      88     Au       1         10.981767                              0.018233
      89     Au       1         10.997077                              0.002923
      90     Au       1         10.996933                              0.003067
      91     Au       1         10.998049                              0.001951
      92     Au       1         10.981963                              0.018037
      93     Au       1         10.997798                              0.002202
      94     Au       1         11.004389                             -0.004389
      95     Au       1         10.989239                              0.010761
      96     Au       1         10.989220                              0.010780
      97     Au       1         11.000039                             -0.000039
      98     Au       1         10.998682                              0.001318
      99     Au       1         10.989222                              0.010778
     100     Au       1         10.989203                              0.010797
     101     Au       1         10.995031                              0.004969
     102     Au       1         10.995067                              0.004933
     103     Au       1         10.995232                              0.004768
     104     Au       1         10.994586                              0.005414
     105     Au       1         10.995353                              0.004647
     106     Au       1         10.995330                              0.004670
     107     Au       1         10.995189                              0.004811
     108     Au       1         10.994668                              0.005332
     109     Au       1         10.999659                              0.000341
     110     Au       1         11.000394                             -0.000394
     111     Au       1         10.989366                              0.010634
     112     Au       1         10.989368                              0.010632
     113     Au       1         11.001329                             -0.001329
     114     Au       1         10.999708                              0.000292
     115     Au       1         10.989378                              0.010622
     116     Au       1         10.989380                              0.010620
 # Total charge                           1184.000000                  0.000000

 !-----------------------------------------------------------------------------!

 !-----------------------------------------------------------------------------!
                           Hirshfeld Charges

  #Atom  Element  Kind  Ref Charge     Population                    Net charge
      1       Au     1      11.000         11.002                        -0.002
      2       Au     1      11.000         11.002                        -0.002
      3       Au     1      11.000         11.000                        -0.000
      4       Au     1      11.000         11.001                        -0.001
      5       Au     1      11.000         11.001                        -0.001
      6       Au     1      11.000         11.001                        -0.001
      7       Au     1      11.000         11.000                        -0.000
      8       Au     1      11.000         11.001                        -0.001
      9       Au     1      11.000         10.994                         0.006
     10       Au     1      11.000         10.994                         0.006
     11       Au     1      11.000         11.005                        -0.005
     12       Au     1      11.000         11.005                        -0.005
     13       Au     1      11.000         10.996                         0.004
     14       Au     1      11.000         10.994                         0.006
     15       Au     1      11.000         11.005                        -0.005
     16       Au     1      11.000         11.005                        -0.005
     17       Au     1      11.000         11.001                        -0.001
     18       Au     1      11.000         11.001                        -0.001
     19       Au     1      11.000         11.000                         0.000
     20       Au     1      11.000         10.999                         0.001
     21       Au     1      11.000         11.001                        -0.001
[...]
     61       C      3       4.000          4.041                        -0.041
     62       C      3       4.000          4.042                        -0.042
     63       C      3       4.000          4.042                        -0.042
     64       C      3       4.000          4.041                        -0.041
     65       H      4       1.000          0.959                         0.041
     66       H      4       1.000          0.960                         0.040
     67       C      3       4.000          3.998                         0.002
     68       S      2       6.000          5.910                         0.090
     69       Au     1      11.000         11.044                        -0.044
     70       Au     1      11.000         11.044                        -0.044
     71       Au     1      11.000         10.995                         0.005
     72       Au     1      11.000         11.039                        -0.039
     73       Au     1      11.000         11.004                        -0.004
     74       Au     1      11.000         11.004                        -0.004
     75       Au     1      11.000         10.995                         0.005
     76       Au     1      11.000         11.039                        -0.039
     77       Au     1      11.000         10.977                         0.023
     78       Au     1      11.000         10.983                         0.017
     79       Au     1      11.000         10.999                         0.001
     80       Au     1      11.000         10.999                         0.001
     81       Au     1      11.000         10.992                         0.008
     82       Au     1      11.000         10.977                         0.023
     83       Au     1      11.000         10.999                         0.001
     84       Au     1      11.000         10.999                         0.001
     85       Au     1      11.000         11.001                        -0.001
     86       Au     1      11.000         11.001                        -0.001
     87       Au     1      11.000         11.001                        -0.001
     88       Au     1      11.000         10.999                         0.001
     89       Au     1      11.000         11.002                        -0.002
     90       Au     1      11.000         11.002                        -0.002
     91       Au     1      11.000         11.001                        -0.001
     92       Au     1      11.000         10.999                         0.001
     93       Au     1      11.000         10.991                         0.009
     94       Au     1      11.000         10.995                         0.005
     95       Au     1      11.000         11.006                        -0.006
     96       Au     1      11.000         11.006                        -0.006
     97       Au     1      11.000         10.991                         0.009
     98       Au     1      11.000         10.991                         0.009
     99       Au     1      11.000         11.006                        -0.006
    100       Au     1      11.000         11.006                        -0.006
    101       Au     1      11.000         11.001                        -0.001
    102       Au     1      11.000         11.001                        -0.001
    103       Au     1      11.000         11.000                         0.000
    104       Au     1      11.000         10.999                         0.001
    105       Au     1      11.000         11.001                        -0.001
    106       Au     1      11.000         11.001                        -0.001
    107       Au     1      11.000         11.000                         0.000
    108       Au     1      11.000         10.999                         0.001
    109       Au     1      11.000         10.994                         0.006
    110       Au     1      11.000         10.994                         0.006
    111       Au     1      11.000         11.005                        -0.005
    112       Au     1      11.000         11.005                        -0.005
    113       Au     1      11.000         10.996                         0.004
    114       Au     1      11.000         10.994                         0.006
    115       Au     1      11.000         11.005                        -0.005
    116       Au     1      11.000         11.005                        -0.005

  Total Charge                                                           -0.000
 !-----------------------------------------------------------------------------!

 ENERGY| Total FORCE_EVAL ( QS ) energy [a.u.]:            -3517.619196188663864

 -------------------------------------------------------------------------------
 -                                                                             -
 -                                DBCSR STATISTICS                             -
 -                                                                             -
 -------------------------------------------------------------------------------
 COUNTER                                    TOTAL       BLAS       SMM       ACC
 flops inhomo. stacks                           0       0.0%      0.0%      0.0%
 flops total                         0.000000E+00       0.0%      0.0%      0.0%
 flops max/rank                      0.000000E+00       0.0%      0.0%      0.0%
 matmuls inhomo. stacks                         0       0.0%      0.0%      0.0%
 matmuls total                                  0       0.0%      0.0%      0.0%
 number of processed stacks                     0       0.0%      0.0%      0.0%
 average stack size                                     0.0       0.0       0.0
 marketing flops                     0.000000E+00
 -------------------------------------------------------------------------------
 -                                                                             -
 -                      DBCSR MESSAGE PASSING PERFORMANCE                      -
 -                                                                             -
 -------------------------------------------------------------------------------
 ROUTINE             CALLS      AVE VOLUME [Bytes]
 MP_Bcast                1                     12.
 MP_Allreduce         6656                      8.
 MP_Alltoall          8494                 173897.
 -------------------------------------------------------------------------------

 -------------------------------------------------------------------------------
 -                                                                             -
 -                                DBM STATISTICS                               -
 -                                                                             -
 -------------------------------------------------------------------------------
    M  x    N  x    K                                          COUNT     PERCENT
 -------------------------------------------------------------------------------

 -------------------------------------------------------------------------------
 -                                                                             -
 -                                GRID STATISTICS                              -
 -                                                                             -
 -------------------------------------------------------------------------------
 LP    KERNEL             BACKEND                              COUNT     PERCENT
 4     collocate ortho    REF                                7605760      44.71%
 4     integrate ortho    REF                                7510688      44.15%
 3     collocate ortho    REF                                 364080       2.14%
 3     integrate ortho    REF                                 359529       2.11%
 2     collocate ortho    REF                                 262480       1.54%
 2     integrate ortho    REF                                 259199       1.52%
 0     collocate general  REF                                 250560       1.47%
 0     integrate general  REF                                 222720       1.31%
 1     collocate ortho    REF                                  65600       0.39%
 1     integrate ortho    REF                                  64780       0.38%
 0     collocate ortho    REF                                  22560       0.13%
 0     integrate ortho    REF                                  22278       0.13%
 -------------------------------------------------------------------------------

 MEMORY| Estimated peak process memory [MiB]                                 382

 -------------------------------------------------------------------------------
 ----                             MULTIGRID INFO                            ----
 -------------------------------------------------------------------------------
 count for grid        1:         403725          cutoff [a.u.]          200.00
 count for grid        2:         625157          cutoff [a.u.]           66.67
 count for grid        3:         344958          cutoff [a.u.]           22.22
 count for grid        4:         152886          cutoff [a.u.]            7.41
 total gridlevel count  :        1526726

 -------------------------------------------------------------------------------
 -                                                                             -
 -                         MESSAGE PASSING PERFORMANCE                         -
 -                                                                             -
 -------------------------------------------------------------------------------

 ROUTINE             CALLS      AVE VOLUME [Bytes]
 MP_Group                5
 MP_Bcast             3025                 210164.
 MP_Allreduce         4601                    491.
 MP_Sync               958
 MP_Alltoall          1447              420127451.
 MP_ISendRecv        76002                   4000.
 MP_Wait             96009
 MP_ISend            29003                  33828.
 MP_IRecv            29101                  33723.
 MP_Recv              5040                 248832.
 MP_Write_All            2                 248850.
 -------------------------------------------------------------------------------


 -------------------------------------------------------------------------------
 -                                                                             -
 -                           R E F E R E N C E S                               -
 -                                                                             -
 -------------------------------------------------------------------------------
 
 CP2K version 2022.1 (Development Version), the CP2K developers group (2022).
 CP2K is freely available from https://www.cp2k.org/ .

 Kuehne,Thomas D.; Iannuzzi,Marcella; Del Ben,Mauro;
 Rybkin,Vladimir V.; Seewald,Patrick; Stein,Frederick; Laino,Teodoro;
 Khaliullin,Rustam Z.; Schuett,Ole; Schiffmann,Florian; Golze,Dorothea;
 Wilhelm,Jan; Chulkov,Sergey; Bani-Hashemian,Mohammad Hossein;
 Weber,Valery; Borstnik,Urban; Taillefumier,Mathieu;
 Jakobovits,Alice Shoshana; Lazzaro,Alfio; Pabst,Hans; Mueller,Tiziano;
 Schade,Robert; Guidon,Manuel; Andermatt,Samuel; Holmberg,Nico;
 Schenter,Gregory K.; Hehn,Anna; Bussy,Augustin; Belleflamme,Fabian;
 Tabacchi,Gloria; Gloess,Andreas; Lass,Michael; Bethune,Iain;
 Mundy,Christopher J.; Plessl,Christian; Watkins,Matt;
 VandeVondele,Joost; Krack,Matthias; Hutter,Juerg. 
 The Journal of Chemical Physics, 152 (19), (2020). 
 CP2K: An electronic structure and molecular dynamics software package -
 Quickstep: Efficient and accurate electronic structure calculations.
 https://doi.org/10.1063/5.0007045

 Togo, Atsushi; Tanaka, Isao. arXiv, 1808.01590 (2018). 
 Spglib : a software library for crystal symmetry search.
 https://doi.org/xxx

 Schuett, Ole; Messmer, Peter; Hutter, Juerg; VandeVondele, Joost. 
 Electronic Structure Calculations on Graphics Processing Units, John
 Wiley & Sons, Ltd, 173-190 (2016). 
 GPU-Accelerated Sparse Matrix-Matrix Multiplication for
 Linear Scaling Density Functional Theory.
 https://doi.org/10.1002/9781118670712.ch8

 Heinecke, A; Henry, G; Hutchinson, M; Pabst, H. 
 Proceedings of Intl. Supercomputing Conference, 981-991 (2016). 
 LIBXSMM: Accelerating Small Matrix Multiplications
 by Runtime Code Generation.
 https://doi.org/10.1109/SC.2016.83

 Borstnik, U; VandeVondele, J; Weber, V; Hutter, J. 
 PARALLEL COMPUTING, 40 (5-6), 47-58 (2014). 
 Sparse matrix multiplication: The distributed block-compressed sparse
 row library.
 https://doi.org/10.1016/j.parco.2014.03.012

 Hutter, J; Iannuzzi, M; Schiffmann, F; VandeVondele, J. 
 WIREs Comput Mol Sci., 4 (1), 15-25 (2014). 
 CP2K: atomistic simulations of condensed matter systems.
 https://doi.org/10.1002/wcms.1159

 VandeVondele, J; Hutter, J. 
 JOURNAL OF CHEMICAL PHYSICS, 127 (11), 114105 (2007). 
 Gaussian basis sets for accurate calculations on molecular systems in
 gas and condensed phases.
 https://doi.org/10.1063/1.2770708

 Krack, M. 
 THEORETICAL CHEMISTRY ACCOUNTS, 114 (1-3), 145-152 (2005). 
 Pseudopotentials for H to Kr optimized for gradient-corrected
 exchange-correlation functionals.
 https://doi.org/10.1007/s00214-005-0655-y

 VandeVondele, J; Krack, M; Mohamed, F; Parrinello, M; Chassaing, T;
 Hutter, J. COMPUTER PHYSICS COMMUNICATIONS, 167 (2), 103-128 (2005). 
 QUICKSTEP: Fast and accurate density functional calculations using a
 mixed Gaussian and plane waves approach.
 https://doi.org/10.1016/j.cpc.2004.12.014

 Frigo, M; Johnson, SG. 
 PROCEEDINGS OF THE IEEE, 93 (2), 216-231 (2005). 
 The design and implementation of FFTW3.
 https://doi.org/10.1109/JPROC.2004.840301

 Hartwigsen, C; Goedecker, S; Hutter, J. 
 PHYSICAL REVIEW B, 58 (7), 3641-3662 (1998). 
 Relativistic separable dual-space Gaussian pseudopotentials from H to Rn.
 https://doi.org/10.1103/PhysRevB.58.3641

 Lippert, G; Hutter, J; Parrinello, M. 
 MOLECULAR PHYSICS, 92 (3), 477-487 (1997). 
 A hybrid Gaussian and plane wave density functional scheme.
 https://doi.org/10.1080/002689797170220

 Goedecker, S; Teter, M; Hutter, J. 
 PHYSICAL REVIEW B, 54 (3), 1703-1710 (1996). 
 Separable dual-space Gaussian pseudopotentials.
 https://doi.org/10.1103/PhysRevB.54.1703


 -------------------------------------------------------------------------------
 -                                                                             -
 -                                T I M I N G                                  -
 -                                                                             -
 -------------------------------------------------------------------------------
 SUBROUTINE                       CALLS  ASD         SELF TIME        TOTAL TIME
                                MAXIMUM       AVERAGE  MAXIMUM  AVERAGE  MAXIMUM
 CP2K                                 1  1.0    0.028    0.041   30.910   30.914
 qs_energies                          1  2.0    0.000    0.001   30.713   30.720
 scf_env_do_scf                       1  3.0    0.000    0.000   28.871   28.950
 scf_env_do_scf_inner_loop           79  4.0    0.005    0.425   28.871   28.950
 qs_scf_new_mos_kp                   79  5.0    0.001    0.001   16.496   16.507
 do_general_diag_kp                  79  6.0    0.005    0.006   16.495   16.506
 cp_cfm_geeig                        79  7.0    0.001    0.001   13.423   13.435
 cp_cfm_heevd                        79  8.0   11.530   11.563   11.530   11.563
 qs_ks_update_qs_env                 79  5.0    0.001    0.001    4.995    5.002
 rs_pw_transfer                     639  9.5    0.006    0.009    4.225    4.594
 rebuild_ks_matrix                   79  6.0    0.000    0.000    4.386    4.392
 qs_ks_build_kohn_sham_matrix        79  7.0    0.011    0.014    4.386    4.392
 qs_rho_update_rho_low               80  5.0    0.000    0.000    4.185    4.191
 calculate_rho_elec                  80  6.0    0.007    0.009    4.185    4.191
 sum_up_and_integrate                79  8.0    0.003    0.006    3.888    3.906
 integrate_v_rspace                  79  9.0    0.002    0.002    3.884    3.904
 copy_dbcsr_to_fm                   484  6.7    0.005    0.006    3.560    3.630
 mp_waitany                       19296 11.5    2.441    3.200    2.441    3.200
 dbcsr_desymmetrize_deep            800  7.4    0.018    0.022    3.028    3.113
 potential_pw2rs                     79 10.0    0.002    0.003    2.927    2.947
 write_kpoints_restart               79  5.0    0.003    0.273    2.590    2.832
 density_rs2pw                       80  7.0    0.002    0.004    2.455    2.803
 mp_alltoall_i22                   1442  8.7    2.181    2.362    2.181    2.362
 cp_fm_write_unformatted            168  6.0    0.110    1.821    0.134    2.024
 pw_transfer                       1032  8.9    0.032    0.040    1.590    1.683
 mp_alltoall_d11v                  4485  9.2    1.423    1.645    1.423    1.645
 fft_wrap_pw1pw2                    874  9.9    0.005    0.006    1.544    1.640
 scf_post_calculation_gpw             1  3.0    0.000    0.000    1.633    1.633
 write_available_results              1  4.0    0.000    0.000    1.633    1.633
 write_mo_free_results                1  5.0    0.866    0.924    1.632    1.633
 grid_collocate_task_list            80  7.0    1.362    1.543    1.362    1.543
 rs_pw_transfer_RS2PW_200            82  9.0    0.294    0.397    1.097    1.453
 dbcsr_complete_redistribute        642  8.0    0.037    0.048    1.285    1.312
 rs_pw_transfer_PW2RS_200            80 11.9    0.337    0.400    1.086    1.230
 rs_pw_transfer_PW2RS_70             79 12.0    0.063    0.076    1.034    1.157
 fft_wrap_pw1pw2_200                397 10.2    0.044    0.055    0.938    1.078
 pw_to_cube                           2  6.0    0.083    0.569    0.649    0.994
 cp_cfm_triangular_multiply         237  8.0    0.941    0.991    0.941    0.991
 mp_alltoall_i11v                  2726  8.8    0.887    0.958    0.887    0.958
 mp_sum_d                          7695  8.5    0.772    0.946    0.772    0.946
 fft3d_pb                           397 11.2    0.194    0.246    0.804    0.940
 grid_integrate_task_list            79 10.0    0.843    0.911    0.843    0.911
 mp_alltoall_z22v                  1271 13.7    0.582    0.824    0.582    0.824
 kpoint_density_matrices             79  7.0    0.005    0.005    0.770    0.795
 cp_gemm                            316  8.0    0.000    0.000    0.763    0.789
 cp_gemm_fm_gemm                    316  9.0    0.000    0.000    0.763    0.788
 cp_fm_gemm                         316 10.0    0.762    0.788    0.762    0.788
 mp_waitall_1                     81573 11.5    0.372    0.713    0.372    0.713
 hybrid_alltoall_any                800  8.4    0.004    0.004    0.551    0.667
 fft3d_ps                           477 12.5    0.018    0.032    0.587    0.625
 dbcsr_dot_sd                      6637  8.0    0.043    0.070    0.617    0.620
 -------------------------------------------------------------------------------

 The number of warnings for this run is : 0
 
 -------------------------------------------------------------------------------
  **** **** ******  **  PROGRAM ENDED AT                 2023-02-20 21:57:49.118
 ***** ** ***  *** **   PROGRAM RAN ON                     cn1066.scarf.rl.ac.uk
 **    ****   ******    PROGRAM RAN BY                                 scarf1157
 ***** **    ** ** **   PROGRAM PROCESS ID                                 18632
  **** **  *******  **  PROGRAM STOPPED IN /work4/scd/scarf1157/work/testing/cp2
                                           k-smeagol/bdt/cp2k/hollow-site/transp
                                           ort-cp2k/5-4/geometry-ordered/3x3-4/s
                                           z/bulk_layers-4/kpoints_bulk-100_em-1
                                           -1-1
