 DBCSR| CPU Multiplication driver                                           XSMM
 DBCSR| Multrec recursion limit                                              512
 DBCSR| Multiplication stack size                                           1000
 DBCSR| Maximum elements for images                                    UNLIMITED
 DBCSR| Multiplicative factor virtual images                                   1
 DBCSR| Use multiplication densification                                       T
 DBCSR| Multiplication size stacks                                             3
 DBCSR| Use memory pool for CPU allocation                                     F
 DBCSR| Number of 3D layers                                               SINGLE
 DBCSR| Use MPI memory allocation                                              F
 DBCSR| Use RMA algorithm                                                      F
 DBCSR| Use Communication thread                                               T
 DBCSR| Communication thread load                                             87
 DBCSR| MPI: My node id                                                        0
 DBCSR| MPI: Number of nodes                                                  24
 DBCSR| OMP: Current number of threads                                         1
 DBCSR| OMP: Max number of threads                                             1
 DBCSR| Split modifier for TAS multiplication algorithm                  1.0E+00


  **** **** ******  **  PROGRAM STARTED AT               2022-10-19 12:12:48.006
 ***** ** ***  *** **   PROGRAM STARTED ON                 cn1048.scarf.rl.ac.uk
 **    ****   ******    PROGRAM STARTED BY                             scarf1157
 ***** **    ** ** **   PROGRAM PROCESS ID                                  6385
  **** **  *******  **  PROGRAM STARTED IN /work4/scd/scarf1157/work/testing/cp2
                                           k-smeagol/bdt/em/4-opt

 CP2K| version string:                 CP2K version 2022.1 (Development Version)
 CP2K| source code revision number:                                  git:8c0411e
 CP2K| cp2kflags: omp libint fftw3 libxc parallel mpi3 scalapack cosma xsmm spgl
 CP2K|            ib sirius libvori libbqb libvdwxc
 CP2K| is freely available from                            https://www.cp2k.org/
 CP2K| Program compiled at                          Thu  6 Oct 11:48:07 BST 2022
 CP2K| Program compiled on                                 cn1065.scarf.rl.ac.uk
 CP2K| Program compiled for                                                local
 CP2K| Data directory path     /home/vol07/scarf1157/code/cp2k/scarf21/cp2k/data
 CP2K| Input file name                                             2_dft_wfn.inp

 GLOBAL| Force Environment number                                              1
 GLOBAL| Basis set file name                                        BASIS_MOLOPT
 GLOBAL| Potential file name                                      GTH_POTENTIALS
 GLOBAL| MM Potential file name                                     MM_POTENTIAL
 GLOBAL| Coordinate file name                                          input.xyz
 GLOBAL| Method name                                                        CP2K
 GLOBAL| Project name                                                    dft_wfn
 GLOBAL| Run type                                                         ENERGY
 GLOBAL| FFT library                                                       FFTW3
 GLOBAL| Diagonalization library                                       ScaLAPACK
 GLOBAL| DGEMM library                                                      BLAS
 GLOBAL| Orthonormality check for eigenvectors                          DISABLED
 GLOBAL| Matrix multiplication library                                     COSMA
 GLOBAL| All-to-all communication in single precision                          F
 GLOBAL| FFTs using library dependent lengths                                  T
 GLOBAL| Grid backend                                                       AUTO
 GLOBAL| Global print level                                               MEDIUM
 GLOBAL| MPI I/O enabled                                                       T
 GLOBAL| Total number of message passing processes                            24
 GLOBAL| Number of threads for this process                                    1
 GLOBAL| This output is from process                                           0
 GLOBAL| Stack size for threads created by OpenMP (OMP_STACKSIZE)        default
 GLOBAL| CPU model name                         AMD EPYC 7502P 32-Core Processor
 GLOBAL| CPUID                                                              1002
 GLOBAL| Compiled for CPUID                                                    0

 *** HINT in environment.F:884 :: The compiler target flags (generic) used ***
 *** to build this binary cannot exploit all extensions of this CPU model  ***
 *** (x86_avx2). Consider compiler target flags as part of FCFLAGS and     ***
 *** CFLAGS (ARCH file).                                                   ***


 MEMORY| system memory details [Kb]
 MEMORY|                        rank 0           min           max       average
 MEMORY| MemTotal            263897156     263897156     263897156     263897156
 MEMORY| MemFree             236875368     236875368     236875368     236875368
 MEMORY| Buffers                  2824          2824          2824          2824
 MEMORY| Cached                7277620       7277620       7277620       7277620
 MEMORY| Slab                  1037360       1037360       1037360       1037360
 MEMORY| SReclaimable           560964        560964        560964        560964
 MEMORY| MemLikelyFree       244716776     244716776     244716776     244716776


 *** Fundamental physical constants (SI units) ***

 *** Literature: B. J. Mohr and B. N. Taylor,
 ***             CODATA recommended values of the fundamental physical
 ***             constants: 2006, Web Version 5.1
 ***             http://physics.nist.gov/constants

 Speed of light in vacuum [m/s]                             2.99792458000000E+08
 Magnetic constant or permeability of vacuum [N/A**2]       1.25663706143592E-06
 Electric constant or permittivity of vacuum [F/m]          8.85418781762039E-12
 Planck constant (h) [J*s]                                  6.62606896000000E-34
 Planck constant (h-bar) [J*s]                              1.05457162825177E-34
 Elementary charge [C]                                      1.60217648700000E-19
 Electron mass [kg]                                         9.10938215000000E-31
 Electron g factor [ ]                                     -2.00231930436220E+00
 Proton mass [kg]                                           1.67262163700000E-27
 Fine-structure constant                                    7.29735253760000E-03
 Rydberg constant [1/m]                                     1.09737315685270E+07
 Avogadro constant [1/mol]                                  6.02214179000000E+23
 Boltzmann constant [J/K]                                   1.38065040000000E-23
 Atomic mass unit [kg]                                      1.66053878200000E-27
 Bohr radius [m]                                            5.29177208590000E-11

 *** Conversion factors ***

 [u] -> [a.u.]                                              1.82288848426455E+03
 [Angstrom] -> [Bohr] = [a.u.]                              1.88972613288564E+00
 [a.u.] = [Bohr] -> [Angstrom]                              5.29177208590000E-01
 [a.u.] -> [s]                                              2.41888432650478E-17
 [a.u.] -> [fs]                                             2.41888432650478E-02
 [a.u.] -> [J]                                              4.35974393937059E-18
 [a.u.] -> [N]                                              8.23872205491840E-08
 [a.u.] -> [K]                                              3.15774647902944E+05
 [a.u.] -> [kJ/mol]                                         2.62549961709828E+03
 [a.u.] -> [kcal/mol]                                       6.27509468713739E+02
 [a.u.] -> [Pa]                                             2.94210107994716E+13
 [a.u.] -> [bar]                                            2.94210107994716E+08
 [a.u.] -> [atm]                                            2.90362800883016E+08
 [a.u.] -> [eV]                                             2.72113838565563E+01
 [a.u.] -> [Hz]                                             6.57968392072181E+15
 [a.u.] -> [1/cm] (wave numbers)                            2.19474631370540E+05
 [a.u./Bohr**2] -> [1/cm]                                   5.14048714338585E+03
 

 CELL_TOP| Volume [angstrom^3]:                                      7365.522092
 CELL_TOP| Vector a [angstrom    16.685     0.000     0.000   |a| =    16.685150
 CELL_TOP| Vector b [angstrom     0.000    16.685     0.000   |b| =    16.685150
 CELL_TOP| Vector c [angstrom     0.000     0.000    26.457   |c| =    26.457165
 CELL_TOP| Angle (b,c), alpha [degree]:                                90.000000
 CELL_TOP| Angle (a,c), beta  [degree]:                                90.000000
 CELL_TOP| Angle (a,b), gamma [degree]:                                90.000000
 CELL_TOP| Numerically orthorhombic:                                         YES
 CELL_TOP| Periodicity                                                       XYZ

 GENERATE|  Preliminary Number of Bonds generated:                             0
 GENERATE|  Achieved consistency in connectivity generation.

 CELL| Volume [angstrom^3]:                                          7365.522092
 CELL| Vector a [angstrom]:      16.685     0.000     0.000   |a| =    16.685150
 CELL| Vector b [angstrom]:       0.000    16.685     0.000   |b| =    16.685150
 CELL| Vector c [angstrom]:       0.000     0.000    26.457   |c| =    26.457165
 CELL| Angle (b,c), alpha [degree]:                                    90.000000
 CELL| Angle (a,c), beta  [degree]:                                    90.000000
 CELL| Angle (a,b), gamma [degree]:                                    90.000000
 CELL| Numerically orthorhombic:                                             YES
 CELL| Periodicity                                                           XYZ

 CELL_REF| Volume [angstrom^3]:                                      7365.522092
 CELL_REF| Vector a [angstrom    16.685     0.000     0.000   |a| =    16.685150
 CELL_REF| Vector b [angstrom     0.000    16.685     0.000   |b| =    16.685150
 CELL_REF| Vector c [angstrom     0.000     0.000    26.457   |c| =    26.457165
 CELL_REF| Angle (b,c), alpha [degree]:                                90.000000
 CELL_REF| Angle (a,c), beta  [degree]:                                90.000000
 CELL_REF| Angle (a,b), gamma [degree]:                                90.000000
 CELL_REF| Numerically orthorhombic:                                         YES
 CELL_REF| Periodicity                                                       XYZ

 *******************************************************************************
 *******************************************************************************
 **                                                                           **
 **     #####                         ##              ##                      **
 **    ##   ##            ##          ##              ##                      **
 **   ##     ##                       ##            ######                    **
 **   ##     ##  ##   ##  ##   #####  ##  ##   ####   ##    #####    #####    **
 **   ##     ##  ##   ##  ##  ##      ## ##   ##      ##   ##   ##  ##   ##   **
 **   ##  ## ##  ##   ##  ##  ##      ####     ###    ##   ######   ######    **
 **    ##  ###   ##   ##  ##  ##      ## ##      ##   ##   ##       ##        **
 **     #######   #####   ##   #####  ##  ##  ####    ##    #####   ##        **
 **           ##                                                    ##        **
 **                                                                           **
 **                                                ... make the atoms dance   **
 **                                                                           **
 **            Copyright (C) by CP2K developers group (2000-2022)             **
 **                      J. Chem. Phys. 152, 194103 (2020)                    **
 **                                                                           **
 *******************************************************************************

 DFT| Spin restricted Kohn-Sham (RKS) calculation                            RKS
 DFT| Multiplicity                                                             1
 DFT| Number of spin states                                                    1
 DFT| Charge                                                                   0
 DFT| Self-interaction correction (SIC)                                       NO
 DFT| Cutoffs: density                                              1.000000E-10
 DFT|          gradient                                             1.000000E-10
 DFT|          tau                                                  1.000000E-10
 DFT|          cutoff_smoothing_range                               0.000000E+00
 DFT| XC density smoothing                                                  NONE
 DFT| XC derivatives                                                          PW

 FUNCTIONAL| PADE:
 FUNCTIONAL| S. Goedecker, M. Teter and J. Hutter, Phys. Rev. B 54, 1703 (1996) 


 QS| Method:                                                                 GPW
 QS| Density plane wave grid type                        NON-SPHERICAL FULLSPACE
 QS| Number of grid levels:                                                    4
 QS| Density cutoff [a.u.]:                                                200.0
 QS| Multi grid cutoff [a.u.]: 1) grid level                               200.0
 QS|                           2) grid level                                66.7
 QS|                           3) grid level                                22.2
 QS|                           4) grid level                                 7.4
 QS| Grid level progression factor:                                          3.0
 QS| Relative density cutoff [a.u.]:                                        20.0
 QS| Interaction thresholds: eps_pgf_orb:                                1.0E-05
 QS|                         eps_filter_matrix:                          0.0E+00
 QS|                         eps_core_charge:                            1.0E-12
 QS|                         eps_rho_gspace:                             1.0E-10
 QS|                         eps_rho_rspace:                             1.0E-10
 QS|                         eps_gvg_rspace:                             1.0E-05
 QS|                         eps_ppl:                                    1.0E-02
 QS|                         eps_ppnl:                                   1.0E-07


 ATOMIC KIND INFORMATION

  1. Atomic kind: Au                                    Number of atoms:     256

     Orbital Basis Set                                         SZV-MOLOPT-SR-GTH

       Number of orbital shell sets:                                           1
       Number of orbital shells:                                               3
       Number of primitive Cartesian functions:                                5
       Number of Cartesian basis functions:                                   10
       Number of spherical basis functions:                                    9
       Norm type:                                                              2

       Normalised Cartesian orbitals:

                        Set   Shell   Orbital            Exponent    Coefficient

                          1       1    2s                2.950008       0.074626
                                                         1.563057      -0.007898
                                                         0.666664      -0.297688
                                                         0.251083       0.136809
                                                         0.081714       0.088198

                          1       2    3px               2.950008       0.148824
                                                         1.563057       0.025430
                                                         0.666664      -0.123003
                                                         0.251083       0.033648
                                                         0.081714       0.059008
                          1       2    3py               2.950008       0.148824
                                                         1.563057       0.025430
                                                         0.666664      -0.123003
                                                         0.251083       0.033648
                                                         0.081714       0.059008
                          1       2    3pz               2.950008       0.148824
                                                         1.563057       0.025430
                                                         0.666664      -0.123003
                                                         0.251083       0.033648
                                                         0.081714       0.059008

                          1       3    4dx2              2.950008      -0.139595
                                                         1.563057       1.319655
                                                         0.666664       0.377081
                                                         0.251083       0.046872
                                                         0.081714       0.001393
                          1       3    4dxy              2.950008      -0.241786
                                                         1.563057       2.285709
                                                         0.666664       0.653124
                                                         0.251083       0.081185
                                                         0.081714       0.002412
                          1       3    4dxz              2.950008      -0.241786
                                                         1.563057       2.285709
                                                         0.666664       0.653124
                                                         0.251083       0.081185
                                                         0.081714       0.002412
                          1       3    4dy2              2.950008      -0.139595
                                                         1.563057       1.319655
                                                         0.666664       0.377081
                                                         0.251083       0.046872
                                                         0.081714       0.001393
                          1       3    4dyz              2.950008      -0.241786
                                                         1.563057       2.285709
                                                         0.666664       0.653124
                                                         0.251083       0.081185
                                                         0.081714       0.002412
                          1       3    4dz2              2.950008      -0.139595
                                                         1.563057       1.319655
                                                         0.666664       0.377081
                                                         0.251083       0.046872
                                                         0.081714       0.001393

       Atomic covalent radius [Angstrom]:                                  1.340

       Atomic van der Waals radius [Angstrom]:                             1.660

     GTH Potential information for                                  GTH-PADE-q11

       Description:                       Goedecker-Teter-Hutter pseudopotential
                                           Goedecker et al., PRB 54, 1703 (1996)
                                          Hartwigsen et al., PRB 58, 3641 (1998)
                                                      Krack, TCA 114, 145 (2005)

       Gaussian exponent of the core charge distribution:               1.436369
       Electronic configuration (s p d ...):                           1   0  10

       Parameters of the local part of the GTH pseudopotential:

                          rloc        C1          C2          C3          C4
                        0.590000   11.604428

       Parameters of the non-local part of the GTH pseudopotential:

                   l      r(l)      h(i,j,l)

                   0    0.521180    2.538614   -1.046137
                                   -1.046137    2.701113
                   1    0.630613    0.394853   -0.869592
                                   -0.869592    2.057831
                   2    0.440706   -4.719070    0.727771
                                    0.727771   -1.650429

  2. Atomic kind: S                                     Number of atoms:       2

     Orbital Basis Set                                        DZVP-MOLOPT-SR-GTH

       Number of orbital shell sets:                                           1
       Number of orbital shells:                                               5
       Number of primitive Cartesian functions:                                4
       Number of Cartesian basis functions:                                   14
       Number of spherical basis functions:                                   13
       Norm type:                                                              2

       Normalised Cartesian orbitals:

                        Set   Shell   Orbital            Exponent    Coefficient

                          1       1    2s                2.215855       0.308496
                                                         1.131471       0.138505
                                                         0.410168      -0.373736
                                                         0.140587      -0.040370

                          1       2    3s                2.215855      -0.329528
                                                         1.131471      -0.517509
                                                         0.410168       0.787368
                                                         0.140587      -0.322786

                          1       3    3px               2.215855       0.420434
                                                         1.131471      -0.319283
                                                         0.410168      -0.335323
                                                         0.140587      -0.030976
                          1       3    3py               2.215855       0.420434
                                                         1.131471      -0.319283
                                                         0.410168      -0.335323
                                                         0.140587      -0.030976
                          1       3    3pz               2.215855       0.420434
                                                         1.131471      -0.319283
                                                         0.410168      -0.335323
                                                         0.140587      -0.030976

                          1       4    4px               2.215855       0.241296
                                                         1.131471      -0.170582
                                                         0.410168      -0.186977
                                                         0.140587       0.153509
                          1       4    4py               2.215855       0.241296
                                                         1.131471      -0.170582
                                                         0.410168      -0.186977
                                                         0.140587       0.153509
                          1       4    4pz               2.215855       0.241296
                                                         1.131471      -0.170582
                                                         0.410168      -0.186977
                                                         0.140587       0.153509

                          1       5    4dx2              2.215855       0.573559
                                                         1.131471       0.544926
                                                         0.410168       0.228284
                                                         0.140587       0.008811
                          1       5    4dxy              2.215855       0.993434
                                                         1.131471       0.943840
                                                         0.410168       0.395400
                                                         0.140587       0.015260
                          1       5    4dxz              2.215855       0.993434
                                                         1.131471       0.943840
                                                         0.410168       0.395400
                                                         0.140587       0.015260
                          1       5    4dy2              2.215855       0.573559
                                                         1.131471       0.544926
                                                         0.410168       0.228284
                                                         0.140587       0.008811
                          1       5    4dyz              2.215855       0.993434
                                                         1.131471       0.943840
                                                         0.410168       0.395400
                                                         0.140587       0.015260
                          1       5    4dz2              2.215855       0.573559
                                                         1.131471       0.544926
                                                         0.410168       0.228284
                                                         0.140587       0.008811

       Atomic covalent radius [Angstrom]:                                  1.020

       Atomic van der Waals radius [Angstrom]:                             1.800

     GTH Potential information for                                    GTH-PBE-q6

       Description:                       Goedecker-Teter-Hutter pseudopotential
                                           Goedecker et al., PRB 54, 1703 (1996)
                                          Hartwigsen et al., PRB 58, 3641 (1998)
                                                      Krack, TCA 114, 145 (2005)

       Gaussian exponent of the core charge distribution:               2.834467
       Electronic configuration (s p d ...):                               2   4

       Parameters of the local part of the GTH pseudopotential:

                          rloc        C1          C2          C3          C4
                        0.420000   -5.986260

       Parameters of the non-local part of the GTH pseudopotential:

                   l      r(l)      h(i,j,l)

                   0    0.364820   13.143544   -4.241830
                                   -4.241830    5.476180
                   1    0.409480    3.700891

  3. Atomic kind: C                                     Number of atoms:       6

     Orbital Basis Set                                        DZVP-MOLOPT-SR-GTH

       Number of orbital shell sets:                                           1
       Number of orbital shells:                                               5
       Number of primitive Cartesian functions:                                5
       Number of Cartesian basis functions:                                   14
       Number of spherical basis functions:                                   13
       Norm type:                                                              2

       Normalised Cartesian orbitals:

                        Set   Shell   Orbital            Exponent    Coefficient

                          1       1    2s                5.605331       0.322515
                                                         2.113016       0.213043
                                                         0.769911      -0.209686
                                                         0.348157      -0.219794
                                                         0.128212      -0.022789

                          1       2    3s                5.605331       0.552234
                                                         2.113016       0.082072
                                                         0.769911       0.007843
                                                         0.348157       0.136893
                                                         0.128212       0.074283

                          1       3    3px               5.605331      -0.703879
                                                         2.113016      -0.642521
                                                         0.769911      -0.374851
                                                         0.348157      -0.139743
                                                         0.128212      -0.027849
                          1       3    3py               5.605331      -0.703879
                                                         2.113016      -0.642521
                                                         0.769911      -0.374851
                                                         0.348157      -0.139743
                                                         0.128212      -0.027849
                          1       3    3pz               5.605331      -0.703879
                                                         2.113016      -0.642521
                                                         0.769911      -0.374851
                                                         0.348157      -0.139743
                                                         0.128212      -0.027849

                          1       4    4px               5.605331      -0.480376
                                                         2.113016      -0.552894
                                                         0.769911      -0.316145
                                                         0.348157       0.210505
                                                         0.128212       0.076095
                          1       4    4py               5.605331      -0.480376
                                                         2.113016      -0.552894
                                                         0.769911      -0.316145
                                                         0.348157       0.210505
                                                         0.128212       0.076095
                          1       4    4pz               5.605331      -0.480376
                                                         2.113016      -0.552894
                                                         0.769911      -0.316145
                                                         0.348157       0.210505
                                                         0.128212       0.076095

                          1       5    4dx2              5.605331       0.640026
                                                         2.113016       0.274300
                                                         0.769911       0.446711
                                                         0.348157       0.028674
                                                         0.128212       0.029790
                          1       5    4dxy              5.605331       1.108557
                                                         2.113016       0.475102
                                                         0.769911       0.773726
                                                         0.348157       0.049666
                                                         0.128212       0.051599
                          1       5    4dxz              5.605331       1.108557
                                                         2.113016       0.475102
                                                         0.769911       0.773726
                                                         0.348157       0.049666
                                                         0.128212       0.051599
                          1       5    4dy2              5.605331       0.640026
                                                         2.113016       0.274300
                                                         0.769911       0.446711
                                                         0.348157       0.028674
                                                         0.128212       0.029790
                          1       5    4dyz              5.605331       1.108557
                                                         2.113016       0.475102
                                                         0.769911       0.773726
                                                         0.348157       0.049666
                                                         0.128212       0.051599
                          1       5    4dz2              5.605331       0.640026
                                                         2.113016       0.274300
                                                         0.769911       0.446711
                                                         0.348157       0.028674
                                                         0.128212       0.029790

       Atomic covalent radius [Angstrom]:                                  0.770

       Atomic van der Waals radius [Angstrom]:                             1.700

     GTH Potential information for                                    GTH-PBE-q4

       Description:                       Goedecker-Teter-Hutter pseudopotential
                                           Goedecker et al., PRB 54, 1703 (1996)
                                          Hartwigsen et al., PRB 58, 3641 (1998)
                                                      Krack, TCA 114, 145 (2005)

       Gaussian exponent of the core charge distribution:               4.364419
       Electronic configuration (s p d ...):                               2   2

       Parameters of the local part of the GTH pseudopotential:

                          rloc        C1          C2          C3          C4
                        0.338471   -8.803674    1.339211

       Parameters of the non-local part of the GTH pseudopotential:

                   l      r(l)      h(i,j,l)

                   0    0.302576    9.622487
                   1    0.291507

  4. Atomic kind: H                                     Number of atoms:       4

     Orbital Basis Set                                        DZVP-MOLOPT-SR-GTH

       Number of orbital shell sets:                                           1
       Number of orbital shells:                                               3
       Number of primitive Cartesian functions:                                5
       Number of Cartesian basis functions:                                    5
       Number of spherical basis functions:                                    5
       Norm type:                                                              2

       Normalised Cartesian orbitals:

                        Set   Shell   Orbital            Exponent    Coefficient

                          1       1    2s               10.068468      -0.133023
                                                         2.680223      -0.177618
                                                         0.791502      -0.258419
                                                         0.239116      -0.107525
                                                         0.082193      -0.014019

                          1       2    3s               10.068468       0.344673
                                                         2.680223       1.819821
                                                         0.791502      -0.999069
                                                         0.239116       0.017430
                                                         0.082193       0.082660

                          1       3    3px              10.068468       0.155326
                                                         2.680223       0.367157
                                                         0.791502       0.311480
                                                         0.239116       0.080105
                                                         0.082193       0.033440
                          1       3    3py              10.068468       0.155326
                                                         2.680223       0.367157
                                                         0.791502       0.311480
                                                         0.239116       0.080105
                                                         0.082193       0.033440
                          1       3    3pz              10.068468       0.155326
                                                         2.680223       0.367157
                                                         0.791502       0.311480
                                                         0.239116       0.080105
                                                         0.082193       0.033440

       Atomic covalent radius [Angstrom]:                                  0.320

       Atomic van der Waals radius [Angstrom]:                             1.090

     GTH Potential information for                                    GTH-PBE-q1

       Description:                       Goedecker-Teter-Hutter pseudopotential
                                           Goedecker et al., PRB 54, 1703 (1996)
                                          Hartwigsen et al., PRB 58, 3641 (1998)
                                                      Krack, TCA 114, 145 (2005)

       Gaussian exponent of the core charge distribution:              12.500000
       Electronic configuration (s p d ...):                                   1

       Parameters of the local part of the GTH pseudopotential:

                          rloc        C1          C2          C3          C4
                        0.200000   -4.178900    0.724463


 MOLECULE KIND INFORMATION


 All atoms are their own molecule, skipping detailed information


 TOTAL NUMBERS AND MAXIMUM NUMBERS

  Total number of            - Atomic kinds:                                   4
                             - Atoms:                                        268
                             - Shell sets:                                   268
                             - Shells:                                       820
                             - Primitive Cartesian functions:               1338
                             - Cartesian basis functions:                   2692
                             - Spherical basis functions:                   2428

  Maximum angular momentum of- Orbital basis functions:                        2
                             - Local part of the GTH pseudopotential:          2
                             - Non-local part of the GTH pseudopotential:      4


 MODULE QUICKSTEP: ATOMIC COORDINATES IN ANGSTROM

   Atom Kind Element         X             Y             Z       Z(eff)     Mass
      1    1 Au   79      1.042821      1.042821      1.348258  11.0000 196.9666
      2    1 Au   79      1.042821      3.128465      3.433902  11.0000 196.9666
      3    1 Au   79      3.128465      1.042821      3.433902  11.0000 196.9666
      4    1 Au   79      3.128465      3.128465      1.348258  11.0000 196.9666
      5    1 Au   79      1.042821      1.042821      5.519546  11.0000 196.9666
      6    1 Au   79      5.214109      1.042821      1.348258  11.0000 196.9666
      7    1 Au   79     13.556685      1.042821      1.348258  11.0000 196.9666
      8    1 Au   79      1.042821      5.214109      1.348258  11.0000 196.9666
      9    1 Au   79      1.042821     13.556685      1.348258  11.0000 196.9666
     10    1 Au   79      1.042821      3.128465      7.605190  11.0000 196.9666
     11    1 Au   79      5.214109      3.128465      3.433902  11.0000 196.9666
     12    1 Au   79     13.556685      3.128465      3.433902  11.0000 196.9666
     13    1 Au   79      1.042821      7.299753      3.433902  11.0000 196.9666
     14    1 Au   79      1.042821     15.642329      3.433902  11.0000 196.9666
     15    1 Au   79      3.128465      1.042821      7.605190  11.0000 196.9666
     16    1 Au   79      7.299753      1.042821      3.433902  11.0000 196.9666
     17    1 Au   79     15.642329      1.042821      3.433902  11.0000 196.9666
     18    1 Au   79      3.128465      5.214109      3.433902  11.0000 196.9666
     19    1 Au   79      3.128465     13.556685      3.433902  11.0000 196.9666
     20    1 Au   79      3.128465      3.128465      5.519546  11.0000 196.9666
     21    1 Au   79      7.299753      3.128465      1.348258  11.0000 196.9666
     22    1 Au   79     15.642329      3.128465      1.348258  11.0000 196.9666
     23    1 Au   79      3.128465      7.299753      1.348258  11.0000 196.9666
     24    1 Au   79      3.128465     15.642329      1.348258  11.0000 196.9666
     25    1 Au   79      1.042821      5.214109      5.519546  11.0000 196.9666
     26    1 Au   79      1.042821     13.556685      5.519546  11.0000 196.9666
     27    1 Au   79      5.214109      1.042821      5.519546  11.0000 196.9666
     28    1 Au   79     13.556685      1.042821      5.519546  11.0000 196.9666
     29    1 Au   79      5.214109      5.214109      1.348258  11.0000 196.9666
     30    1 Au   79     13.556685     13.556685      1.348258  11.0000 196.9666
     31    1 Au   79     13.556685      5.214109      1.348258  11.0000 196.9666
     32    1 Au   79      5.214109     13.556685      1.348258  11.0000 196.9666
     33    1 Au   79      1.042821      7.299753      7.605190  11.0000 196.9666
     34    1 Au   79      1.042821     15.642329      7.605190  11.0000 196.9666
     35    1 Au   79      5.214109      3.128465      7.605190  11.0000 196.9666
     36    1 Au   79     13.556685      3.128465      7.605190  11.0000 196.9666
     37    1 Au   79      5.214109      7.299753      3.433902  11.0000 196.9666
     38    1 Au   79     13.556685     15.642329      3.433902  11.0000 196.9666
     39    1 Au   79     13.556685      7.299753      3.433902  11.0000 196.9666
     40    1 Au   79      5.214109     15.642329      3.433902  11.0000 196.9666
     41    1 Au   79      3.128465      5.214109      7.605190  11.0000 196.9666
     42    1 Au   79      3.128465     13.556685      7.605190  11.0000 196.9666
     43    1 Au   79      7.299753      1.042821      7.605190  11.0000 196.9666
     44    1 Au   79     15.642329      1.042821      7.605190  11.0000 196.9666
     45    1 Au   79      7.299753      5.214109      3.433902  11.0000 196.9666
     46    1 Au   79     15.642329     13.556685      3.433902  11.0000 196.9666
     47    1 Au   79     15.642329      5.214109      3.433902  11.0000 196.9666
     48    1 Au   79      7.299753     13.556685      3.433902  11.0000 196.9666
     49    1 Au   79      3.128465      7.299753      5.519546  11.0000 196.9666
     50    1 Au   79      3.128465     15.642329      5.519546  11.0000 196.9666
     51    1 Au   79      7.299753      3.128465      5.519546  11.0000 196.9666
     52    1 Au   79     15.642329      3.128465      5.519546  11.0000 196.9666
     53    1 Au   79      7.299753      7.299753      1.348258  11.0000 196.9666
     54    1 Au   79     15.642329     15.642329      1.348258  11.0000 196.9666
     55    1 Au   79     15.642329      7.299753      1.348258  11.0000 196.9666
     56    1 Au   79      7.299753     15.642329      1.348258  11.0000 196.9666
     57    1 Au   79      1.042821      9.385397      1.348258  11.0000 196.9666
     58    1 Au   79      9.385397      1.042821      1.348258  11.0000 196.9666
     59    1 Au   79      1.042821     11.471041      3.433902  11.0000 196.9666
     60    1 Au   79      9.385397      3.128465      3.433902  11.0000 196.9666
     61    1 Au   79      3.128465      9.385397      3.433902  11.0000 196.9666
     62    1 Au   79     11.471041      1.042821      3.433902  11.0000 196.9666
     63    1 Au   79      3.128465     11.471041      1.348258  11.0000 196.9666
     64    1 Au   79     11.471041      3.128465      1.348258  11.0000 196.9666
     65    1 Au   79      1.042821      9.385397      5.519546  11.0000 196.9666
     66    1 Au   79      9.385397      5.214109      1.348258  11.0000 196.9666
     67    1 Au   79      9.385397     13.556685      1.348258  11.0000 196.9666
     68    1 Au   79      9.385397      1.042821      5.519546  11.0000 196.9666
     69    1 Au   79      5.214109      9.385397      1.348258  11.0000 196.9666
     70    1 Au   79     13.556685      9.385397      1.348258  11.0000 196.9666
     71    1 Au   79      1.042821     11.471041      7.605190  11.0000 196.9666
     72    1 Au   79      9.385397      7.299753      3.433902  11.0000 196.9666
     73    1 Au   79      9.385397     15.642329      3.433902  11.0000 196.9666
     74    1 Au   79      9.385397      3.128465      7.605190  11.0000 196.9666
     75    1 Au   79      5.214109     11.471041      3.433902  11.0000 196.9666
     76    1 Au   79     13.556685     11.471041      3.433902  11.0000 196.9666
     77    1 Au   79      3.128465      9.385397      7.605190  11.0000 196.9666
     78    1 Au   79     11.471041      5.214109      3.433902  11.0000 196.9666
     79    1 Au   79     11.471041     13.556685      3.433902  11.0000 196.9666
     80    1 Au   79     11.471041      1.042821      7.605190  11.0000 196.9666
     81    1 Au   79      7.299753      9.385397      3.433902  11.0000 196.9666
     82    1 Au   79     15.642329      9.385397      3.433902  11.0000 196.9666
     83    1 Au   79      3.128465     11.471041      5.519546  11.0000 196.9666
     84    1 Au   79     11.471041      7.299753      1.348258  11.0000 196.9666
     85    1 Au   79     11.471041     15.642329      1.348258  11.0000 196.9666
     86    1 Au   79     11.471041      3.128465      5.519546  11.0000 196.9666
     87    1 Au   79      7.299753     11.471041      1.348258  11.0000 196.9666
     88    1 Au   79     15.642329     11.471041      1.348258  11.0000 196.9666
     89    1 Au   79      5.214109      5.214109      5.519546  11.0000 196.9666
     90    1 Au   79     13.556685     13.556685      5.519546  11.0000 196.9666
     91    1 Au   79     13.556685      5.214109      5.519546  11.0000 196.9666
     92    1 Au   79      5.214109     13.556685      5.519546  11.0000 196.9666
     93    1 Au   79      5.214109      7.299753      7.605190  11.0000 196.9666
     94    1 Au   79     13.556685     15.642329      7.605190  11.0000 196.9666
     95    1 Au   79     13.556685      7.299753      7.605190  11.0000 196.9666
     96    1 Au   79      5.214109     15.642329      7.605190  11.0000 196.9666
     97    1 Au   79      7.299753      5.214109      7.605190  11.0000 196.9666
     98    1 Au   79     15.642329     13.556685      7.605190  11.0000 196.9666
     99    1 Au   79     15.642329      5.214109      7.605190  11.0000 196.9666
    100    1 Au   79      7.299753     13.556685      7.605190  11.0000 196.9666
    101    1 Au   79      7.299753      7.299753      5.519546  11.0000 196.9666
    102    1 Au   79     15.642329     15.642329      5.519546  11.0000 196.9666
    103    1 Au   79     15.642329      7.299753      5.519546  11.0000 196.9666
    104    1 Au   79      7.299753     15.642329      5.519546  11.0000 196.9666
    105    1 Au   79      5.214109      9.385397      5.519546  11.0000 196.9666
    106    1 Au   79     13.556685      9.385397      5.519546  11.0000 196.9666
    107    1 Au   79      9.385397      5.214109      5.519546  11.0000 196.9666
    108    1 Au   79      9.385397     13.556685      5.519546  11.0000 196.9666
    109    1 Au   79      5.214109     11.471041      7.605190  11.0000 196.9666
    110    1 Au   79     13.556685     11.471041      7.605190  11.0000 196.9666
    111    1 Au   79      9.385397      7.299753      7.605190  11.0000 196.9666
    112    1 Au   79      9.385397     15.642329      7.605190  11.0000 196.9666
    113    1 Au   79      7.299753      9.385397      7.605190  11.0000 196.9666
    114    1 Au   79     15.642329      9.385397      7.605190  11.0000 196.9666
    115    1 Au   79     11.471041      5.214109      7.605190  11.0000 196.9666
    116    1 Au   79     11.471041     13.556685      7.605190  11.0000 196.9666
    117    1 Au   79      7.299753     11.471041      5.519546  11.0000 196.9666
    118    1 Au   79     15.642329     11.471041      5.519546  11.0000 196.9666
    119    1 Au   79     11.471041      7.299753      5.519546  11.0000 196.9666
    120    1 Au   79     11.471041     15.642329      5.519546  11.0000 196.9666
    121    1 Au   79      9.385397      9.385397      1.348258  11.0000 196.9666
    122    1 Au   79      9.385397     11.471041      3.433902  11.0000 196.9666
    123    1 Au   79     11.471041      9.385397      3.433902  11.0000 196.9666
    124    1 Au   79     11.471041     11.471041      1.348258  11.0000 196.9666
    125    1 Au   79      9.385397      9.385397      5.519546  11.0000 196.9666
    126    1 Au   79      9.385397     11.471041      7.605190  11.0000 196.9666
    127    1 Au   79     11.471041      9.385397      7.605190  11.0000 196.9666
    128    1 Au   79     11.471041     11.471041      5.519546  11.0000 196.9666
    129    2 S    16      9.374821      7.297531     16.401971   6.0000  32.0650
    130    3 C     6      9.371421      7.293681     14.640470   4.0000  12.0107
    131    3 C     6      8.172851      7.287721     13.940001   4.0000  12.0107
    132    3 C     6     10.580701      7.287721     13.940001   4.0000  12.0107
    133    2 S    16      9.385401      7.299751     10.055191   6.0000  32.0650
    134    3 C     6      9.388801      7.303601     11.816690   4.0000  12.0107
    135    3 C     6     10.587371      7.309571     12.517150   4.0000  12.0107
    136    3 C     6      8.179521      7.309571     12.517150   4.0000  12.0107
    137    4 H     1      7.276671      7.267421     14.451360   1.0000   1.0079
    138    4 H     1     11.473461      7.267361     14.457280   1.0000   1.0079
    139    4 H     1     11.483551      7.329861     12.005800   1.0000   1.0079
    140    4 H     1      7.286761      7.329931     11.999880   1.0000   1.0079
    141    1 Au   79      1.042821      1.042821     25.108906  11.0000 196.9666
    142    1 Au   79      1.042821      3.128465     18.851975  11.0000 196.9666
    143    1 Au   79      3.128465      1.042821     18.851975  11.0000 196.9666
    144    1 Au   79      3.128465      3.128465     25.108906  11.0000 196.9666
    145    1 Au   79      1.042821      1.042821     20.937618  11.0000 196.9666
    146    1 Au   79      5.214109      1.042821     25.108906  11.0000 196.9666
    147    1 Au   79     13.556685      1.042821     25.108906  11.0000 196.9666
    148    1 Au   79      1.042821      5.214109     25.108906  11.0000 196.9666
    149    1 Au   79      1.042821     13.556685     25.108906  11.0000 196.9666
    150    1 Au   79      1.042821      3.128465     23.023263  11.0000 196.9666
    151    1 Au   79      5.214109      3.128465     18.851975  11.0000 196.9666
    152    1 Au   79     13.556685      3.128465     18.851975  11.0000 196.9666
    153    1 Au   79      1.042821      7.299753     18.851975  11.0000 196.9666
    154    1 Au   79      1.042821     15.642329     18.851975  11.0000 196.9666
    155    1 Au   79      3.128465      1.042821     23.023263  11.0000 196.9666
    156    1 Au   79      7.299753      1.042821     18.851975  11.0000 196.9666
    157    1 Au   79     15.642329      1.042821     18.851975  11.0000 196.9666
    158    1 Au   79      3.128465      5.214109     18.851975  11.0000 196.9666
    159    1 Au   79      3.128465     13.556685     18.851975  11.0000 196.9666
    160    1 Au   79      3.128465      3.128465     20.937618  11.0000 196.9666
    161    1 Au   79      7.299753      3.128465     25.108906  11.0000 196.9666
    162    1 Au   79     15.642329      3.128465     25.108906  11.0000 196.9666
    163    1 Au   79      3.128465      7.299753     25.108906  11.0000 196.9666
    164    1 Au   79      3.128465     15.642329     25.108906  11.0000 196.9666
    165    1 Au   79      1.042821      5.214109     20.937618  11.0000 196.9666
    166    1 Au   79      1.042821     13.556685     20.937618  11.0000 196.9666
    167    1 Au   79      5.214109      1.042821     20.937618  11.0000 196.9666
    168    1 Au   79     13.556685      1.042821     20.937618  11.0000 196.9666
    169    1 Au   79      5.214109      5.214109     25.108906  11.0000 196.9666
    170    1 Au   79     13.556685     13.556685     25.108906  11.0000 196.9666
    171    1 Au   79     13.556685      5.214109     25.108906  11.0000 196.9666
    172    1 Au   79      5.214109     13.556685     25.108906  11.0000 196.9666
    173    1 Au   79      1.042821      7.299753     23.023263  11.0000 196.9666
    174    1 Au   79      1.042821     15.642329     23.023263  11.0000 196.9666
    175    1 Au   79      5.214109      3.128465     23.023263  11.0000 196.9666
    176    1 Au   79     13.556685      3.128465     23.023263  11.0000 196.9666
    177    1 Au   79      5.214109      7.299753     18.851975  11.0000 196.9666
    178    1 Au   79     13.556685     15.642329     18.851975  11.0000 196.9666
    179    1 Au   79     13.556685      7.299753     18.851975  11.0000 196.9666
    180    1 Au   79      5.214109     15.642329     18.851975  11.0000 196.9666
    181    1 Au   79      3.128465      5.214109     23.023263  11.0000 196.9666
    182    1 Au   79      3.128465     13.556685     23.023263  11.0000 196.9666
    183    1 Au   79      7.299753      1.042821     23.023263  11.0000 196.9666
    184    1 Au   79     15.642329      1.042821     23.023263  11.0000 196.9666
    185    1 Au   79      7.299753      5.214109     18.851975  11.0000 196.9666
    186    1 Au   79     15.642329     13.556685     18.851975  11.0000 196.9666
    187    1 Au   79     15.642329      5.214109     18.851975  11.0000 196.9666
    188    1 Au   79      7.299753     13.556685     18.851975  11.0000 196.9666
    189    1 Au   79      3.128465      7.299753     20.937618  11.0000 196.9666
    190    1 Au   79      3.128465     15.642329     20.937618  11.0000 196.9666
    191    1 Au   79      7.299753      3.128465     20.937618  11.0000 196.9666
    192    1 Au   79     15.642329      3.128465     20.937618  11.0000 196.9666
    193    1 Au   79      7.299753      7.299753     25.108906  11.0000 196.9666
    194    1 Au   79     15.642329     15.642329     25.108906  11.0000 196.9666
    195    1 Au   79     15.642329      7.299753     25.108906  11.0000 196.9666
    196    1 Au   79      7.299753     15.642329     25.108906  11.0000 196.9666
    197    1 Au   79      1.042821      9.385397     25.108906  11.0000 196.9666
    198    1 Au   79      9.385397      1.042821     25.108906  11.0000 196.9666
    199    1 Au   79      1.042821     11.471041     18.851975  11.0000 196.9666
    200    1 Au   79      9.385397      3.128465     18.851975  11.0000 196.9666
    201    1 Au   79      3.128465      9.385397     18.851975  11.0000 196.9666
    202    1 Au   79     11.471041      1.042821     18.851975  11.0000 196.9666
    203    1 Au   79      3.128465     11.471041     25.108906  11.0000 196.9666
    204    1 Au   79     11.471041      3.128465     25.108906  11.0000 196.9666
    205    1 Au   79      1.042821      9.385397     20.937618  11.0000 196.9666
    206    1 Au   79      9.385397      5.214109     25.108906  11.0000 196.9666
    207    1 Au   79      9.385397     13.556685     25.108906  11.0000 196.9666
    208    1 Au   79      9.385397      1.042821     20.937618  11.0000 196.9666
    209    1 Au   79      5.214109      9.385397     25.108906  11.0000 196.9666
    210    1 Au   79     13.556685      9.385397     25.108906  11.0000 196.9666
    211    1 Au   79      1.042821     11.471041     23.023263  11.0000 196.9666
    212    1 Au   79      9.385397      7.299753     18.851975  11.0000 196.9666
    213    1 Au   79      9.385397     15.642329     18.851975  11.0000 196.9666
    214    1 Au   79      9.385397      3.128465     23.023263  11.0000 196.9666
    215    1 Au   79      5.214109     11.471041     18.851975  11.0000 196.9666
    216    1 Au   79     13.556685     11.471041     18.851975  11.0000 196.9666
    217    1 Au   79      3.128465      9.385397     23.023263  11.0000 196.9666
    218    1 Au   79     11.471041      5.214109     18.851975  11.0000 196.9666
    219    1 Au   79     11.471041     13.556685     18.851975  11.0000 196.9666
    220    1 Au   79     11.471041      1.042821     23.023263  11.0000 196.9666
    221    1 Au   79      7.299753      9.385397     18.851975  11.0000 196.9666
    222    1 Au   79     15.642329      9.385397     18.851975  11.0000 196.9666
    223    1 Au   79      3.128465     11.471041     20.937618  11.0000 196.9666
    224    1 Au   79     11.471041      7.299753     25.108906  11.0000 196.9666
    225    1 Au   79     11.471041     15.642329     25.108906  11.0000 196.9666
    226    1 Au   79     11.471041      3.128465     20.937618  11.0000 196.9666
    227    1 Au   79      7.299753     11.471041     25.108906  11.0000 196.9666
    228    1 Au   79     15.642329     11.471041     25.108906  11.0000 196.9666
    229    1 Au   79      5.214109      5.214109     20.937618  11.0000 196.9666
    230    1 Au   79     13.556685     13.556685     20.937618  11.0000 196.9666
    231    1 Au   79     13.556685      5.214109     20.937618  11.0000 196.9666
    232    1 Au   79      5.214109     13.556685     20.937618  11.0000 196.9666
    233    1 Au   79      5.214109      7.299753     23.023263  11.0000 196.9666
    234    1 Au   79     13.556685     15.642329     23.023263  11.0000 196.9666
    235    1 Au   79     13.556685      7.299753     23.023263  11.0000 196.9666
    236    1 Au   79      5.214109     15.642329     23.023263  11.0000 196.9666
    237    1 Au   79      7.299753      5.214109     23.023263  11.0000 196.9666
    238    1 Au   79     15.642329     13.556685     23.023263  11.0000 196.9666
    239    1 Au   79     15.642329      5.214109     23.023263  11.0000 196.9666
    240    1 Au   79      7.299753     13.556685     23.023263  11.0000 196.9666
    241    1 Au   79      7.299753      7.299753     20.937618  11.0000 196.9666
    242    1 Au   79     15.642329     15.642329     20.937618  11.0000 196.9666
    243    1 Au   79     15.642329      7.299753     20.937618  11.0000 196.9666
    244    1 Au   79      7.299753     15.642329     20.937618  11.0000 196.9666
    245    1 Au   79      5.214109      9.385397     20.937618  11.0000 196.9666
    246    1 Au   79     13.556685      9.385397     20.937618  11.0000 196.9666
    247    1 Au   79      9.385397      5.214109     20.937618  11.0000 196.9666
    248    1 Au   79      9.385397     13.556685     20.937618  11.0000 196.9666
    249    1 Au   79      5.214109     11.471041     23.023263  11.0000 196.9666
    250    1 Au   79     13.556685     11.471041     23.023263  11.0000 196.9666
    251    1 Au   79      9.385397      7.299753     23.023263  11.0000 196.9666
    252    1 Au   79      9.385397     15.642329     23.023263  11.0000 196.9666
    253    1 Au   79      7.299753      9.385397     23.023263  11.0000 196.9666
    254    1 Au   79     15.642329      9.385397     23.023263  11.0000 196.9666
    255    1 Au   79     11.471041      5.214109     23.023263  11.0000 196.9666
    256    1 Au   79     11.471041     13.556685     23.023263  11.0000 196.9666
    257    1 Au   79      7.299753     11.471041     20.937618  11.0000 196.9666
    258    1 Au   79     15.642329     11.471041     20.937618  11.0000 196.9666
    259    1 Au   79     11.471041      7.299753     20.937618  11.0000 196.9666
    260    1 Au   79     11.471041     15.642329     20.937618  11.0000 196.9666
    261    1 Au   79      9.385397      9.385397     25.108906  11.0000 196.9666
    262    1 Au   79      9.385397     11.471041     18.851975  11.0000 196.9666
    263    1 Au   79     11.471041      9.385397     18.851975  11.0000 196.9666
    264    1 Au   79     11.471041     11.471041     25.108906  11.0000 196.9666
    265    1 Au   79      9.385397      9.385397     20.937618  11.0000 196.9666
    266    1 Au   79      9.385397     11.471041     23.023263  11.0000 196.9666
    267    1 Au   79     11.471041      9.385397     23.023263  11.0000 196.9666
    268    1 Au   79     11.471041     11.471041     20.937618  11.0000 196.9666



 SCF PARAMETERS         Density guess:                                    ATOMIC
                        --------------------------------------------------------
                        max_scf:                                             100
                        max_scf_history:                                       0
                        max_diis:                                              4
                        --------------------------------------------------------
                        eps_scf:                                        1.00E-07
                        eps_scf_history:                                0.00E+00
                        eps_diis:                                       1.00E-01
                        eps_eigval:                                     1.00E-05
                        --------------------------------------------------------
                        level_shift [a.u.]:                             0.000000
                        added MOs                                       100    0
                        --------------------------------------------------------
                        Mixing method:                            BROYDEN_MIXING
                                                charge density mixing in g-space
                        --------------------------------------------------------
                        Smear method:                                FERMI_DIRAC
                        Electronic temperature [K]:                        293.0
                        Electronic temperature [a.u.]:                  9.28E-04
                        Accuracy threshold:                             1.00E-10
                        --------------------------------------------------------
                        No outer SCF

 PW_GRID| Information for grid number                                          1
 PW_GRID| Grid distributed over                                    24 processors
 PW_GRID| Real space group dimensions                                    24    1
 PW_GRID| the grid is blocked:                                                NO
 PW_GRID| Cutoff [a.u.]                                                    200.0
 PW_GRID| spherical cutoff:                                                   NO
 PW_GRID|   Bounds   1           -105     104                Points:         210
 PW_GRID|   Bounds   2           -105     104                Points:         210
 PW_GRID|   Bounds   3           -160     159                Points:         320
 PW_GRID| Volume element (a.u.^3)  0.3522E-02     Volume (a.u.^3)     49705.0075
 PW_GRID| Grid span                                                    FULLSPACE
 PW_GRID|   Distribution                         Average         Max         Min
 PW_GRID|   G-Vectors                           588000.0      588000      588000
 PW_GRID|   G-Rays                                2800.0        2800        2800
 PW_GRID|   Real Space Points                   588000.0      604800      537600

 PW_GRID| Information for grid number                                          2
 PW_GRID| Number of the reference grid                                         1
 PW_GRID| Grid distributed over                                    24 processors
 PW_GRID| Real space group dimensions                                    24    1
 PW_GRID| the grid is blocked:                                                NO
 PW_GRID| Cutoff [a.u.]                                                     66.7
 PW_GRID| spherical cutoff:                                                   NO
 PW_GRID|   Bounds   1            -60      59                Points:         120
 PW_GRID|   Bounds   2            -60      59                Points:         120
 PW_GRID|   Bounds   3            -94      94                Points:         189
 PW_GRID| Volume element (a.u.^3)  0.1826E-01     Volume (a.u.^3)     49705.0075
 PW_GRID| Grid span                                                    FULLSPACE
 PW_GRID|   Distribution                         Average         Max         Min
 PW_GRID|   G-Vectors                           113400.0      113880      112920
 PW_GRID|   G-Rays                                 945.0         949         941
 PW_GRID|   Real Space Points                   113400.0      113400      113400

 PW_GRID| Information for grid number                                          3
 PW_GRID| Number of the reference grid                                         1
 PW_GRID| Grid distributed over                                    24 processors
 PW_GRID| Real space group dimensions                                    24    1
 PW_GRID| the grid is blocked:                                                NO
 PW_GRID| Cutoff [a.u.]                                                     22.2
 PW_GRID| spherical cutoff:                                                   NO
 PW_GRID|   Bounds   1            -35      34                Points:          70
 PW_GRID|   Bounds   2            -35      34                Points:          70
 PW_GRID|   Bounds   3            -54      53                Points:         108
 PW_GRID| Volume element (a.u.^3)  0.9392E-01     Volume (a.u.^3)     49705.0075
 PW_GRID| Grid span                                                    FULLSPACE
 PW_GRID|   Distribution                         Average         Max         Min
 PW_GRID|   G-Vectors                            22050.0       22400       21770
 PW_GRID|   G-Rays                                 315.0         320         311
 PW_GRID|   Real Space Points                    22050.0       22680       15120

 PW_GRID| Information for grid number                                          4
 PW_GRID| Number of the reference grid                                         1
 PW_GRID| Grid distributed over                                    24 processors
 PW_GRID| Real space group dimensions                                    24    1
 PW_GRID| the grid is blocked:                                                NO
 PW_GRID| Cutoff [a.u.]                                                      7.4
 PW_GRID| spherical cutoff:                                                   NO
 PW_GRID|   Bounds   1            -20      19                Points:          40
 PW_GRID|   Bounds   2            -20      19                Points:          40
 PW_GRID|   Bounds   3            -31      31                Points:          63
 PW_GRID| Volume element (a.u.^3)  0.4931         Volume (a.u.^3)     49705.0075
 PW_GRID| Grid span                                                    FULLSPACE
 PW_GRID|   Distribution                         Average         Max         Min
 PW_GRID|   G-Vectors                             4200.0        4360        4040
 PW_GRID|   G-Rays                                 105.0         109         101
 PW_GRID|   Real Space Points                     4200.0        5040        2520

 POISSON| Solver                                                        PERIODIC
 POISSON| Periodicity                                                        XYZ

 RS_GRID| Information for grid number                                          1
 RS_GRID|   Bounds   1           -105     104                Points:         210
 RS_GRID|   Bounds   2           -105     104                Points:         210
 RS_GRID|   Bounds   3           -160     159                Points:         320
 RS_GRID| Real space distribution over                                  4 groups
 RS_GRID| Real space distribution along direction                              2
 RS_GRID| Border size                                                         30
 RS_GRID| Real space distribution over                                  6 groups
 RS_GRID| Real space distribution along direction                              3
 RS_GRID| Border size                                                         30
 RS_GRID|   Distribution                         Average         Max         Min
 RS_GRID|   Planes                                 112.5         113         112
 RS_GRID|   Distribution                         Average         Max         Min
 RS_GRID|   Planes                                 113.3         114         113

 RS_GRID| Information for grid number                                          2
 RS_GRID|   Bounds   1            -60      59                Points:         120
 RS_GRID|   Bounds   2            -60      59                Points:         120
 RS_GRID|   Bounds   3            -94      94                Points:         189
 RS_GRID| Real space distribution over                                  4 groups
 RS_GRID| Real space distribution along direction                              2
 RS_GRID| Border size                                                         22
 RS_GRID| Real space distribution over                                  6 groups
 RS_GRID| Real space distribution along direction                              3
 RS_GRID| Border size                                                         22
 RS_GRID|   Distribution                         Average         Max         Min
 RS_GRID|   Planes                                  74.0          74          74
 RS_GRID|   Distribution                         Average         Max         Min
 RS_GRID|   Planes                                  75.5          76          75

 RS_GRID| Information for grid number                                          3
 RS_GRID|   Bounds   1            -35      34                Points:          70
 RS_GRID|   Bounds   2            -35      34                Points:          70
 RS_GRID|   Bounds   3            -54      53                Points:         108
 RS_GRID| Real space fully replicated
 RS_GRID| Group size                                                           1

 RS_GRID| Information for grid number                                          4
 RS_GRID|   Bounds   1            -20      19                Points:          40
 RS_GRID|   Bounds   2            -20      19                Points:          40
 RS_GRID|   Bounds   3            -31      31                Points:          63
 RS_GRID| Real space fully replicated
 RS_GRID| Group size                                                           1

 Number of electrons:                                                       2856
 Number of occupied orbitals:                                               1428
 Number of molecular orbitals:                                              1528

 Number of orbital functions:                                               2428
 Number of independent orbital functions:                                   2428

 Extrapolation method: initial_guess

 Atomic guess: The first density matrix is obtained in terms of atomic orbitals
               and electronic configurations assigned to each atomic kind

 Guess for atomic kind: Au

 Electronic structure
    Total number of core electrons                                         68.00
    Total number of valence electrons                                      11.00
    Total number of electrons                                              79.00
    Multiplicity                                                   not specified
    S   [  2.00  2.00  2.00  2.00  2.00] 1.00
    P   [  6.00  6.00  6.00  6.00]
    D   [ 10.00 10.00]10.00
    F   [ 14.00]


 *******************************************************************************
                  Iteration          Convergence                     Energy [au]
 *******************************************************************************
                          1         0.00000                     -33.033218197848

 Energy components [Hartree]           Total Energy ::          -33.033218197848
                                        Band Energy ::           -1.147505983145
                                     Kinetic Energy ::           24.744064437587
                                   Potential Energy ::          -57.777282635435
                                      Virial (-V/T) ::            2.334995642336
                                        Core Energy ::          -60.197309615487
                                          XC Energy ::           -5.116883226844
                                     Coulomb Energy ::           32.280974644483
                       Total Pseudopotential Energy ::          -85.042885173964
                       Local Pseudopotential Energy ::          -66.341694915099
                    Nonlocal Pseudopotential Energy ::          -18.701190258865
                                        Confinement ::            1.015111208892

 Orbital energies  State     L     Occupation   Energy[a.u.]          Energy[eV]

                       1     0          1.000      -0.213792           -5.817572

                       1     2         10.000      -0.093371           -2.540765


 Total Electron Density at R=0:                                         0.000035

 Guess for atomic kind: S

 Electronic structure
    Total number of core electrons                                         10.00
    Total number of valence electrons                                       6.00
    Total number of electrons                                              16.00
    Multiplicity                                                   not specified
    S   [  2.00  2.00] 2.00
    P   [  6.00] 4.00


 *******************************************************************************
                  Iteration          Convergence                     Energy [au]
 *******************************************************************************
                          1        0.506127E-01                  -9.947327174035
                          2        0.268535E-01                  -9.947806097329
                          3        0.416209E-04                  -9.948003730091
                          4        0.374461E-07                  -9.948003730535

 Energy components [Hartree]           Total Energy ::           -9.948003730535
                                        Band Energy ::           -2.105895662988
                                     Kinetic Energy ::            3.753358161068
                                   Potential Energy ::          -13.701361891603
                                      Virial (-V/T) ::            3.650427511480
                                        Core Energy ::          -16.361135329452
                                          XC Energy ::           -2.059734796104
                                     Coulomb Energy ::            8.472866395021
                       Total Pseudopotential Energy ::          -20.171145086058
                       Local Pseudopotential Energy ::          -22.366310416427
                    Nonlocal Pseudopotential Energy ::            2.195165330369
                                        Confinement ::            0.566515955377

 Orbital energies  State     L     Occupation   Energy[a.u.]          Energy[eV]

                       1     0          2.000      -0.599768          -16.320517

                       1     1          4.000      -0.226590           -6.165825


 Total Electron Density at R=0:                                         0.000005

 Guess for atomic kind: C

 Electronic structure
    Total number of core electrons                                          2.00
    Total number of valence electrons                                       4.00
    Total number of electrons                                               6.00
    Multiplicity                                                   not specified
    S   [  2.00] 2.00
    P      2.00


 *******************************************************************************
                  Iteration          Convergence                     Energy [au]
 *******************************************************************************
                          1        0.261814E-01                  -5.246264729087
                          2        0.905236E-02                  -5.246529568708
                          3        0.681743E-04                  -5.246565167452
                          4        0.792827E-08                  -5.246565169473

 Energy components [Hartree]           Total Energy ::           -5.246565169473
                                        Band Energy ::           -1.058732595430
                                     Kinetic Energy ::            3.518928170589
                                   Potential Energy ::           -8.765493340062
                                      Virial (-V/T) ::            2.490955460053
                                        Core Energy ::           -8.429377169956
                                          XC Energy ::           -1.450183342358
                                     Coulomb Energy ::            4.632995342842
                       Total Pseudopotential Energy ::          -11.978048809389
                       Local Pseudopotential Energy ::          -12.816738187351
                    Nonlocal Pseudopotential Energy ::            0.838689377962
                                        Confinement ::            0.297434688432

 Orbital energies  State     L     Occupation   Energy[a.u.]          Energy[eV]

                       1     0          2.000      -0.410911          -11.181458

                       1     1          2.000      -0.118455           -3.223332


 Total Electron Density at R=0:                                         0.001337

 Guess for atomic kind: H

 Electronic structure
    Total number of core electrons                                          0.00
    Total number of valence electrons                                       1.00
    Total number of electrons                                               1.00
    Multiplicity                                                   not specified
    S      1.00


 *******************************************************************************
                  Iteration          Convergence                     Energy [au]
 *******************************************************************************
[...]
       0.07205086       0.07205548       0.07254995       0.07260477
       0.07264091       0.07296703       0.07300714       0.07318270
       0.07319286       0.07353889       0.07364054       0.07377871
       0.07378915       0.07387562       0.07388307       0.07391621
       0.07392375       0.07397212       0.07399317       0.07410934
       0.07413346       0.07413624       0.07424977       0.07426246
       0.07436929       0.07437335       0.07448758       0.07450747
       0.07489217       0.07502855       0.07502890       0.07504970
       0.07536189       0.07551045       0.07551584       0.07561349
       0.07564827       0.07594414       0.07595019       0.07595767
       0.07607245       0.07653286       0.07666833       0.07668170
       0.07669299       0.07674220       0.07674250       0.07678396
       0.07679127       0.07679809       0.07680687       0.07692709
       0.07695644       0.07697645       0.07699991       0.07751789
       0.07753804       0.07772722       0.07777232       0.07805614
       0.07849373       0.07865202       0.07903882       0.07905470
       0.07908152       0.07914392       0.07917432       0.07918506
       0.07918810       0.07929715       0.07932305       0.07937342
       0.07940138       0.07946199       0.07954974       0.07956231
       0.07958299       0.07959732       0.07960958       0.08037951
       0.08038108       0.08097805       0.08097860       0.08273401
       0.08273409       0.08330145       0.08346538       0.08389862
       0.08470128       0.08474566       0.08478913       0.08480038
       0.08490534       0.08707431       0.08717645       0.08718954
       0.08728066       0.08741681       0.08832319       0.09135587
       0.09402484       0.09652338       0.09745953       0.09746383
       0.09768066       0.10081241       0.10174579       0.10223530
       0.10226293       0.10263013       0.10305745       0.10305778
       0.10309930       0.10320292       0.10324996       0.10334153
       0.10335641       0.10335927       0.10416646       0.10459695
       0.10460285       0.10885323       0.11004526       0.11026253
       0.11285552       0.11301763       0.11358275       0.11967081
       0.12104987       0.12123247       0.12234459       0.12458450
       0.12459182       0.12557172       0.12633308       0.12633357
       0.12654333       0.12720179       0.12763307       0.12776257
       0.12806553       0.12825947       0.12934179       0.13187992
       0.13191821       0.13192654       0.13193258       0.13235790
       0.13236104       0.13585636       0.13602795       0.13612186
       0.13618153       0.13618568       0.13619058       0.13691803
       0.13762672       0.13776335       0.14516163       0.14558530
       0.14619480       0.14655305       0.14688670       0.14772289
       0.14884822       0.15037555       0.15693607       0.15701512
       0.15701788       0.15706895       0.15740933       0.15745678
       0.15751449       0.15765656
 Fermi Energy [eV] :    3.696837
  
  Lowest eigenvalues of the unoccupied subspace spin            1
 ---------------------------------------------
       0.15903177

 ENERGY| Total FORCE_EVAL ( QS ) energy [a.u.]:            -8575.699212892495780

 -------------------------------------------------------------------------------
 -                                                                             -
 -                                DBCSR STATISTICS                             -
 -                                                                             -
 -------------------------------------------------------------------------------
 COUNTER                                    TOTAL       BLAS       SMM       ACC
 flops     5 x     5 x   120              2100000       0.0%    100.0%      0.0%
 flops     5 x    13 x   120              8736000       0.0%    100.0%      0.0%
 flops    13 x     5 x   120              8736000       0.0%    100.0%      0.0%
 flops     5 x     5 x   128             24640000       0.0%    100.0%      0.0%
 flops    13 x    13 x   120             51105600       0.0%    100.0%      0.0%
 flops     5 x    13 x   128            102502400       0.0%    100.0%      0.0%
 flops    13 x     5 x   128            102502400       0.0%    100.0%      0.0%
 flops     5 x     9 x   120            124362000       0.0%    100.0%      0.0%
 flops     9 x     5 x   120            128142000       0.0%    100.0%      0.0%
 flops    13 x     9 x   120            532677600       0.0%    100.0%      0.0%
 flops     9 x    13 x   120            552333600       0.0%    100.0%      0.0%
 flops    13 x    13 x   128            599639040       0.0%    100.0%      0.0%
 flops     5 x     9 x   128           1459180800       0.0%    100.0%      0.0%
 flops     9 x     5 x   128           1503532800       0.0%    100.0%      0.0%
 flops    13 x     9 x   128           6250083840       0.0%    100.0%      0.0%
 flops     9 x    13 x   128           6480714240       0.0%    100.0%      0.0%
 flops     9 x     9 x   120          18136742400       0.0%    100.0%      0.0%
 flops     9 x     9 x   128         212804444160       0.0%    100.0%      0.0%
 flops inhomo. stacks                           0       0.0%      0.0%      0.0%
 flops total                       248.872175E+09       0.0%    100.0%      0.0%
 flops max/rank                     10.790767E+09       0.0%    100.0%      0.0%
 matmuls inhomo. stacks                         0       0.0%      0.0%      0.0%
 matmuls total                           11972520       0.0%    100.0%      0.0%
 number of processed stacks                 84000       0.0%    100.0%      0.0%
 average stack size                                     0.0     142.5       0.0
 marketing flops                   598.266872E+09
 -------------------------------------------------------------------------------
 # multiplications                             35
 max memory usage/rank             883.154944E+06
 # max total images/rank                        3
 # max 3D layers                                1
 # MPI messages exchanged                   15960
 MPI messages size (bytes):
  total size                         8.310364E+09
  min size                         387.840000E+03
  max size                         621.568000E+03
  average size                     520.699500E+03
 MPI breakdown and total messages size (bytes):
             size <=      128                   0                        0
       128 < size <=     8192                   0                        0
      8192 < size <=    32768                   0                        0
     32768 < size <=   131072                   0                        0
    131072 < size <=  4194304               15960               8310364160
   4194304 < size <= 16777216                   0                        0
  16777216 < size                               0                        0
 -------------------------------------------------------------------------------

 *** WARNING in dbcsr_mm.F:290 :: Using a non-square number of MPI ranks ***
 *** might lead to poor performance. Used ranks: 24 Suggested: 25 49     ***

 -------------------------------------------------------------------------------
 -                                                                             -
 -                      DBCSR MESSAGE PASSING PERFORMANCE                      -
 -                                                                             -
 -------------------------------------------------------------------------------
 ROUTINE             CALLS      AVE VOLUME [Bytes]
 MP_Bcast               19                     12.
 MP_Allreduce          301                     11.
 MP_Alltoall           992                 581865.
 MP_ISend             1680                 229693.
 MP_IRecv             1610                 238225.
 -------------------------------------------------------------------------------

 -------------------------------------------------------------------------------
 -                                                                             -
 -                                DBM STATISTICS                               -
 -                                                                             -
 -------------------------------------------------------------------------------
    M  x    N  x    K                                          COUNT     PERCENT
 -------------------------------------------------------------------------------

 -------------------------------------------------------------------------------
 -                                                                             -
 -                                GRID STATISTICS                              -
 -                                                                             -
 -------------------------------------------------------------------------------
 LP    KERNEL             BACKEND                              COUNT     PERCENT
 4     collocate ortho    REF                                7191216      49.55%
 4     integrate ortho    REF                                6991460      48.18%
 3     collocate ortho    REF                                 103392       0.71%
 3     integrate ortho    REF                                 100520       0.69%
 0     collocate general  REF                                  57888       0.40%
 0     integrate general  REF                                  51456       0.35%
 2     collocate ortho    REF                                   9620       0.07%
 2     integrate ortho    REF                                   6790       0.05%
 1     collocate ortho    REF                                     40       0.00%
 -------------------------------------------------------------------------------

 MEMORY| Estimated peak process memory [MiB]                                 850

 -------------------------------------------------------------------------------
 ----                             MULTIGRID INFO                            ----
 -------------------------------------------------------------------------------
 count for grid        1:         174708          cutoff [a.u.]          200.00
 count for grid        2:         309188          cutoff [a.u.]           66.67
 count for grid        3:         182176          cutoff [a.u.]           22.22
 count for grid        4:         148174          cutoff [a.u.]            7.41
 total gridlevel count  :         814246

 -------------------------------------------------------------------------------
 -                                                                             -
 -                         MESSAGE PASSING PERFORMANCE                         -
 -                                                                             -
 -------------------------------------------------------------------------------

 ROUTINE             CALLS      AVE VOLUME [Bytes]
 MP_Group                4
 MP_Bcast              166                4780791.
 MP_Allreduce          785                   1592.
 MP_Sync                39
 MP_Alltoall           485               15997036.
 MP_ISendRecv         3358                 110880.
 MP_Wait              7977
 MP_ISend             4172                 486162.
 MP_IRecv             4172                 486266.
 MP_Recv                92                 621568.
 MP_Write_All            3                1106175.
 -------------------------------------------------------------------------------


 -------------------------------------------------------------------------------
 -                                                                             -
 -                           R E F E R E N C E S                               -
 -                                                                             -
 -------------------------------------------------------------------------------
 
 CP2K version 2022.1 (Development Version), the CP2K developers group (2022).
 CP2K is freely available from https://www.cp2k.org/ .

 Kuehne,Thomas D.; Iannuzzi,Marcella; Del Ben,Mauro;
 Rybkin,Vladimir V.; Seewald,Patrick; Stein,Frederick; Laino,Teodoro;
 Khaliullin,Rustam Z.; Schuett,Ole; Schiffmann,Florian; Golze,Dorothea;
 Wilhelm,Jan; Chulkov,Sergey; Bani-Hashemian,Mohammad Hossein;
 Weber,Valery; Borstnik,Urban; Taillefumier,Mathieu;
 Jakobovits,Alice Shoshana; Lazzaro,Alfio; Pabst,Hans; Mueller,Tiziano;
 Schade,Robert; Guidon,Manuel; Andermatt,Samuel; Holmberg,Nico;
 Schenter,Gregory K.; Hehn,Anna; Bussy,Augustin; Belleflamme,Fabian;
 Tabacchi,Gloria; Gloess,Andreas; Lass,Michael; Bethune,Iain;
 Mundy,Christopher J.; Plessl,Christian; Watkins,Matt;
 VandeVondele,Joost; Krack,Matthias; Hutter,Juerg. 
 The Journal of Chemical Physics, 152 (19), (2020). 
 CP2K: An electronic structure and molecular dynamics software package -
 Quickstep: Efficient and accurate electronic structure calculations.
 https://doi.org/10.1063/5.0007045

 Schuett, Ole; Messmer, Peter; Hutter, Juerg; VandeVondele, Joost. 
 Electronic Structure Calculations on Graphics Processing Units, John
 Wiley & Sons, Ltd, 173-190 (2016). 
 GPU-Accelerated Sparse Matrix-Matrix Multiplication for
 Linear Scaling Density Functional Theory.
 https://doi.org/10.1002/9781118670712.ch8

 Heinecke, A; Henry, G; Hutchinson, M; Pabst, H. 
 Proceedings of Intl. Supercomputing Conference, 981-991 (2016). 
 LIBXSMM: Accelerating Small Matrix Multiplications
 by Runtime Code Generation.
 https://doi.org/10.1109/SC.2016.83

 Borstnik, U; VandeVondele, J; Weber, V; Hutter, J. 
 PARALLEL COMPUTING, 40 (5-6), 47-58 (2014). 
 Sparse matrix multiplication: The distributed block-compressed sparse
 row library.
 https://doi.org/10.1016/j.parco.2014.03.012

 Hutter, J; Iannuzzi, M; Schiffmann, F; VandeVondele, J. 
 WIREs Comput Mol Sci., 4 (1), 15-25 (2014). 
 CP2K: atomistic simulations of condensed matter systems.
 https://doi.org/10.1002/wcms.1159

 VandeVondele, J; Hutter, J. 
 JOURNAL OF CHEMICAL PHYSICS, 127 (11), 114105 (2007). 
 Gaussian basis sets for accurate calculations on molecular systems in
 gas and condensed phases.
 https://doi.org/10.1063/1.2770708

 Krack, M. 
 THEORETICAL CHEMISTRY ACCOUNTS, 114 (1-3), 145-152 (2005). 
 Pseudopotentials for H to Kr optimized for gradient-corrected
 exchange-correlation functionals.
 https://doi.org/10.1007/s00214-005-0655-y

 VandeVondele, J; Krack, M; Mohamed, F; Parrinello, M; Chassaing, T;
 Hutter, J. COMPUTER PHYSICS COMMUNICATIONS, 167 (2), 103-128 (2005). 
 QUICKSTEP: Fast and accurate density functional calculations using a
 mixed Gaussian and plane waves approach.
 https://doi.org/10.1016/j.cpc.2004.12.014

 Frigo, M; Johnson, SG. 
 PROCEEDINGS OF THE IEEE, 93 (2), 216-231 (2005). 
 The design and implementation of FFTW3.
 https://doi.org/10.1109/JPROC.2004.840301

 Hartwigsen, C; Goedecker, S; Hutter, J. 
 PHYSICAL REVIEW B, 58 (7), 3641-3662 (1998). 
 Relativistic separable dual-space Gaussian pseudopotentials from H to Rn.
 https://doi.org/10.1103/PhysRevB.58.3641

 Lippert, G; Hutter, J; Parrinello, M. 
 MOLECULAR PHYSICS, 92 (3), 477-487 (1997). 
 A hybrid Gaussian and plane wave density functional scheme.
 https://doi.org/10.1080/002689797170220

 Goedecker, S; Teter, M; Hutter, J. 
 PHYSICAL REVIEW B, 54 (3), 1703-1710 (1996). 
 Separable dual-space Gaussian pseudopotentials.
 https://doi.org/10.1103/PhysRevB.54.1703


 -------------------------------------------------------------------------------
 -                                                                             -
 -                                T I M I N G                                  -
 -                                                                             -
 -------------------------------------------------------------------------------
 SUBROUTINE                       CALLS  ASD         SELF TIME        TOTAL TIME
                                MAXIMUM       AVERAGE  MAXIMUM  AVERAGE  MAXIMUM
 CP2K                                 1  1.0    0.017    0.019   76.069   76.069
 qs_energies                          1  2.0    0.000    0.000   75.752   75.753
 scf_env_do_scf                       1  3.0    0.000    0.000   71.637   71.686
 scf_env_do_scf_inner_loop           35  4.0    0.002    0.014   71.637   71.686
 qs_scf_new_mos                      35  5.0    0.001    0.001   21.099   21.117
 qs_ks_update_qs_env                 35  5.0    0.000    0.000   20.746   20.750
 rebuild_ks_matrix                   35  6.0    0.000    0.000   20.707   20.711
 qs_ks_build_kohn_sham_matrix        35  7.0    0.005    0.006   20.707   20.710
 eigensolver                         35  6.0    0.002    0.003   18.933   18.942
 qs_rho_update_rho_low               36  5.0    0.000    0.000   17.980   17.984
 calculate_rho_elec                  36  6.0    0.078    0.082   17.980   17.984
 pw_transfer                        470  8.9    0.040    0.050   15.206   15.936
 fft_wrap_pw1pw2                    400  9.8    0.006    0.007   14.693   15.422
 sum_up_and_integrate                35  8.0    0.269    0.282   14.900   14.903
 cp_fm_syevd                         35  7.0    0.001    0.001   14.807   14.813
 cp_fm_syevd_base                    35  8.0   14.801   14.804   14.801   14.804
 integrate_v_rspace                  35  9.0    0.002    0.002   14.631   14.655
 fft_wrap_pw1pw2_200                181 10.1    1.368    1.481   13.687   14.466
 gspace_mixing                       34  5.0    0.073    0.077   12.117   12.117
 fft3d_ps                           400 11.8    6.429    7.448    9.932   10.789
 broyden_mixing                      34  6.0    9.266    9.322    9.327    9.357
 grid_collocate_task_list            36  7.0    8.938    9.227    8.938    9.227
 density_rs2pw                       36  7.0    0.003    0.003    8.639    9.083
 grid_integrate_task_list            35 10.0    8.322    8.391    8.322    8.391
 potential_pw2rs                     35 10.0    0.007    0.008    6.172    6.197
 rs_pw_transfer                     295  9.4    0.006    0.008    5.415    5.738
 cp_fm_cholesky_restore             105  7.0    3.874    3.925    3.874    3.925
 scf_post_calculation_gpw             1  3.0    0.000    0.000    2.778    2.784
 mp_waitany                        4172 11.3    1.926    2.470    1.926    2.470
 rs_pw_transfer_RS2PW_200            40  8.8    0.791    0.961    1.908    2.195
 rs_pw_transfer_PW2RS_200            36 11.9    0.993    1.032    2.127    2.168
 x_to_yz                            212 13.1    1.191    1.261    2.043    2.141
 pw_scatter_p                       212 12.1    1.841    1.900    1.841    1.900
 qs_vxc_create                       35  8.0    0.001    0.001    1.526    1.651
 xc_vxc_pw_create                    35  9.0    0.080    0.091    1.525    1.650
 calculate_dm_sparse                 35  6.0    0.004    0.004    1.629    1.642
 cp_dbcsr_plus_fm_fm_t_native        35  7.0    0.001    0.001    1.598    1.612
 pw_gather_p                        188 11.5    1.444    1.592    1.444    1.592
 mp_alltoall_z22v                   400 13.8    1.477    1.574    1.477    1.574
 yz_to_x                            188 12.5    0.819    0.935    1.443    1.536
 -------------------------------------------------------------------------------

 The number of warnings for this run is : 1
 
 -------------------------------------------------------------------------------
  **** **** ******  **  PROGRAM ENDED AT                 2022-10-19 12:14:05.025
 ***** ** ***  *** **   PROGRAM RAN ON                     cn1048.scarf.rl.ac.uk
 **    ****   ******    PROGRAM RAN BY                                 scarf1157
 ***** **    ** ** **   PROGRAM PROCESS ID                                  6385
  **** **  *******  **  PROGRAM STOPPED IN /work4/scd/scarf1157/work/testing/cp2
                                           k-smeagol/bdt/em/4-opt
