 # Version information for this restart file 
 # current date 2024-01-12 14:29:13.978
 # current working dir /gpfs/home/cahart/transport/melamine/au_from-h2/ci-neb/ts2/dft_leads-sz_tip-dzvp_surf-dzvp_kpoints-2-4-20_replicas-5
 # Program compiled at                              Thu 21 Sep 19:20:17 BST 2023
 # Program compiled on                                           hx1-c12-login-1
 # Program compiled for                                                    local
 # Source code revision number                                       git:5518aa6
 &GLOBAL
   EXTENDED_FFT_LENGTHS  T
   PRINT_LEVEL  MEDIUM
   PROJECT_NAME 2_dft_wfn-r-0
   OUTPUT_FILE_NAME 2_dft_wfn-r-0.out
   RUN_TYPE  BAND
 &END GLOBAL
 &MOTION
   &BAND
     NPROC_REP  64
     BAND_TYPE  CI-NEB
     NUMBER_OF_REPLICA  5
     K_SPRING     5.0000000000000003E-02
     &CI_NEB
       NSTEPS_IT  5
     &END CI_NEB
     &OPTIMIZE_BAND
       OPT_TYPE  DIIS
       &DIIS
         MAX_STEPS  1000
       &END DIIS
     &END OPTIMIZE_BAND
     &REPLICA
       &COORD
             0.0000000000000000E+00    0.0000000000000000E+00    0.0000000000000000E+00
             0.0000000000000000E+00    2.9549999999999996E+00    0.0000000000000000E+00
             0.0000000000000000E+00    5.9109999999999996E+00    0.0000000000000000E+00
             2.9560000000000004E+00    0.0000000000000000E+00    0.0000000000000000E+00
             2.9560000000000004E+00    2.9549999999999996E+00    0.0000000000000000E+00
             2.9560000000000004E+00    5.9109999999999996E+00    0.0000000000000000E+00
             5.9120000000000008E+00    0.0000000000000000E+00    0.0000000000000000E+00
             5.9120000000000008E+00    2.9549999999999996E+00    0.0000000000000000E+00
             5.9120000000000008E+00    5.9109999999999996E+00    0.0000000000000000E+00
             8.6699999999999982E+00    0.0000000000000000E+00    0.0000000000000000E+00
             8.6699999999999982E+00    2.9549999999999996E+00    0.0000000000000000E+00
             8.6699999999999982E+00    5.9109999999999996E+00    0.0000000000000000E+00
             1.1625999999999999E+01    0.0000000000000000E+00    0.0000000000000000E+00
             1.1625999999999999E+01    2.9549999999999996E+00    0.0000000000000000E+00
             1.1625999999999999E+01    5.9109999999999996E+00    0.0000000000000000E+00
             1.4780000000000002E+00    1.4780000000000002E+00    2.0899999999999994E+00
             1.4780000000000002E+00    4.4329999999999998E+00    2.0899999999999994E+00
             1.4780000000000002E+00    7.3889999999999993E+00    2.0899999999999994E+00
             4.4340000000000002E+00    1.4780000000000002E+00    2.0899999999999994E+00
             4.4340000000000002E+00    4.4329999999999998E+00    2.0899999999999994E+00
             4.4340000000000002E+00    7.3889999999999993E+00    2.0899999999999994E+00
             7.1920000000000019E+00    1.4780000000000002E+00    2.0899999999999994E+00
             7.1920000000000019E+00    4.4329999999999998E+00    2.0899999999999994E+00
             7.1920000000000019E+00    7.3889999999999993E+00    2.0899999999999994E+00
             1.0147999999999998E+01    1.4780000000000002E+00    2.0899999999999994E+00
             1.0147999999999998E+01    4.4329999999999998E+00    2.0899999999999994E+00
             1.0147999999999998E+01    7.3889999999999993E+00    2.0899999999999994E+00
             1.3104000000000003E+01    1.4780000000000002E+00    2.0899999999999994E+00
             1.3104000000000003E+01    4.4329999999999998E+00    2.0899999999999994E+00
             1.3104000000000003E+01    7.3889999999999993E+00    2.0899999999999994E+00
             0.0000000000000000E+00    0.0000000000000000E+00    4.1799999999999988E+00
             0.0000000000000000E+00    2.9549999999999996E+00    4.1799999999999988E+00
             0.0000000000000000E+00    5.9109999999999996E+00    4.1799999999999988E+00
             2.9560000000000004E+00    0.0000000000000000E+00    4.1799999999999988E+00
             2.9560000000000004E+00    2.9549999999999996E+00    4.1799999999999988E+00
             2.9560000000000004E+00    5.9109999999999996E+00    4.1799999999999988E+00
             5.9120000000000008E+00    0.0000000000000000E+00    4.1799999999999988E+00
             5.9120000000000008E+00    2.9549999999999996E+00    4.1799999999999988E+00
             5.9120000000000008E+00    5.9109999999999996E+00    4.1799999999999988E+00
             8.6699999999999982E+00    0.0000000000000000E+00    4.1799999999999988E+00
             8.6699999999999982E+00    2.9549999999999996E+00    4.1799999999999988E+00
             8.6699999999999982E+00    5.9109999999999996E+00    4.1799999999999988E+00
             1.1625999999999999E+01    0.0000000000000000E+00    4.1799999999999988E+00
             1.1625999999999999E+01    2.9549999999999996E+00    4.1799999999999988E+00
             1.1625999999999999E+01    5.9109999999999996E+00    4.1799999999999988E+00
             1.4780000000000002E+00    1.4780000000000002E+00    6.2699999999999978E+00
             1.4780000000000002E+00    4.4329999999999998E+00    6.2699999999999978E+00
             1.4780000000000002E+00    7.3889999999999993E+00    6.2699999999999978E+00
             4.4340000000000002E+00    1.4780000000000002E+00    6.2699999999999978E+00
             4.4340000000000002E+00    4.4329999999999998E+00    6.2699999999999978E+00
             4.4340000000000002E+00    7.3889999999999993E+00    6.2699999999999978E+00
             7.1920000000000019E+00    1.4780000000000002E+00    6.2699999999999978E+00
             7.1920000000000019E+00    4.4329999999999998E+00    6.2699999999999978E+00
             7.1920000000000019E+00    7.3889999999999993E+00    6.2699999999999978E+00
             1.0147999999999998E+01    1.4780000000000002E+00    6.2699999999999978E+00
             1.0147999999999998E+01    4.4329999999999998E+00    6.2699999999999978E+00
             1.0147999999999998E+01    7.3889999999999993E+00    6.2699999999999978E+00
             1.3104000000000003E+01    1.4780000000000002E+00    6.2699999999999978E+00
             1.3104000000000003E+01    4.4329999999999998E+00    6.2699999999999978E+00
             1.3104000000000003E+01    7.3889999999999993E+00    6.2699999999999978E+00
             0.0000000000000000E+00    0.0000000000000000E+00    8.3599999999999977E+00
             0.0000000000000000E+00    2.9549999999999996E+00    8.3599999999999977E+00
             0.0000000000000000E+00    5.9109999999999996E+00    8.3599999999999977E+00
             2.9560000000000004E+00    0.0000000000000000E+00    8.3599999999999977E+00
             2.9560000000000004E+00    2.9549999999999996E+00    8.3599999999999977E+00
             2.9560000000000004E+00    5.9109999999999996E+00    8.3599999999999977E+00
             5.9120000000000008E+00    0.0000000000000000E+00    8.3599999999999977E+00
             5.9120000000000008E+00    2.9549999999999996E+00    8.3599999999999977E+00
             5.9120000000000008E+00    5.9109999999999996E+00    8.3599999999999977E+00
             8.6699999999999982E+00    0.0000000000000000E+00    8.3599999999999977E+00
             8.6699999999999982E+00    2.9549999999999996E+00    8.3599999999999977E+00
             8.6699999999999982E+00    5.9109999999999996E+00    8.3599999999999977E+00
             1.1625999999999999E+01    0.0000000000000000E+00    8.3599999999999977E+00
             1.1625999999999999E+01    2.9549999999999996E+00    8.3599999999999977E+00
             1.1625999999999999E+01    5.9109999999999996E+00    8.3599999999999977E+00
             1.4780000000000002E+00    1.4780000000000002E+00    1.0449999999999999E+01
             1.4780000000000002E+00    4.4329999999999998E+00    1.0449999999999999E+01
             1.4780000000000002E+00    7.3889999999999993E+00    1.0449999999999999E+01
             4.4340000000000002E+00    1.4780000000000002E+00    1.0449999999999999E+01
             4.4340000000000002E+00    4.4329999999999998E+00    1.0449999999999999E+01
             4.4340000000000002E+00    7.3889999999999993E+00    1.0449999999999999E+01
             7.1920000000000019E+00    1.4780000000000002E+00    1.0449999999999999E+01
             7.1920000000000019E+00    4.4329999999999998E+00    1.0449999999999999E+01
             7.1920000000000019E+00    7.3889999999999993E+00    1.0449999999999999E+01
             1.0147999999999998E+01    1.4780000000000002E+00    1.0449999999999999E+01
             1.0147999999999998E+01    4.4329999999999998E+00    1.0449999999999999E+01
             1.0147999999999998E+01    7.3889999999999993E+00    1.0449999999999999E+01
             1.3104000000000003E+01    1.4780000000000002E+00    1.0449999999999999E+01
             1.3104000000000003E+01    4.4329999999999998E+00    1.0449999999999999E+01
             1.3104000000000003E+01    7.3889999999999993E+00    1.0449999999999999E+01
             4.8554000000000039E+00    5.9119000000000002E+00    1.2031799999999997E+01
             9.5279999999999987E+00    5.9136999999999995E+00    1.2033999999999997E+01
             7.1920000000000019E+00    5.9340000000000019E+00    1.2039999999999997E+01
             4.0673339928000019E+00    5.9059993220000004E+00    1.2687741368900001E+01
             1.0318905404800002E+01    5.9087793826000024E+00    1.2685747073200003E+01
             5.9989554221999999E+00    5.9152564166000010E+00    1.2792642411200003E+01
             8.3738707293000019E+00    5.9179777707000003E+00    1.2731457252200004E+01
             8.3227525761999992E+00    5.9051536095000010E+00    1.4080497642100005E+01
             5.9344285049000014E+00    5.8981604865000019E+00    1.4101749969600002E+01
             7.1039653577000017E+00    5.8899410688999989E+00    1.4828703219100001E+01
             7.2416021046999992E+00    5.8657702091999990E+00    1.6106466757300009E+01
             6.3118250323000034E+00    5.8547577071000019E+00    1.6539601306200002E+01
             9.1743570613000021E+00    5.8876302392000044E+00    1.4641017735300009E+01
             7.3120000000000003E+00    5.9340000000000019E+00    2.1042999999999999E+01
             5.8129999999999997E+00    7.4340000000000019E+00    2.2992000000000004E+01
             8.8130000000000006E+00    4.4340000000000002E+00    2.2992000000000004E+01
             5.8129999999999997E+00    4.4329999999999998E+00    2.2992000000000004E+01
             8.8130000000000006E+00    7.4340000000000019E+00    2.2992000000000004E+01
             1.4780000000000002E+00    1.4780000000000002E+00    2.5082000000000008E+01
             1.4780000000000002E+00    4.4329999999999998E+00    2.5082000000000008E+01
             1.4780000000000002E+00    7.3889999999999993E+00    2.5082000000000008E+01
             4.4340000000000002E+00    1.4780000000000002E+00    2.5082000000000008E+01
             4.4340000000000002E+00    4.4329999999999998E+00    2.5082000000000008E+01
             4.4340000000000002E+00    7.3889999999999993E+00    2.5082000000000008E+01
             7.1920000000000019E+00    1.4780000000000002E+00    2.5082000000000008E+01
             7.1920000000000019E+00    4.4329999999999998E+00    2.5082000000000008E+01
             7.1920000000000019E+00    7.3889999999999993E+00    2.5082000000000008E+01
             1.0147999999999998E+01    1.4780000000000002E+00    2.5082000000000008E+01
             1.0147999999999998E+01    4.4329999999999998E+00    2.5082000000000008E+01
             1.0147999999999998E+01    7.3889999999999993E+00    2.5082000000000008E+01
             1.3104000000000003E+01    1.4780000000000002E+00    2.5082000000000008E+01
             1.3104000000000003E+01    4.4329999999999998E+00    2.5082000000000008E+01
             1.3104000000000003E+01    7.3889999999999993E+00    2.5082000000000008E+01
             0.0000000000000000E+00    0.0000000000000000E+00    2.7172000000000004E+01
             0.0000000000000000E+00    2.9549999999999996E+00    2.7172000000000004E+01
             0.0000000000000000E+00    5.9109999999999996E+00    2.7172000000000004E+01
             2.9560000000000004E+00    0.0000000000000000E+00    2.7172000000000004E+01
             2.9560000000000004E+00    2.9549999999999996E+00    2.7172000000000004E+01
             2.9560000000000004E+00    5.9109999999999996E+00    2.7172000000000004E+01
             5.9120000000000008E+00    0.0000000000000000E+00    2.7172000000000004E+01
             5.9120000000000008E+00    2.9549999999999996E+00    2.7172000000000004E+01
             5.9120000000000008E+00    5.9109999999999996E+00    2.7172000000000004E+01
             8.6699999999999982E+00    0.0000000000000000E+00    2.7172000000000004E+01
             8.6699999999999982E+00    2.9549999999999996E+00    2.7172000000000004E+01
             8.6699999999999982E+00    5.9109999999999996E+00    2.7172000000000004E+01
             1.1625999999999999E+01    0.0000000000000000E+00    2.7172000000000004E+01
             1.1625999999999999E+01    2.9549999999999996E+00    2.7172000000000004E+01
             1.1625999999999999E+01    5.9109999999999996E+00    2.7172000000000004E+01
             1.4780000000000002E+00    1.4780000000000002E+00    2.9262000000000008E+01
             1.4780000000000002E+00    4.4329999999999998E+00    2.9262000000000008E+01
             1.4780000000000002E+00    7.3889999999999993E+00    2.9262000000000008E+01
             4.4340000000000002E+00    1.4780000000000002E+00    2.9262000000000008E+01
             4.4340000000000002E+00    4.4329999999999998E+00    2.9262000000000008E+01
             4.4340000000000002E+00    7.3889999999999993E+00    2.9262000000000008E+01
             7.1920000000000019E+00    1.4780000000000002E+00    2.9262000000000008E+01
             7.1920000000000019E+00    4.4329999999999998E+00    2.9262000000000008E+01
             7.1920000000000019E+00    7.3889999999999993E+00    2.9262000000000008E+01
             1.0147999999999998E+01    1.4780000000000002E+00    2.9262000000000008E+01
             1.0147999999999998E+01    4.4329999999999998E+00    2.9262000000000008E+01
             1.0147999999999998E+01    7.3889999999999993E+00    2.9262000000000008E+01
             1.3104000000000003E+01    1.4780000000000002E+00    2.9262000000000008E+01
             1.3104000000000003E+01    4.4329999999999998E+00    2.9262000000000008E+01
             1.3104000000000003E+01    7.3889999999999993E+00    2.9262000000000008E+01
             0.0000000000000000E+00    0.0000000000000000E+00    3.1352000000000007E+01
             0.0000000000000000E+00    2.9549999999999996E+00    3.1352000000000007E+01
             0.0000000000000000E+00    5.9109999999999996E+00    3.1352000000000007E+01
             2.9560000000000004E+00    0.0000000000000000E+00    3.1352000000000007E+01
             2.9560000000000004E+00    2.9549999999999996E+00    3.1352000000000007E+01
             2.9560000000000004E+00    5.9109999999999996E+00    3.1352000000000007E+01
             5.9120000000000008E+00    0.0000000000000000E+00    3.1352000000000007E+01
             5.9120000000000008E+00    2.9549999999999996E+00    3.1352000000000007E+01
             5.9120000000000008E+00    5.9109999999999996E+00    3.1352000000000007E+01
             8.6699999999999982E+00    0.0000000000000000E+00    3.1352000000000007E+01
             8.6699999999999982E+00    2.9549999999999996E+00    3.1352000000000007E+01
             8.6699999999999982E+00    5.9109999999999996E+00    3.1352000000000007E+01
             1.1625999999999999E+01    0.0000000000000000E+00    3.1352000000000007E+01
             1.1625999999999999E+01    2.9549999999999996E+00    3.1352000000000007E+01
             1.1625999999999999E+01    5.9109999999999996E+00    3.1352000000000007E+01
             1.4780000000000002E+00    1.4780000000000002E+00    3.3442000000000014E+01
             1.4780000000000002E+00    4.4329999999999998E+00    3.3442000000000014E+01
             1.4780000000000002E+00    7.3889999999999993E+00    3.3442000000000014E+01
             4.4340000000000002E+00    1.4780000000000002E+00    3.3442000000000014E+01
             4.4340000000000002E+00    4.4329999999999998E+00    3.3442000000000014E+01
             4.4340000000000002E+00    7.3889999999999993E+00    3.3442000000000014E+01
             7.1920000000000019E+00    1.4780000000000002E+00    3.3442000000000014E+01
             7.1920000000000019E+00    4.4329999999999998E+00    3.3442000000000014E+01
             7.1920000000000019E+00    7.3889999999999993E+00    3.3442000000000014E+01
             1.0147999999999998E+01    1.4780000000000002E+00    3.3442000000000014E+01
             1.0147999999999998E+01    4.4329999999999998E+00    3.3442000000000014E+01
             1.0147999999999998E+01    7.3889999999999993E+00    3.3442000000000014E+01
             1.3104000000000003E+01    1.4780000000000002E+00    3.3442000000000014E+01
             1.3104000000000003E+01    4.4329999999999998E+00    3.3442000000000014E+01
             1.3104000000000003E+01    7.3889999999999993E+00    3.3442000000000014E+01
       &END COORD
       &VELOCITY
             0.0000000000000000E+00    0.0000000000000000E+00    0.0000000000000000E+00
             0.0000000000000000E+00    0.0000000000000000E+00    0.0000000000000000E+00
             0.0000000000000000E+00    0.0000000000000000E+00    0.0000000000000000E+00
             0.0000000000000000E+00    0.0000000000000000E+00    0.0000000000000000E+00
             0.0000000000000000E+00    0.0000000000000000E+00    0.0000000000000000E+00
             0.0000000000000000E+00    0.0000000000000000E+00    0.0000000000000000E+00
             0.0000000000000000E+00    0.0000000000000000E+00    0.0000000000000000E+00
             0.0000000000000000E+00    0.0000000000000000E+00    0.0000000000000000E+00
             0.0000000000000000E+00    0.0000000000000000E+00    0.0000000000000000E+00
             0.0000000000000000E+00    0.0000000000000000E+00    0.0000000000000000E+00
             0.0000000000000000E+00    0.0000000000000000E+00    0.0000000000000000E+00
             0.0000000000000000E+00    0.0000000000000000E+00    0.0000000000000000E+00
             0.0000000000000000E+00    0.0000000000000000E+00    0.0000000000000000E+00
             0.0000000000000000E+00    0.0000000000000000E+00    0.0000000000000000E+00
             0.0000000000000000E+00    0.0000000000000000E+00    0.0000000000000000E+00
             0.0000000000000000E+00    0.0000000000000000E+00    0.0000000000000000E+00
             0.0000000000000000E+00    0.0000000000000000E+00    0.0000000000000000E+00
             0.0000000000000000E+00    0.0000000000000000E+00    0.0000000000000000E+00
             0.0000000000000000E+00    0.0000000000000000E+00    0.0000000000000000E+00
             0.0000000000000000E+00    0.0000000000000000E+00    0.0000000000000000E+00
             0.0000000000000000E+00    0.0000000000000000E+00    0.0000000000000000E+00
             0.0000000000000000E+00    0.0000000000000000E+00    0.0000000000000000E+00
             0.0000000000000000E+00    0.0000000000000000E+00    0.0000000000000000E+00
             0.0000000000000000E+00    0.0000000000000000E+00    0.0000000000000000E+00
             0.0000000000000000E+00    0.0000000000000000E+00    0.0000000000000000E+00
             0.0000000000000000E+00    0.0000000000000000E+00    0.0000000000000000E+00
             0.0000000000000000E+00    0.0000000000000000E+00    0.0000000000000000E+00
             0.0000000000000000E+00    0.0000000000000000E+00    0.0000000000000000E+00
             0.0000000000000000E+00    0.0000000000000000E+00    0.0000000000000000E+00
             0.0000000000000000E+00    0.0000000000000000E+00    0.0000000000000000E+00
             0.0000000000000000E+00    0.0000000000000000E+00    0.0000000000000000E+00
             0.0000000000000000E+00    0.0000000000000000E+00    0.0000000000000000E+00
             0.0000000000000000E+00    0.0000000000000000E+00    0.0000000000000000E+00
             0.0000000000000000E+00    0.0000000000000000E+00    0.0000000000000000E+00
             0.0000000000000000E+00    0.0000000000000000E+00    0.0000000000000000E+00
             0.0000000000000000E+00    0.0000000000000000E+00    0.0000000000000000E+00
             0.0000000000000000E+00    0.0000000000000000E+00    0.0000000000000000E+00
             0.0000000000000000E+00    0.0000000000000000E+00    0.0000000000000000E+00
             0.0000000000000000E+00    0.0000000000000000E+00    0.0000000000000000E+00
             0.0000000000000000E+00    0.0000000000000000E+00    0.0000000000000000E+00
             0.0000000000000000E+00    0.0000000000000000E+00    0.0000000000000000E+00
             0.0000000000000000E+00    0.0000000000000000E+00    0.0000000000000000E+00
             0.0000000000000000E+00    0.0000000000000000E+00    0.0000000000000000E+00
             0.0000000000000000E+00    0.0000000000000000E+00    0.0000000000000000E+00
             0.0000000000000000E+00    0.0000000000000000E+00    0.0000000000000000E+00
             0.0000000000000000E+00    0.0000000000000000E+00    0.0000000000000000E+00
             0.0000000000000000E+00    0.0000000000000000E+00    0.0000000000000000E+00
             0.0000000000000000E+00    0.0000000000000000E+00    0.0000000000000000E+00
             0.0000000000000000E+00    0.0000000000000000E+00    0.0000000000000000E+00
             0.0000000000000000E+00    0.0000000000000000E+00    0.0000000000000000E+00
             0.0000000000000000E+00    0.0000000000000000E+00    0.0000000000000000E+00
             0.0000000000000000E+00    0.0000000000000000E+00    0.0000000000000000E+00
             0.0000000000000000E+00    0.0000000000000000E+00    0.0000000000000000E+00
             0.0000000000000000E+00    0.0000000000000000E+00    0.0000000000000000E+00
             0.0000000000000000E+00    0.0000000000000000E+00    0.0000000000000000E+00
             0.0000000000000000E+00    0.0000000000000000E+00    0.0000000000000000E+00
             0.0000000000000000E+00    0.0000000000000000E+00    0.0000000000000000E+00
             0.0000000000000000E+00    0.0000000000000000E+00    0.0000000000000000E+00
             0.0000000000000000E+00    0.0000000000000000E+00    0.0000000000000000E+00
             0.0000000000000000E+00    0.0000000000000000E+00    0.0000000000000000E+00
             0.0000000000000000E+00    0.0000000000000000E+00    0.0000000000000000E+00
             0.0000000000000000E+00    0.0000000000000000E+00    0.0000000000000000E+00
             0.0000000000000000E+00    0.0000000000000000E+00    0.0000000000000000E+00
             0.0000000000000000E+00    0.0000000000000000E+00    0.0000000000000000E+00
             0.0000000000000000E+00    0.0000000000000000E+00    0.0000000000000000E+00
             0.0000000000000000E+00    0.0000000000000000E+00    0.0000000000000000E+00
             0.0000000000000000E+00    0.0000000000000000E+00    0.0000000000000000E+00
             0.0000000000000000E+00    0.0000000000000000E+00    0.0000000000000000E+00
             0.0000000000000000E+00    0.0000000000000000E+00    0.0000000000000000E+00
             0.0000000000000000E+00    0.0000000000000000E+00    0.0000000000000000E+00
             0.0000000000000000E+00    0.0000000000000000E+00    0.0000000000000000E+00
             0.0000000000000000E+00    0.0000000000000000E+00    0.0000000000000000E+00
             0.0000000000000000E+00    0.0000000000000000E+00    0.0000000000000000E+00
             0.0000000000000000E+00    0.0000000000000000E+00    0.0000000000000000E+00
             0.0000000000000000E+00    0.0000000000000000E+00    0.0000000000000000E+00
             0.0000000000000000E+00    0.0000000000000000E+00    0.0000000000000000E+00
             0.0000000000000000E+00    0.0000000000000000E+00    0.0000000000000000E+00
             0.0000000000000000E+00    0.0000000000000000E+00    0.0000000000000000E+00
             0.0000000000000000E+00    0.0000000000000000E+00    0.0000000000000000E+00
             0.0000000000000000E+00    0.0000000000000000E+00    0.0000000000000000E+00
             0.0000000000000000E+00    0.0000000000000000E+00    0.0000000000000000E+00
             0.0000000000000000E+00    0.0000000000000000E+00    0.0000000000000000E+00
             0.0000000000000000E+00    0.0000000000000000E+00    0.0000000000000000E+00
             0.0000000000000000E+00    0.0000000000000000E+00    0.0000000000000000E+00
             0.0000000000000000E+00    0.0000000000000000E+00    0.0000000000000000E+00
             0.0000000000000000E+00    0.0000000000000000E+00    0.0000000000000000E+00
             0.0000000000000000E+00    0.0000000000000000E+00    0.0000000000000000E+00
             0.0000000000000000E+00    0.0000000000000000E+00    0.0000000000000000E+00
             0.0000000000000000E+00    0.0000000000000000E+00    0.0000000000000000E+00
             0.0000000000000000E+00    0.0000000000000000E+00    0.0000000000000000E+00
             0.0000000000000000E+00    0.0000000000000000E+00    0.0000000000000000E+00
             0.0000000000000000E+00    0.0000000000000000E+00    0.0000000000000000E+00
             0.0000000000000000E+00    0.0000000000000000E+00    0.0000000000000000E+00
             0.0000000000000000E+00    0.0000000000000000E+00    0.0000000000000000E+00
             0.0000000000000000E+00    0.0000000000000000E+00    0.0000000000000000E+00
             0.0000000000000000E+00    0.0000000000000000E+00    0.0000000000000000E+00
             0.0000000000000000E+00    0.0000000000000000E+00    0.0000000000000000E+00
             0.0000000000000000E+00    0.0000000000000000E+00    0.0000000000000000E+00
             0.0000000000000000E+00    0.0000000000000000E+00    0.0000000000000000E+00
             0.0000000000000000E+00    0.0000000000000000E+00    0.0000000000000000E+00
             0.0000000000000000E+00    0.0000000000000000E+00    0.0000000000000000E+00
             0.0000000000000000E+00    0.0000000000000000E+00    0.0000000000000000E+00
             0.0000000000000000E+00    0.0000000000000000E+00    0.0000000000000000E+00
             0.0000000000000000E+00    0.0000000000000000E+00    0.0000000000000000E+00
             0.0000000000000000E+00    0.0000000000000000E+00    0.0000000000000000E+00
             0.0000000000000000E+00    0.0000000000000000E+00    0.0000000000000000E+00
             0.0000000000000000E+00    0.0000000000000000E+00    0.0000000000000000E+00
             0.0000000000000000E+00    0.0000000000000000E+00    0.0000000000000000E+00
             0.0000000000000000E+00    0.0000000000000000E+00    0.0000000000000000E+00
             0.0000000000000000E+00    0.0000000000000000E+00    0.0000000000000000E+00
             0.0000000000000000E+00    0.0000000000000000E+00    0.0000000000000000E+00
             0.0000000000000000E+00    0.0000000000000000E+00    0.0000000000000000E+00
             0.0000000000000000E+00    0.0000000000000000E+00    0.0000000000000000E+00
             0.0000000000000000E+00    0.0000000000000000E+00    0.0000000000000000E+00
             0.0000000000000000E+00    0.0000000000000000E+00    0.0000000000000000E+00
             0.0000000000000000E+00    0.0000000000000000E+00    0.0000000000000000E+00
             0.0000000000000000E+00    0.0000000000000000E+00    0.0000000000000000E+00
             0.0000000000000000E+00    0.0000000000000000E+00    0.0000000000000000E+00
             0.0000000000000000E+00    0.0000000000000000E+00    0.0000000000000000E+00
             0.0000000000000000E+00    0.0000000000000000E+00    0.0000000000000000E+00
             0.0000000000000000E+00    0.0000000000000000E+00    0.0000000000000000E+00
             0.0000000000000000E+00    0.0000000000000000E+00    0.0000000000000000E+00
             0.0000000000000000E+00    0.0000000000000000E+00    0.0000000000000000E+00
             0.0000000000000000E+00    0.0000000000000000E+00    0.0000000000000000E+00
             0.0000000000000000E+00    0.0000000000000000E+00    0.0000000000000000E+00
             0.0000000000000000E+00    0.0000000000000000E+00    0.0000000000000000E+00
             0.0000000000000000E+00    0.0000000000000000E+00    0.0000000000000000E+00
             0.0000000000000000E+00    0.0000000000000000E+00    0.0000000000000000E+00
             0.0000000000000000E+00    0.0000000000000000E+00    0.0000000000000000E+00
             0.0000000000000000E+00    0.0000000000000000E+00    0.0000000000000000E+00
             0.0000000000000000E+00    0.0000000000000000E+00    0.0000000000000000E+00
             0.0000000000000000E+00    0.0000000000000000E+00    0.0000000000000000E+00
             0.0000000000000000E+00    0.0000000000000000E+00    0.0000000000000000E+00
             0.0000000000000000E+00    0.0000000000000000E+00    0.0000000000000000E+00
             0.0000000000000000E+00    0.0000000000000000E+00    0.0000000000000000E+00
             0.0000000000000000E+00    0.0000000000000000E+00    0.0000000000000000E+00
             0.0000000000000000E+00    0.0000000000000000E+00    0.0000000000000000E+00
             0.0000000000000000E+00    0.0000000000000000E+00    0.0000000000000000E+00
             0.0000000000000000E+00    0.0000000000000000E+00    0.0000000000000000E+00
             0.0000000000000000E+00    0.0000000000000000E+00    0.0000000000000000E+00
             0.0000000000000000E+00    0.0000000000000000E+00    0.0000000000000000E+00
             0.0000000000000000E+00    0.0000000000000000E+00    0.0000000000000000E+00
             0.0000000000000000E+00    0.0000000000000000E+00    0.0000000000000000E+00
             0.0000000000000000E+00    0.0000000000000000E+00    0.0000000000000000E+00
             0.0000000000000000E+00    0.0000000000000000E+00    0.0000000000000000E+00