         0      -5729.782607898      -5500.680298978      -5729.737335719      -4214.310050716      -5729.772184682          3.405377450          3.405377450          3.368183632          3.368183632
         1      -5729.782607899      -5728.799003790      -5729.737335719      -4215.030902443      -5729.772184682          3.949252534          3.949252534          3.368183632          3.368183632
         2      -5729.782607899      -5728.799026079      -5729.737336483      -5725.074662419      -5729.772184682          3.949256674          3.949256670          3.917228253          3.917228024
         3      -5729.782607898      -5728.987293246      -5729.745388696      -5728.980758497      -5729.772184683          3.996572278          3.993946915          4.575217718          4.576055480
         4      -5729.782607898      -5729.172164286      -5729.808914666      -5729.224643459      -5729.772184683          4.386431894          4.386738994          4.457512996          4.490868906
         5      -5729.782607899      -5729.275806778      -5729.844006815      -5729.277712895      -5729.772184682          4.319084796          4.310224258          4.479047620          4.517285137
         6      -5729.782607898      -5729.336223316      -5729.864450704      -5729.374544594      -5729.772184682          4.291747303          4.279416233          4.421305350          4.476942397
         7      -5729.782607899      -5729.378184231      -5729.886724886      -5729.439403847      -5729.772184682          4.226188758          4.234580416          4.320475364          4.385946218
         8      -5729.782607898      -5729.406730128      -5729.893582035      -5729.461005905      -5729.772184682          4.273880697          4.325634024          4.333689139          4.393529427
         9      -5729.782607899      -5729.439784550      -5729.908132262      -5729.503215576      -5729.772184682          4.280852798          4.377238201          4.300728179          4.367563016
        10      -5729.782607898      -5729.448632655      -5729.912517861      -5729.523309077      -5729.772184682          4.285045872          4.396006739          4.362042451          4.404266342
        11      -5729.782607898      -5729.456276130      -5729.916468080      -5729.540815794      -5729.772184682          4.292734678          4.418885726          4.356069323          4.398432294
        12      -5729.782607898      -5729.463095962      -5729.920125522      -5729.552125959      -5729.772184682          4.299358756          4.438420391          4.430592285          4.441908157
        13      -5729.782607899      -5729.468813309      -5729.923084075      -5729.564733811      -5729.772184682          4.310578030          4.462831765          4.446144803          4.451827695
        14      -5729.782607899      -5729.471997678      -5729.924548289      -5729.572675921      -5729.772184682          4.315050801          4.473102426          4.475006798          4.468806140
        15      -5729.782607898      -5729.520530011      -5729.950957516      -5729.620868204      -5729.772184682          4.602028656          4.825978734          5.095301041          4.972479164
        16      -5729.782607898      -5729.524772777      -5729.951748037      -5729.633108330      -5729.772184682          4.623531662          4.831382322          5.046379871          4.965609548
        17      -5729.782607899      -5729.528221608      -5729.952481019      -5729.647952587      -5729.772184682          4.653682969          4.839523587          5.043375522          4.972504919
        18      -5729.782607899      -5729.529127897      -5729.954710582      -5729.651544173      -5729.772184682          4.748191792          4.858383560          5.026415272          4.986076771
        19      -5729.782607899      -5729.534437980      -5729.955006664      -5729.654775802      -5729.772184683          4.769781970          4.857832633          5.029308836          4.988839207
        20      -5729.782607898      -5729.515252905      -5729.969462439      -5729.661595278      -5729.772184682          5.825120615          4.997598768          5.076602788          5.189170650
        21      -5729.782607898      -5729.551201289      -5729.970539029      -5729.676833279      -5729.772184682          5.889365338          4.995204118          5.092495088          5.191612678
        22      -5729.782607899      -5729.554568195      -5729.974941559      -5729.676145334      -5729.772184683          6.038817490          4.956063522          5.123883202          5.190733661
        23      -5729.782607898      -5729.557645477      -5729.976052046      -5729.681501204      -5729.772184682          6.072298882          4.965570472          5.120442409          5.189620080
        24      -5729.782607899      -5729.557017312      -5729.983466014      -5729.679454016      -5729.772184682          6.235867544          4.977272399          5.123904878          5.184796049
        25      -5729.782607898      -5729.567432821      -5729.985285564      -5729.683984489      -5729.772184682          6.279620324          4.985574460          5.132128031          5.186328098
        26      -5729.782607898      -5729.570841923      -5729.987401262      -5729.684929959      -5729.772184682          6.313026634          4.991867824          5.129131955          5.184214105
        27      -5729.782607898      -5729.561406909      -5729.980848211      -5729.683398980      -5729.772184682          6.220975066          4.962305398          5.136612450          5.190892457
        28      -5729.782607899      -5729.562617265      -5729.984766578      -5729.683656559      -5729.772184682          6.276413350          4.969133997          5.123863176          5.187186324
        29      -5729.782607899      -5729.567227851      -5729.986676780      -5729.684753385      -5729.772184682          6.310641415          4.981470695          5.128877222          5.186339503
        30      -5729.782607898      -5729.571721628      -5729.990127368      -5729.685370409      -5729.772184682          6.359046969          4.995151448          5.129202253          5.183598245
        31      -5729.782607899      -5729.578756927      -5730.000947937      -5729.681427049      -5729.772184682          6.509302357          5.072944363          5.120711386          5.174517183
        32      -5729.782607899      -5729.595137036      -5730.002272897      -5729.687121372      -5729.772184682          6.543419646          5.095664151          5.127031478          5.174455133
        33      -5729.782607899      -5729.609717062      -5730.006171480      -5729.683311586      -5729.772184682          6.604443801          5.146751715          5.129275003          5.170178835
        34      -5729.782607899      -5729.627556645      -5730.008625409      -5729.688295490      -5729.772184682          6.659041666          5.205623801          5.139103351          5.169505782
        35      -5729.782607898      -5729.659361753      -5730.013114374      -5729.679100164      -5729.772184682          6.727424380          5.365039525          5.145805561          5.165072672
        36      -5729.782607899      -5729.670115291      -5730.013913338      -5729.690235318      -5729.772184683          6.732013233          5.370730746          5.159480021          5.167114517
        37      -5729.782607899      -5729.678344796      -5730.014679368      -5729.690989670      -5729.772184682          6.730118727          5.399388384          5.169928159          5.168441963
        38      -5729.782607898      -5729.703136472      -5730.018479963      -5729.687164581      -5729.772184682          6.708168612          5.587594591          5.219063831          5.173923841
        39      -5729.782607899      -5729.710250383      -5730.018833579      -5729.692811489      -5729.772184682          6.662841152          5.577261725          5.229227050          5.161209220
        40      -5729.782607899      -5729.709344857      -5730.019605792      -5729.690260280      -5729.772184682          6.571340849          5.602348698          5.269858240          5.096021243
        41      -5729.782607899      -5729.714573166      -5730.019878507      -5729.689294845      -5729.772184682          6.544496373          5.610112925          5.287553148          5.066188389
        42      -5729.782607898      -5729.702828444      -5730.023593650      -5729.663838930      -5729.772184682          6.147103510          5.794501713          5.606685389          4.596222913
        43      -5729.782607899      -5729.717104823      -5730.024059785      -5729.662932451      -5729.772184682          6.137316525          5.794690767          5.629957631          4.555626765
        44      -5729.782607898      -5729.715274711      -5730.025238539      -5729.657575951      -5729.772184682          6.113946865          5.816953751          5.713680277          4.453485311
        45      -5729.782607898      -5729.717448361      -5730.026041794      -5729.654663459      -5729.772184682          6.103964523          5.838740590          5.771546678          4.389184392
        46      -5729.782607899      -5729.719942772      -5730.026549151      -5729.653059193      -5729.772184682          6.097449271          5.848161637          5.805592711          4.351599273
        47      -5729.782607899      -5729.686748008      -5730.038571455      -5729.644869587      -5729.772184682          5.934208736          6.275378501          7.155722169          3.425859055
        48      -5729.782607899      -5729.675843723      -5730.039084383      -5729.651829363      -5729.772184682          5.963342362          6.270195425          7.150320456          3.338458250
        49      -5729.782607899      -5729.723377472      -5730.039182620      -5729.651836399      -5729.772184682          5.994759876          6.320873971          7.159215850          3.248961803
        50      -5729.782607899      -5729.706386649      -5730.037492257      -5729.634420406      -5729.772184682          6.066264260          6.391014166          7.188680250          2.896393944
        51      -5729.782607899      -5729.727994861      -5730.038027186      -5729.635613196      -5729.772184682          6.068597518          6.398209225          7.196233961          2.876770890
        52      -5729.782607899      -5729.712547458      -5730.035257303      -5729.641923804      -5729.772184683          6.144988069          6.494734232          7.241669312          2.559408202
        53      -5729.782607899      -5729.730519150      -5730.034728504      -5729.658473002      -5729.772184682          6.164999622          6.514186066          7.191988382          2.517414622
