ATOMS
H             0.00000000      0.00000000     -0.00998254            -0.00000026     -0.66193438      0.24868229
H             0.00000000      0.00000000      0.73998166            -0.00000026     -0.66193438      0.24868229
