ATOMS
H             3.25353201      5.72009504     18.92650888            -0.00526248     -0.00490667     -0.70707017
H             3.25943356      5.72541265     19.67644339             0.00526248      0.00490667      0.70707017
