ATOMS
H             3.25353201      5.72009504     18.92650888             0.70710677     -0.00005514     -0.00007733
H             3.25943356      5.72541265     19.67644339             0.70710677     -0.00005514     -0.00007733
