ATOMS
H             3.25353201      5.72009504     18.92650888             0.00001699      0.63988912     -0.30090182
H             3.25943356      5.72541265     19.67644339             0.00001699      0.63988912     -0.30090182
