ATOMS
H             3.25353201      5.72009504     18.92650888            -0.00022120      0.68093707      0.19059029
H             3.25943311      5.72541219     19.67697042            -0.00022120      0.68093707      0.19059029
