ATOMS
H             3.25353201      5.72009504     18.92650888            -0.70684201     -0.01865165      0.00514624
H             3.25943311      5.72541219     19.67697042             0.70684201      0.01865165     -0.00514624
