ATOMS
H             3.25353201      5.72009504     18.92650888            -0.00501512     -0.00503225     -0.70707109
H             3.25943311      5.72541219     19.67697042             0.00501512      0.00503225      0.70707109
