 DBCSR| CPU Multiplication driver                                           XSMM
 DBCSR| Multrec recursion limit                                              512
 DBCSR| Multiplication stack size                                           1000
 DBCSR| Maximum elements for images                                    UNLIMITED
 DBCSR| Multiplicative factor virtual images                                   1
 DBCSR| Use multiplication densification                                       T
 DBCSR| Multiplication size stacks                                             3
 DBCSR| Use memory pool for CPU allocation                                     F
 DBCSR| Number of 3D layers                                               SINGLE
 DBCSR| Use MPI memory allocation                                              F
 DBCSR| Use RMA algorithm                                                      F
 DBCSR| Use Communication thread                                               T
 DBCSR| Communication thread load                                             87
 DBCSR| MPI: My node id                                                        0
 DBCSR| MPI: Number of nodes                                                 240
 DBCSR| OMP: Current number of threads                                         1
 DBCSR| OMP: Max number of threads                                             1
 DBCSR| Split modifier for TAS multiplication algorithm                  1.0E+00


  **** **** ******  **  PROGRAM STARTED AT               2023-03-22 13:15:03.898
 ***** ** ***  *** **   PROGRAM STARTED ON                 cn1029.scarf.rl.ac.uk
 **    ****   ******    PROGRAM STARTED BY                             scarf1157
 ***** **    ** ** **   PROGRAM PROCESS ID                                 48649
  **** **  *******  **  PROGRAM STARTED IN /work4/scd/scarf1157/work/testing/cp2
                                           k-smeagol/bdt/cp2k/hollow-site/transp
                                           ort-cp2k/5-4/geometry-ordered/3x3-4/s
                                           z/bulk_layers-4/transmission/exp/capa
                                           citor/sergey-equal/auto/kpoints-20_te
                                           st/chris_kpoints-3-3-20_hlb-auto

 CP2K| version string:                 CP2K version 2022.1 (Development Version)
 CP2K| source code revision number:                                  git:c53e391
 CP2K| cp2kflags: omp fftw3 libxc parallel mpi3 scalapack xsmm spglib           
 CP2K| is freely available from                            https://www.cp2k.org/
 CP2K| Program compiled at                          Thu  9 Mar 18:17:55 GMT 2023
 CP2K| Program compiled on                                 cn1108.scarf.rl.ac.uk
 CP2K| Program compiled for                                                local
 CP2K| Data directory path    /home/vol07/scarf1157/code/smeagol/cp2k-smeagol/sc
 CP2K| Input file name                                                   4_V.inp

 GLOBAL| Force Environment number                                              1
 GLOBAL| Basis set file name                                        BASIS_MOLOPT
 GLOBAL| Potential file name                                      GTH_POTENTIALS
 GLOBAL| MM Potential file name                                     MM_POTENTIAL
 GLOBAL| Coordinate file name                                             em.xyz
 GLOBAL| Method name                                                        CP2K
 GLOBAL| Project name                                                          V
 GLOBAL| Run type                                                         ENERGY
 GLOBAL| FFT library                                                       FFTW3
 GLOBAL| Diagonalization library                                       ScaLAPACK
 GLOBAL| Orthonormality check for eigenvectors                          DISABLED
 GLOBAL| Matrix multiplication library                                 ScaLAPACK
 GLOBAL| All-to-all communication in single precision                          F
 GLOBAL| FFTs using library dependent lengths                                  T
 GLOBAL| Grid backend                                                       AUTO
 GLOBAL| Global print level                                               MEDIUM
 GLOBAL| MPI I/O enabled                                                       T
 GLOBAL| Total number of message passing processes                           240
 GLOBAL| Number of threads for this process                                    1
 GLOBAL| This output is from process                                           0
 GLOBAL| Stack size for threads created by OpenMP (OMP_STACKSIZE)        default
 GLOBAL| CPU model name                         AMD EPYC 7502P 32-Core Processor
 GLOBAL| CPUID                                                              1002

 MEMORY| system memory details [Kb]
 MEMORY|                        rank 0           min           max       average
 MEMORY| MemTotal            263896984     263896980     263896984     263896983
 MEMORY| MemFree             136171612      88063968     218572656     160194251
 MEMORY| Buffers                  2568           776          3452          2444
 MEMORY| Cached              108153032      29835240     159858608      87383442
 MEMORY| Slab                  1520428       1068856       1568532       1343646
 MEMORY| SReclaimable           967312        585272       1044932        824278
 MEMORY| MemLikelyFree       245294524     245294524     249026816     248404415


 *** Fundamental physical constants (SI units) ***

 *** Literature: B. J. Mohr and B. N. Taylor,
 ***             CODATA recommended values of the fundamental physical
 ***             constants: 2006, Web Version 5.1
 ***             http://physics.nist.gov/constants

 Speed of light in vacuum [m/s]                             2.99792458000000E+08
 Magnetic constant or permeability of vacuum [N/A**2]       1.25663706143592E-06
 Electric constant or permittivity of vacuum [F/m]          8.85418781762039E-12
 Planck constant (h) [J*s]                                  6.62606896000000E-34
 Planck constant (h-bar) [J*s]                              1.05457162825177E-34
 Elementary charge [C]                                      1.60217648700000E-19
 Electron mass [kg]                                         9.10938215000000E-31
 Electron g factor [ ]                                     -2.00231930436220E+00
 Proton mass [kg]                                           1.67262163700000E-27
 Fine-structure constant                                    7.29735253760000E-03
 Rydberg constant [1/m]                                     1.09737315685270E+07
 Avogadro constant [1/mol]                                  6.02214179000000E+23
 Boltzmann constant [J/K]                                   1.38065040000000E-23
 Atomic mass unit [kg]                                      1.66053878200000E-27
 Bohr radius [m]                                            5.29177208590000E-11

 *** Conversion factors ***

 [u] -> [a.u.]                                              1.82288848426455E+03
 [Angstrom] -> [Bohr] = [a.u.]                              1.88972613288564E+00
 [a.u.] = [Bohr] -> [Angstrom]                              5.29177208590000E-01
 [a.u.] -> [s]                                              2.41888432650478E-17
 [a.u.] -> [fs]                                             2.41888432650478E-02
 [a.u.] -> [J]                                              4.35974393937059E-18
 [a.u.] -> [N]                                              8.23872205491840E-08
 [a.u.] -> [K]                                              3.15774647902944E+05
 [a.u.] -> [kJ/mol]                                         2.62549961709828E+03
 [a.u.] -> [kcal/mol]                                       6.27509468713739E+02
 [a.u.] -> [Pa]                                             2.94210107994716E+13
 [a.u.] -> [bar]                                            2.94210107994716E+08
 [a.u.] -> [atm]                                            2.90362800883016E+08
 [a.u.] -> [eV]                                             2.72113838565563E+01
 [a.u.] -> [Hz]                                             6.57968392072181E+15
 [a.u.] -> [1/cm] (wave numbers)                            2.19474631370540E+05
 [a.u./Bohr**2] -> [1/cm]                                   5.14048714338585E+03
 

 CELL_TOP| Volume [angstrom^3]:                                      2357.480286
 CELL_TOP| Vector a [angstrom     8.336     0.000     0.000   |a| =     8.336000
 CELL_TOP| Vector b [angstrom     0.000     8.336     0.000   |b| =     8.336000
 CELL_TOP| Vector c [angstrom     0.000     0.000    33.926   |c| =    33.926000
 CELL_TOP| Angle (b,c), alpha [degree]:                                90.000000
 CELL_TOP| Angle (a,c), beta  [degree]:                                90.000000
 CELL_TOP| Angle (a,b), gamma [degree]:                                90.000000
 CELL_TOP| Numerically orthorhombic:                                         YES
 CELL_TOP| Periodicity                                                       XYZ

 GENERATE|  Preliminary Number of Bonds generated:                             0
 GENERATE|  Achieved consistency in connectivity generation.

 CELL| Volume [angstrom^3]:                                          2357.480286
 CELL| Vector a [angstrom]:       8.336     0.000     0.000   |a| =     8.336000
 CELL| Vector b [angstrom]:       0.000     8.336     0.000   |b| =     8.336000
 CELL| Vector c [angstrom]:       0.000     0.000    33.926   |c| =    33.926000
 CELL| Angle (b,c), alpha [degree]:                                    90.000000
 CELL| Angle (a,c), beta  [degree]:                                    90.000000
 CELL| Angle (a,b), gamma [degree]:                                    90.000000
 CELL| Numerically orthorhombic:                                             YES
 CELL| Periodicity                                                           XYZ

 CELL_REF| Volume [angstrom^3]:                                      2357.480286
 CELL_REF| Vector a [angstrom     8.336     0.000     0.000   |a| =     8.336000
 CELL_REF| Vector b [angstrom     0.000     8.336     0.000   |b| =     8.336000
 CELL_REF| Vector c [angstrom     0.000     0.000    33.926   |c| =    33.926000
 CELL_REF| Angle (b,c), alpha [degree]:                                90.000000
 CELL_REF| Angle (a,c), beta  [degree]:                                90.000000
 CELL_REF| Angle (a,b), gamma [degree]:                                90.000000
 CELL_REF| Numerically orthorhombic:                                         YES
 CELL_REF| Periodicity                                                       XYZ

 *******************************************************************************
                                    Kpoints
 *******************************************************************************
 BRILLOUIN| K-point scheme                                        Monkhorst-Pack
 BRILLOUIN| K-Point grid                                             3    3    1
 BRILLOUIN| Accuracy in Symmetry determination                      0.100000E-07
 BRILLOUIN| K-Point point group symmetrization                               OFF
 BRILLOUIN| Wavefunction type                                            COMPLEX
 BRILLOUIN| Use full k-point grid     
 BRILLOUIN| List of Kpoints [2 Pi/Bohr]                                        9
 BRILLOUIN| Number           Weight            X              Y              Z
 BRILLOUIN|     1           0.11111       -0.33333       -0.33333        0.00000
 BRILLOUIN|     2           0.11111       -0.33333        0.00000        0.00000
 BRILLOUIN|     3           0.11111       -0.33333        0.33333        0.00000
 BRILLOUIN|     4           0.11111        0.00000       -0.33333        0.00000
 BRILLOUIN|     5           0.11111        0.00000        0.00000        0.00000
 BRILLOUIN|     6           0.11111        0.00000        0.33333        0.00000
 BRILLOUIN|     7           0.11111        0.33333       -0.33333        0.00000
 BRILLOUIN|     8           0.11111        0.33333        0.00000        0.00000
 BRILLOUIN|     9           0.11111        0.33333        0.33333        0.00000
 *******************************************************************************

 *******************************************************************************
 *******************************************************************************
 **                                                                           **
 **     #####                         ##              ##                      **
 **    ##   ##            ##          ##              ##                      **
 **   ##     ##                       ##            ######                    **
 **   ##     ##  ##   ##  ##   #####  ##  ##   ####   ##    #####    #####    **
 **   ##     ##  ##   ##  ##  ##      ## ##   ##      ##   ##   ##  ##   ##   **
 **   ##  ## ##  ##   ##  ##  ##      ####     ###    ##   ######   ######    **
 **    ##  ###   ##   ##  ##  ##      ## ##      ##   ##   ##       ##        **
 **     #######   #####   ##   #####  ##  ##  ####    ##    #####   ##        **
 **           ##                                                    ##        **
 **                                                                           **
 **                                                ... make the atoms dance   **
 **                                                                           **
 **            Copyright (C) by CP2K developers group (2000-2022)             **
 **                      J. Chem. Phys. 152, 194103 (2020)                    **
 **                                                                           **
 *******************************************************************************

 DFT| Spin restricted Kohn-Sham (RKS) calculation                            RKS
 DFT| Multiplicity                                                             1
 DFT| Number of spin states                                                    1
 DFT| Charge                                                                   0
 DFT| Self-interaction correction (SIC)                                       NO
 DFT| Cutoffs: density                                              1.000000E-10
 DFT|          gradient                                             1.000000E-10
 DFT|          tau                                                  1.000000E-10
 DFT|          cutoff_smoothing_range                               0.000000E+00
 DFT| XC density smoothing                                                  NONE
 DFT| XC derivatives                                                          PW

 FUNCTIONAL| PADE:
 FUNCTIONAL| S. Goedecker, M. Teter and J. Hutter, Phys. Rev. B 54, 1703 (1996) 


 QS| Method:                                                                 GPW
 QS| Density plane wave grid type                        NON-SPHERICAL FULLSPACE
 QS| Number of grid levels:                                                    4
 QS| Density cutoff [a.u.]:                                                200.0
 QS| Multi grid cutoff [a.u.]: 1) grid level                               200.0
 QS|                           2) grid level                                66.7
 QS|                           3) grid level                                22.2
 QS|                           4) grid level                                 7.4
 QS| Grid level progression factor:                                          3.0
 QS| Relative density cutoff [a.u.]:                                        20.0
 QS| Interaction thresholds: eps_pgf_orb:                                1.0E-05
 QS|                         eps_filter_matrix:                          0.0E+00
 QS|                         eps_core_charge:                            1.0E-12
 QS|                         eps_rho_gspace:                             1.0E-10
 QS|                         eps_rho_rspace:                             1.0E-10
 QS|                         eps_gvg_rspace:                             1.0E-05
 QS|                         eps_ppl:                                    1.0E-02
 QS|                         eps_ppnl:                                   1.0E-07


 ATOMIC KIND INFORMATION

  1. Atomic kind: Au                                    Number of atoms:      96

     Orbital Basis Set                                         SZV-MOLOPT-SR-GTH

       Number of orbital shell sets:                                           1
       Number of orbital shells:                                               3
       Number of primitive Cartesian functions:                                5
       Number of Cartesian basis functions:                                   10
       Number of spherical basis functions:                                    9
       Norm type:                                                              2

       Normalised Cartesian orbitals:

                        Set   Shell   Orbital            Exponent    Coefficient

                          1       1    2s                2.950008       0.074626
                                                         1.563057      -0.007898
                                                         0.666664      -0.297688
                                                         0.251083       0.136809
                                                         0.081714       0.088198

                          1       2    3px               2.950008       0.148824
                                                         1.563057       0.025430
                                                         0.666664      -0.123003
                                                         0.251083       0.033648
                                                         0.081714       0.059008
                          1       2    3py               2.950008       0.148824
                                                         1.563057       0.025430
                                                         0.666664      -0.123003
                                                         0.251083       0.033648
                                                         0.081714       0.059008
                          1       2    3pz               2.950008       0.148824
                                                         1.563057       0.025430
                                                         0.666664      -0.123003
                                                         0.251083       0.033648
                                                         0.081714       0.059008

                          1       3    4dx2              2.950008      -0.139595
                                                         1.563057       1.319655
                                                         0.666664       0.377081
                                                         0.251083       0.046872
                                                         0.081714       0.001393
                          1       3    4dxy              2.950008      -0.241786
                                                         1.563057       2.285709
                                                         0.666664       0.653124
                                                         0.251083       0.081185
                                                         0.081714       0.002412
                          1       3    4dxz              2.950008      -0.241786
                                                         1.563057       2.285709
                                                         0.666664       0.653124
                                                         0.251083       0.081185
                                                         0.081714       0.002412
                          1       3    4dy2              2.950008      -0.139595
                                                         1.563057       1.319655
                                                         0.666664       0.377081
                                                         0.251083       0.046872
                                                         0.081714       0.001393
                          1       3    4dyz              2.950008      -0.241786
                                                         1.563057       2.285709
                                                         0.666664       0.653124
                                                         0.251083       0.081185
                                                         0.081714       0.002412
                          1       3    4dz2              2.950008      -0.139595
                                                         1.563057       1.319655
                                                         0.666664       0.377081
                                                         0.251083       0.046872
                                                         0.081714       0.001393

       Atomic covalent radius [Angstrom]:                                  1.340

       Atomic van der Waals radius [Angstrom]:                             1.660

     GTH Potential information for                                  GTH-PADE-q11

       Description:                       Goedecker-Teter-Hutter pseudopotential
                                           Goedecker et al., PRB 54, 1703 (1996)
                                          Hartwigsen et al., PRB 58, 3641 (1998)
                                                      Krack, TCA 114, 145 (2005)

       Gaussian exponent of the core charge distribution:               1.436369
       Electronic configuration (s p d ...):                           1   0  10

       Parameters of the local part of the GTH pseudopotential:

                          rloc        C1          C2          C3          C4
                        0.590000   11.604428

       Parameters of the non-local part of the GTH pseudopotential:

                   l      r(l)      h(i,j,l)

                   0    0.521180    2.538614   -1.046137
                                   -1.046137    2.701113
                   1    0.630613    0.394853   -0.869592
                                   -0.869592    2.057831
                   2    0.440706   -4.719070    0.727771
                                    0.727771   -1.650429


 MOLECULE KIND INFORMATION


 All atoms are their own molecule, skipping detailed information


 TOTAL NUMBERS AND MAXIMUM NUMBERS

  Total number of            - Atomic kinds:                                   1
                             - Atoms:                                         96
                             - Shell sets:                                    96
                             - Shells:                                       288
                             - Primitive Cartesian functions:                480
                             - Cartesian basis functions:                    960
                             - Spherical basis functions:                    864

  Maximum angular momentum of- Orbital basis functions:                        2
                             - Local part of the GTH pseudopotential:          0
                             - Non-local part of the GTH pseudopotential:      4


 MODULE QUICKSTEP: ATOMIC COORDINATES IN ANGSTROM

   Atom Kind Element         X             Y             Z       Z(eff)     Mass
      1    1 Au   79      0.000000      0.000000      0.000000  11.0000 196.9666
      2    1 Au   79      0.000000      4.168000      0.000000  11.0000 196.9666
      3    1 Au   79      2.084000      2.084000      0.000000  11.0000 196.9666
      4    1 Au   79      2.084000      6.252000      0.000000  11.0000 196.9666
      5    1 Au   79      4.168000      0.000000      0.000000  11.0000 196.9666
      6    1 Au   79      4.168000      4.168000      0.000000  11.0000 196.9666
      7    1 Au   79      6.252000      2.084000      0.000000  11.0000 196.9666
      8    1 Au   79      6.252000      6.252000      0.000000  11.0000 196.9666
      9    1 Au   79      0.000000      2.084000      2.084000  11.0000 196.9666
     10    1 Au   79      0.000000      6.252000      2.084000  11.0000 196.9666
     11    1 Au   79      2.084000      0.000000      2.084000  11.0000 196.9666
     12    1 Au   79      2.084000      4.168000      2.084000  11.0000 196.9666
     13    1 Au   79      4.168000      2.084000      2.084000  11.0000 196.9666
     14    1 Au   79      4.168000      6.252000      2.084000  11.0000 196.9666
     15    1 Au   79      6.252000      0.000000      2.084000  11.0000 196.9666
     16    1 Au   79      6.252000      4.168000      2.084000  11.0000 196.9666
     17    1 Au   79      0.000000      0.000000      4.168000  11.0000 196.9666
     18    1 Au   79      0.000000      4.168000      4.168000  11.0000 196.9666
     19    1 Au   79      2.084000      2.084000      4.168000  11.0000 196.9666
     20    1 Au   79      2.084000      6.252000      4.168000  11.0000 196.9666
     21    1 Au   79      4.168000      0.000000      4.168000  11.0000 196.9666
     22    1 Au   79      4.168000      4.168000      4.168000  11.0000 196.9666
     23    1 Au   79      6.252000      2.084000      4.168000  11.0000 196.9666
     24    1 Au   79      6.252000      6.252000      4.168000  11.0000 196.9666
     25    1 Au   79      0.000000      2.084000      6.252000  11.0000 196.9666
     26    1 Au   79      0.000000      6.252000      6.252000  11.0000 196.9666
     27    1 Au   79      2.084000      0.000000      6.252000  11.0000 196.9666
     28    1 Au   79      2.084000      4.168000      6.252000  11.0000 196.9666
     29    1 Au   79      4.168000      2.084000      6.252000  11.0000 196.9666
     30    1 Au   79      4.168000      6.252000      6.252000  11.0000 196.9666
     31    1 Au   79      6.252000      0.000000      6.252000  11.0000 196.9666
     32    1 Au   79      6.252000      4.168000      6.252000  11.0000 196.9666
     33    1 Au   79      0.000000      0.000000      8.336000  11.0000 196.9666
     34    1 Au   79      0.000000      4.168000      8.336000  11.0000 196.9666
     35    1 Au   79      2.084000      2.084000      8.336000  11.0000 196.9666
     36    1 Au   79      2.084000      6.252000      8.336000  11.0000 196.9666
     37    1 Au   79      4.168000      0.000000      8.336000  11.0000 196.9666
     38    1 Au   79      4.168000      4.168000      8.336000  11.0000 196.9666
     39    1 Au   79      6.252000      2.084000      8.336000  11.0000 196.9666
     40    1 Au   79      6.252000      6.252000      8.336000  11.0000 196.9666
     41    1 Au   79      0.000000      2.084000     10.420000  11.0000 196.9666
     42    1 Au   79      0.000000      6.252000     10.420000  11.0000 196.9666
     43    1 Au   79      2.084000      0.000000     10.420000  11.0000 196.9666
     44    1 Au   79      2.084000      4.168000     10.420000  11.0000 196.9666
     45    1 Au   79      4.168000      2.084000     10.420000  11.0000 196.9666
     46    1 Au   79      4.168000      6.252000     10.420000  11.0000 196.9666
     47    1 Au   79      6.252000      0.000000     10.420000  11.0000 196.9666
     48    1 Au   79      6.252000      4.168000     10.420000  11.0000 196.9666
     49    1 Au   79      0.000000      0.000000     21.422000  11.0000 196.9666
     50    1 Au   79      0.000000      4.168000     21.422000  11.0000 196.9666
     51    1 Au   79      2.084000      2.084000     21.422000  11.0000 196.9666
     52    1 Au   79      2.084000      6.252000     21.422000  11.0000 196.9666
     53    1 Au   79      4.168000      0.000000     21.422000  11.0000 196.9666
     54    1 Au   79      4.168000      4.168000     21.422000  11.0000 196.9666
     55    1 Au   79      6.252000      2.084000     21.422000  11.0000 196.9666
     56    1 Au   79      6.252000      6.252000     21.422000  11.0000 196.9666
     57    1 Au   79      0.000000      2.084000     23.506000  11.0000 196.9666
     58    1 Au   79      0.000000      6.252000     23.506000  11.0000 196.9666
     59    1 Au   79      2.084000      0.000000     23.506000  11.0000 196.9666
     60    1 Au   79      2.084000      4.168000     23.506000  11.0000 196.9666
     61    1 Au   79      4.168000      2.084000     23.506000  11.0000 196.9666
     62    1 Au   79      4.168000      6.252000     23.506000  11.0000 196.9666
     63    1 Au   79      6.252000      0.000000     23.506000  11.0000 196.9666
     64    1 Au   79      6.252000      4.168000     23.506000  11.0000 196.9666
     65    1 Au   79      0.000000      0.000000     25.590000  11.0000 196.9666
     66    1 Au   79      0.000000      4.168000     25.590000  11.0000 196.9666
     67    1 Au   79      2.084000      2.084000     25.590000  11.0000 196.9666
     68    1 Au   79      2.084000      6.252000     25.590000  11.0000 196.9666
     69    1 Au   79      4.168000      0.000000     25.590000  11.0000 196.9666
     70    1 Au   79      4.168000      4.168000     25.590000  11.0000 196.9666
     71    1 Au   79      6.252000      2.084000     25.590000  11.0000 196.9666
     72    1 Au   79      6.252000      6.252000     25.590000  11.0000 196.9666
     73    1 Au   79      0.000000      2.084000     27.674000  11.0000 196.9666
     74    1 Au   79      0.000000      6.252000     27.674000  11.0000 196.9666
     75    1 Au   79      2.084000      0.000000     27.674000  11.0000 196.9666
     76    1 Au   79      2.084000      4.168000     27.674000  11.0000 196.9666
     77    1 Au   79      4.168000      2.084000     27.674000  11.0000 196.9666
     78    1 Au   79      4.168000      6.252000     27.674000  11.0000 196.9666
     79    1 Au   79      6.252000      0.000000     27.674000  11.0000 196.9666
     80    1 Au   79      6.252000      4.168000     27.674000  11.0000 196.9666
     81    1 Au   79      0.000000      0.000000     29.758000  11.0000 196.9666
     82    1 Au   79      0.000000      4.168000     29.758000  11.0000 196.9666
     83    1 Au   79      2.084000      2.084000     29.758000  11.0000 196.9666
     84    1 Au   79      2.084000      6.252000     29.758000  11.0000 196.9666
     85    1 Au   79      4.168000      0.000000     29.758000  11.0000 196.9666
     86    1 Au   79      4.168000      4.168000     29.758000  11.0000 196.9666
     87    1 Au   79      6.252000      2.084000     29.758000  11.0000 196.9666
     88    1 Au   79      6.252000      6.252000     29.758000  11.0000 196.9666
     89    1 Au   79      0.000000      2.084000     31.842000  11.0000 196.9666
     90    1 Au   79      0.000000      6.252000     31.842000  11.0000 196.9666
     91    1 Au   79      2.084000      0.000000     31.842000  11.0000 196.9666
     92    1 Au   79      2.084000      4.168000     31.842000  11.0000 196.9666
     93    1 Au   79      4.168000      2.084000     31.842000  11.0000 196.9666
     94    1 Au   79      4.168000      6.252000     31.842000  11.0000 196.9666
     95    1 Au   79      6.252000      0.000000     31.842000  11.0000 196.9666
     96    1 Au   79      6.252000      4.168000     31.842000  11.0000 196.9666



 SCF PARAMETERS         Density guess:                                   RESTART
                        --------------------------------------------------------
                        max_scf:                                             500
                        max_scf_history:                                       0
                        max_diis:                                              4
                        --------------------------------------------------------
                        eps_scf:                                        1.00E-07
                        eps_scf_history:                                0.00E+00
                        eps_diis:                                       1.00E-01
                        eps_eigval:                                     1.00E-05
                        --------------------------------------------------------
                        level_shift [a.u.]:                             0.000000
                        added MOs                                       100    0
                        --------------------------------------------------------
                        Mixing method:                            BROYDEN_MIXING
                                                charge density mixing in g-space
                        --------------------------------------------------------
                        Smear method:                                FERMI_DIRAC
                        Electronic temperature [K]:                        293.0
                        Electronic temperature [a.u.]:                  9.28E-04
                        Accuracy threshold:                             1.00E-10
                        --------------------------------------------------------
                        No outer SCF

 PW_GRID| Information for grid number                                          1
 PW_GRID| Grid distributed over                                   240 processors
 PW_GRID| Real space group dimensions                                    12   20
 PW_GRID| the grid is blocked:                                               YES
 PW_GRID| Cutoff [a.u.]                                                    200.0
 PW_GRID| spherical cutoff:                                                   NO
 PW_GRID|   Bounds   1            -52      52                Points:         105
 PW_GRID|   Bounds   2            -52      52                Points:         105
 PW_GRID|   Bounds   3           -210     209                Points:         420
 PW_GRID| Volume element (a.u.^3)  0.3436E-02     Volume (a.u.^3)     15909.0657
 PW_GRID| Grid span                                                    FULLSPACE
 PW_GRID|   Distribution                         Average         Max         Min
 PW_GRID|   G-Vectors                            19293.8       19845       17640
 PW_GRID|   G-Rays                                 183.8         189         168
 PW_GRID|   Real Space Points                    19293.8       19845       17640

 PW_GRID| Information for grid number                                          2
 PW_GRID| Number of the reference grid                                         1
 PW_GRID| Grid distributed over                                   240 processors
 PW_GRID| Real space group dimensions                                    12   20
 PW_GRID| the grid is blocked:                                                NO
 PW_GRID| Cutoff [a.u.]                                                     66.7
 PW_GRID| spherical cutoff:                                                   NO
 PW_GRID|   Bounds   1            -30      29                Points:          60
 PW_GRID|   Bounds   2            -30      29                Points:          60
 PW_GRID|   Bounds   3           -120     119                Points:         240
 PW_GRID| Volume element (a.u.^3)  0.1841E-01     Volume (a.u.^3)     15909.0657
 PW_GRID| Grid span                                                    FULLSPACE
 PW_GRID|   Distribution                         Average         Max         Min
 PW_GRID|   G-Vectors                             3600.0       11340           0
 PW_GRID|   G-Rays                                  60.0         189           0
 PW_GRID|   Real Space Points                     3600.0        3600        3600

 PW_GRID| Information for grid number                                          3
 PW_GRID| Number of the reference grid                                         1
 PW_GRID| Grid distributed over                                   240 processors
 PW_GRID| Real space group dimensions                                    12   20
 PW_GRID| the grid is blocked:                                                NO
 PW_GRID| Cutoff [a.u.]                                                     22.2
 PW_GRID| spherical cutoff:                                                   NO
 PW_GRID|   Bounds   1            -16      16                Points:          33
 PW_GRID|   Bounds   2            -16      16                Points:          33
 PW_GRID|   Bounds   3            -70      69                Points:         140
 PW_GRID| Volume element (a.u.^3)  0.1043         Volume (a.u.^3)     15909.0657
 PW_GRID| Grid span                                                    FULLSPACE
 PW_GRID|   Distribution                         Average         Max         Min
 PW_GRID|   G-Vectors                              635.2        6237           0
 PW_GRID|   G-Rays                                  19.2         189           0
 PW_GRID|   Real Space Points                      635.2         840         280

 PW_GRID| Information for grid number                                          4
 PW_GRID| Number of the reference grid                                         1
 PW_GRID| Grid distributed over                                   240 processors
 PW_GRID| Real space group dimensions                                    12   20
 PW_GRID| the grid is blocked:                                                NO
 PW_GRID| Cutoff [a.u.]                                                      7.4
 PW_GRID| spherical cutoff:                                                   NO
 PW_GRID|   Bounds   1            -10       9                Points:          20
 PW_GRID|   Bounds   2            -10       9                Points:          20
 PW_GRID|   Bounds   3            -40      39                Points:          80
 PW_GRID| Volume element (a.u.^3)  0.4972         Volume (a.u.^3)     15909.0657
 PW_GRID| Grid span                                                    FULLSPACE
 PW_GRID|   Distribution                         Average         Max         Min
 PW_GRID|   G-Vectors                              133.3        3780           0
 PW_GRID|   G-Rays                                   6.7         189           0
 PW_GRID|   Real Space Points                      133.3         160          80

 POISSON| Solver                                                        PERIODIC
 POISSON| Periodicity                                                        XYZ

 RS_GRID| Information for grid number                                          1
 RS_GRID|   Bounds   1            -52      52                Points:         105
 RS_GRID|   Bounds   2            -52      52                Points:         105
 RS_GRID|   Bounds   3           -210     209                Points:         420
 RS_GRID| Real space distribution over                                  8 groups
 RS_GRID| Real space distribution along direction                              2
 RS_GRID| Border size                                                         30
 RS_GRID| Real space distribution over                                 30 groups
 RS_GRID| Real space distribution along direction                              3
 RS_GRID| Border size                                                         30
 RS_GRID|   Distribution                         Average         Max         Min
 RS_GRID|   Planes                                  73.1          74          73
 RS_GRID|   Distribution                         Average         Max         Min
 RS_GRID|   Planes                                  74.0          74          74

 RS_GRID| Information for grid number                                          2
 RS_GRID|   Bounds   1            -30      29                Points:          60
 RS_GRID|   Bounds   2            -30      29                Points:          60
 RS_GRID|   Bounds   3           -120     119                Points:         240
 RS_GRID| Real space distribution over                                  8 groups
 RS_GRID| Real space distribution along direction                              2
 RS_GRID| Border size                                                         20
 RS_GRID| Real space distribution over                                 30 groups
 RS_GRID| Real space distribution along direction                              3
 RS_GRID| Border size                                                         20
 RS_GRID|   Distribution                         Average         Max         Min
 RS_GRID|   Planes                                  47.5          48          47
 RS_GRID|   Distribution                         Average         Max         Min
 RS_GRID|   Planes                                  48.0          48          48

 RS_GRID| Information for grid number                                          3
 RS_GRID|   Bounds   1            -16      16                Points:          33
 RS_GRID|   Bounds   2            -16      16                Points:          33
 RS_GRID|   Bounds   3            -70      69                Points:         140
 RS_GRID| Real space fully replicated
 RS_GRID| Group size                                                           1

 RS_GRID| Information for grid number                                          4
 RS_GRID|   Bounds   1            -10       9                Points:          20
 RS_GRID|   Bounds   2            -10       9                Points:          20
 RS_GRID|   Bounds   3            -40      39                Points:          80
 RS_GRID| Real space fully replicated
 RS_GRID| Group size                                                           1

 KPOINTS| Number of kpoint groups                                              1
 KPOINTS| Size of each kpoint group                                          240
 KPOINTS| Number of kpoints per group                                          9

 Number of electrons:                                                       1056
 Number of occupied orbitals:                                                528
 Number of molecular orbitals:                                               628

 Number of orbital functions:                                                864
 Number of independent orbital functions:                                    864

 Extrapolation method: initial_guess


 SCF WAVEFUNCTION OPTIMIZATION

  Step     Update method      Time    Convergence         Total energy    Change
  ------------------------------------------------------------------------------
 Using HartreeLeadsBottom  -10.998942658000001     
 v_hartree_z_average(0)   5.0015157339707017E-004
     1 NoMix/SMGL  0.30E+00  177.1     0.06869292     -3194.9761707253 -3.19E+03
 Using HartreeLeadsBottom  -10.998942658000001     
 v_hartree_z_average(0)   4.7378560547069220E-004
     2 Broy./SMGL  0.30E+00   71.8     1.41898742     -3196.7680568987 -1.79E+00
 Using HartreeLeadsBottom  -10.998942658000001     
 v_hartree_z_average(0)   4.7534097039423809E-004
     3 Broy./SMGL  0.30E+00   72.3     1.38967393     -3218.2151065884 -2.14E+01
 Using HartreeLeadsBottom  -10.998942658000001     
 v_hartree_z_average(0)   4.8817879638189042E-004
     4 Broy./SMGL  0.30E+00   71.8     0.11258485     -3189.1596166501  2.91E+01
 Using HartreeLeadsBottom  -10.998942658000001     
 v_hartree_z_average(0)   4.9249674249261517E-004
     5 Broy./SMGL  0.30E+00   72.1     0.03984471     -3192.5018756305 -3.34E+00
 Using HartreeLeadsBottom  -10.998942658000001     
 v_hartree_z_average(0)   4.9117228755434644E-004
     6 Broy./SMGL  0.30E+00   71.7     0.01869272     -3194.5650338024 -2.06E+00
 Using HartreeLeadsBottom  -10.998942658000001     
 v_hartree_z_average(0)   4.9229816602603532E-004
     7 Broy./SMGL  0.30E+00   71.7     0.01845335     -3193.8548498250  7.10E-01
 Using HartreeLeadsBottom  -10.998942658000001     
 v_hartree_z_average(0)   4.9239298758864164E-004
     8 Broy./SMGL  0.30E+00   72.9     0.00101160     -3193.9942992335 -1.39E-01
 Using HartreeLeadsBottom  -10.998942658000001     
 v_hartree_z_average(0)   4.9309011004178608E-004
     9 Broy./SMGL  0.30E+00   72.3     0.00708925     -3194.0882251628 -9.39E-02
 Using HartreeLeadsBottom  -10.998942658000001     
 v_hartree_z_average(0)   4.9342030184914448E-004
    10 Broy./SMGL  0.30E+00   71.5     0.00387569     -3194.4384503720 -3.50E-01
 Using HartreeLeadsBottom  -10.998942658000001     
 v_hartree_z_average(0)   4.9413496786937516E-004
    11 Broy./SMGL  0.30E+00   71.9     0.00883590     -3194.5509525844 -1.13E-01
 Using HartreeLeadsBottom  -10.998942658000001     
 v_hartree_z_average(0)   4.9445122900230098E-004
    12 Broy./SMGL  0.30E+00   72.0     0.00309408     -3194.8513069477 -3.00E-01
 Using HartreeLeadsBottom  -10.998942658000001     
 v_hartree_z_average(0)   4.9443174028370026E-004
    13 Broy./SMGL  0.30E+00   72.6     0.00101005     -3194.9912936332 -1.40E-01
 Using HartreeLeadsBottom  -10.998942658000001     
 v_hartree_z_average(0)   4.9446053538999141E-004
    14 Broy./SMGL  0.30E+00   72.4     0.00142822     -3194.9799757832  1.13E-02
 Using HartreeLeadsBottom  -10.998942658000001     
 v_hartree_z_average(0)   4.9446099184716013E-004
    15 Broy./SMGL  0.30E+00   72.1     0.00063137     -3194.9928987262 -1.29E-02
 Using HartreeLeadsBottom  -10.998942658000001     
 v_hartree_z_average(0)   4.9447218401426317E-004
    16 Broy./SMGL  0.30E+00   73.5     0.00142742     -3194.9907989187  2.10E-03
 Using HartreeLeadsBottom  -10.998942658000001     
 v_hartree_z_average(0)   4.9448019165387533E-004
    17 Broy./SMGL  0.30E+00   72.8     0.00142752     -3194.9914211598 -6.22E-04
 Using HartreeLeadsBottom  -10.998942658000001     
 v_hartree_z_average(0)   4.9451828592271150E-004
    18 Broy./SMGL  0.30E+00   72.9     0.00063142     -3194.9881474596  3.27E-03
 Using HartreeLeadsBottom  -10.998942658000001     
 v_hartree_z_average(0)   4.9452428533556321E-004
    19 Broy./SMGL  0.30E+00   72.2     0.00064746     -3194.9925505880 -4.40E-03
 Using HartreeLeadsBottom  -10.998942658000001     
 v_hartree_z_average(0)   4.9453889909501425E-004
    20 Broy./SMGL  0.30E+00   72.3     0.00109514     -3194.9910534933  1.50E-03
 Using HartreeLeadsBottom  -10.998942658000001     
 v_hartree_z_average(0)   4.9454530135959558E-004
    21 Broy./SMGL  0.30E+00   72.9     0.00142695     -3194.9909467809  1.07E-04
 Using HartreeLeadsBottom  -10.998942658000001     
 v_hartree_z_average(0)   4.9455250512288654E-004
    22 Broy./SMGL  0.30E+00   73.9     0.00142693     -3194.9907335337  2.13E-04
 Using HartreeLeadsBottom  -10.998942658000001     
 v_hartree_z_average(0)   4.9456043879286924E-004
    23 Broy./SMGL  0.30E+00   76.1     0.00142696     -3194.9907264986  7.04E-06
 Using HartreeLeadsBottom  -10.998942658000001     
 v_hartree_z_average(0)   4.9456778143138987E-004
    24 Broy./SMGL  0.30E+00   73.6     0.00142698     -3194.9905542133  1.72E-04
 Using HartreeLeadsBottom  -10.998942658000001     
 v_hartree_z_average(0)   4.9457087724423207E-004
    25 Broy./SMGL  0.30E+00   73.0     0.00045999     -3194.9906008935 -4.67E-05
 Using HartreeLeadsBottom  -10.998942658000001     
 v_hartree_z_average(0)   4.9457341911681146E-004
    26 Broy./SMGL  0.30E+00   72.9     0.00046000     -3194.9905195500  8.13E-05
 Using HartreeLeadsBottom  -10.998942658000001     
 v_hartree_z_average(0)   4.9457392180173552E-004
    27 Broy./SMGL  0.30E+00   72.1     0.00063109     -3194.9904046162  1.15E-04
 Using HartreeLeadsBottom  -10.998942658000001     
 v_hartree_z_average(0)   4.9457384939714127E-004
    28 Broy./SMGL  0.30E+00   79.4     0.00063111     -3194.9904319503 -2.73E-05
 Using HartreeLeadsBottom  -10.998942658000001     
 v_hartree_z_average(0)   4.9457346506499096E-004
    29 Broy./SMGL  0.30E+00   76.7     0.00063111     -3194.9903975817  3.44E-05
 Using HartreeLeadsBottom  -10.998942658000001     
 v_hartree_z_average(0)   4.9457343454673312E-004
    30 Broy./SMGL  0.30E+00   72.3     0.00059502     -3194.9904255424 -2.80E-05
 Using HartreeLeadsBottom  -10.998942658000001     
 v_hartree_z_average(0)   4.9457269673661370E-004
    31 Broy./SMGL  0.30E+00   72.5     0.00059503     -3194.9904236775  1.86E-06
 Using HartreeLeadsBottom  -10.998942658000001     
 v_hartree_z_average(0)   4.9457240209242965E-004
    32 Broy./SMGL  0.30E+00   72.2     0.00063110     -3194.9904376840 -1.40E-05
 Using HartreeLeadsBottom  -10.998942658000001     
 v_hartree_z_average(0)   4.9457222698727314E-004
    33 Broy./SMGL  0.30E+00   72.5     0.00063111     -3194.9904350413  2.64E-06
 Using HartreeLeadsBottom  -10.998942658000001     
 v_hartree_z_average(0)   4.9457212320244952E-004
    34 Broy./SMGL  0.30E+00   72.0     0.00063111     -3194.9904380156 -2.97E-06
 Using HartreeLeadsBottom  -10.998942658000001     
 v_hartree_z_average(0)   4.9457201077713611E-004
    35 Broy./SMGL  0.30E+00   71.7     0.00063111     -3194.9904367768  1.24E-06
 Using HartreeLeadsBottom  -10.998942658000001     
 v_hartree_z_average(0)   4.9457188319964283E-004
    36 Broy./SMGL  0.30E+00   71.8     0.00063111     -3194.9904360502  7.27E-07
 Using HartreeLeadsBottom  -10.998942658000001     
 v_hartree_z_average(0)   4.9457183190309206E-004
    37 Broy./SMGL  0.30E+00   71.5     0.00059502     -3194.9904377031 -1.65E-06
 Using HartreeLeadsBottom  -10.998942658000001     
 v_hartree_z_average(0)   4.9457180843901242E-004
    38 Broy./SMGL  0.30E+00   71.4     0.00063111     -3194.9904379757 -2.73E-07
 Using HartreeLeadsBottom  -10.998942658000001     
 v_hartree_z_average(0)   4.9457180399154138E-004
    39 Broy./SMGL  0.30E+00   72.0     0.00063111     -3194.9904390955 -1.12E-06
 Using HartreeLeadsBottom  -10.998942658000001     
 v_hartree_z_average(0)   4.9457180387039220E-004
    40 Broy./SMGL  0.30E+00   71.8     0.00063111     -3194.9904389664  1.29E-07
 Using HartreeLeadsBottom  -10.998942658000001     
 v_hartree_z_average(0)   4.9457180597347380E-004
    41 Broy./SMGL  0.30E+00   72.5     0.00063111     -3194.9904391399 -1.74E-07
 Using HartreeLeadsBottom  -10.998942658000001     
 v_hartree_z_average(0)   4.9457182026896849E-004
    42 Broy./SMGL  0.30E+00   71.7     0.00063111     -3194.9904393397 -2.00E-07
 Using HartreeLeadsBottom  -10.998942658000001     
 v_hartree_z_average(0)   4.9457182494655233E-004
    43 Broy./SMGL  0.30E+00   74.0     0.00063111     -3194.9904399488 -6.09E-07
 Using HartreeLeadsBottom  -10.998942658000001     
 v_hartree_z_average(0)   4.9457182258443684E-004
    44 Broy./SMGL  0.30E+00   71.8     0.00100899     -3194.9904399262  2.26E-08
 Using HartreeLeadsBottom  -10.998942658000001     
 v_hartree_z_average(0)   4.9457240540957525E-004
    45 Broy./SMGL  0.30E+00   71.9     0.00100916     -3194.9904504005 -1.05E-05
 Using HartreeLeadsBottom  -10.998942658000001     
 v_hartree_z_average(0)   4.9457233154570754E-004
    46 Broy./SMGL  0.30E+00   72.3     0.00063111     -3194.9904309488  1.95E-05
 Using HartreeLeadsBottom  -10.998942658000001     
 v_hartree_z_average(0)   4.9457227288749535E-004
    47 Broy./SMGL  0.30E+00   73.0     0.00059503     -3194.9904514266 -2.05E-05
 Using HartreeLeadsBottom  -10.998942658000001     
 v_hartree_z_average(0)   4.9457220008119747E-004
    48 Broy./SMGL  0.30E+00   72.7     0.00142696     -3194.9904411955  1.02E-05
 Using HartreeLeadsBottom  -10.998942658000001     
 v_hartree_z_average(0)   4.9457218852617360E-004
    49 Broy./SMGL  0.30E+00   72.4     0.00142696     -3194.9904375533  3.64E-06
 Using HartreeLeadsBottom  -10.998942658000001     
 v_hartree_z_average(0)   4.9457211198711661E-004
    50 Broy./SMGL  0.30E+00   72.4     0.00063111     -3194.9904361097  1.44E-06
 Using HartreeLeadsBottom  -10.998942658000001     
 v_hartree_z_average(0)   4.9457204867874353E-004
    51 Broy./SMGL  0.30E+00   72.5     0.00063111     -3194.9904384115 -2.30E-06
 Using HartreeLeadsBottom  -10.998942658000001     
 v_hartree_z_average(0)   4.9457193524374927E-004
    52 Broy./SMGL  0.30E+00   72.9     0.00063111     -3194.9904378318  5.80E-07
 Using HartreeLeadsBottom  -10.998942658000001     
 v_hartree_z_average(0)   4.9457191231138471E-004
    53 Broy./SMGL  0.30E+00   71.8     0.00063111     -3194.9904390399 -1.21E-06
 Using HartreeLeadsBottom  -10.998942658000001     
 v_hartree_z_average(0)   4.9457177739703636E-004
    54 Broy./SMGL  0.30E+00   73.7     0.00046000     -3194.9904358140  3.23E-06
 Using HartreeLeadsBottom  -10.998942658000001     
 v_hartree_z_average(0)   4.9457178270656218E-004
    55 Broy./SMGL  0.30E+00   72.8     0.00059502     -3194.9904390565 -3.24E-06
 Using HartreeLeadsBottom  -10.998942658000001     
 v_hartree_z_average(0)   4.9457176646183765E-004
    56 Broy./SMGL  0.30E+00   73.9     0.00000012     -3194.9904387966  2.60E-07
 Using HartreeLeadsBottom  -10.998942658000001     
 v_hartree_z_average(0)   4.9457174837944616E-004
    57 Broy./SMGL  0.30E+00   73.0     0.00059502     -3194.9904386956  1.01E-07
 Using HartreeLeadsBottom  -10.998942658000001     
 v_hartree_z_average(0)   4.9457178072291890E-004
    58 Broy./SMGL  0.30E+00   72.1     0.00063110     -3194.9904397942 -1.10E-06
 Using HartreeLeadsBottom  -10.998942658000001     
 v_hartree_z_average(0)   4.9457180857671694E-004
    59 Broy./SMGL  0.30E+00   72.5     0.00142693     -3194.9904399782 -1.84E-07
 Using HartreeLeadsBottom  -10.998942658000001     
 v_hartree_z_average(0)   4.9457180411102892E-004
    60 Broy./SMGL  0.30E+00   72.8     0.00142693     -3194.9904397420  2.36E-07
 Using HartreeLeadsBottom  -10.998942658000001     
 v_hartree_z_average(0)   4.9457179445660821E-004
    61 Broy./SMGL  0.30E+00   72.5     0.00063110     -3194.9904395197  2.22E-07
 Using HartreeLeadsBottom  -10.998942658000001     
 v_hartree_z_average(0)   4.9457179856335202E-004
    62 Broy./SMGL  0.30E+00   74.7     0.00046000     -3194.9904397294 -2.10E-07
 Using HartreeLeadsBottom  -10.998942658000001     
 v_hartree_z_average(0)   4.9457179786013741E-004
    63 Broy./SMGL  0.30E+00   72.0     0.00063111     -3194.9904398843 -1.55E-07
 Using HartreeLeadsBottom  -10.998942658000001     
 v_hartree_z_average(0)   4.9457179870782608E-004
    64 Broy./SMGL  0.30E+00   73.2     0.00000002     -3194.9904398747  9.61E-09

  *** SCF run converged in    64 steps ***


  Electronic density on regular grids:      -1056.0431370662       -0.0431370662
  Core density on regular grids:             1055.9999998266       -0.0000001734
  Total charge density on r-space grids:       -0.0431372395
  Total charge density g-space grids:          -0.0431372395

  Overlap energy of the core charge distribution:               0.00000029240347
  Self energy of the core charge distribution:              -5553.92051058537163
  Core Hamiltonian energy:                                   1758.96297260414167
  Hartree energy:                                            1097.38509328961050
  Exchange-correlation energy:                               -497.41799547548669
  Electronic entropic energy:                                   0.00000000000000
  Fermi energy:                                                 0.00000000000000

  Total energy:                                             -3194.99043987470259

 The electron density is written in cube file format to the file:

 V-ELECTRON_DENSITY-1_0.cube

 !-----------------------------------------------------------------------------!
                     Mulliken Population Analysis

 #  Atom  Element  Kind  Atomic population                           Net charge
       1     Au       1         10.999983                              0.000017
       2     Au       1         10.999984                              0.000016
       3     Au       1         10.999984                              0.000016
       4     Au       1         10.999984                              0.000016
       5     Au       1         10.999984                              0.000016
       6     Au       1         10.999984                              0.000016
       7     Au       1         10.999984                              0.000016
       8     Au       1         10.999984                              0.000016
       9     Au       1         10.999537                              0.000463
      10     Au       1         10.999537                              0.000463
      11     Au       1         10.999537                              0.000463
      12     Au       1         10.999537                              0.000463
      13     Au       1         10.999537                              0.000463
      14     Au       1         10.999537                              0.000463
      15     Au       1         10.999537                              0.000463
      16     Au       1         10.999537                              0.000463
      17     Au       1         10.996144                              0.003856
      18     Au       1         10.996144                              0.003856
      19     Au       1         10.996144                              0.003856
      20     Au       1         10.996144                              0.003856
      21     Au       1         10.996144                              0.003856
      22     Au       1         10.996145                              0.003855
      23     Au       1         10.996144                              0.003856
      24     Au       1         10.996144                              0.003856
      25     Au       1         10.977222                              0.022778
      26     Au       1         10.977222                              0.022778
      27     Au       1         10.977222                              0.022778
      28     Au       1         10.977223                              0.022777
      29     Au       1         10.977223                              0.022777
      30     Au       1         10.977223                              0.022777
      31     Au       1         10.977222                              0.022778
      32     Au       1         10.977223                              0.022777
      33     Au       1         10.956141                              0.043859
      34     Au       1         10.956141                              0.043859
      35     Au       1         10.956141                              0.043859
      36     Au       1         10.956141                              0.043859
      37     Au       1         10.956141                              0.043859
      38     Au       1         10.956141                              0.043859
      39     Au       1         10.956141                              0.043859
      40     Au       1         10.956141                              0.043859
      41     Au       1         11.079128                             -0.079128
      42     Au       1         11.079128                             -0.079128
      43     Au       1         11.079128                             -0.079128
      44     Au       1         11.079128                             -0.079128
      45     Au       1         11.079128                             -0.079128
      46     Au       1         11.079128                             -0.079128
      47     Au       1         11.079128                             -0.079128
      48     Au       1         11.079128                             -0.079128
      49     Au       1         11.069302                             -0.069302
      50     Au       1         11.069302                             -0.069302
      51     Au       1         11.069303                             -0.069303
      52     Au       1         11.069303                             -0.069303
      53     Au       1         11.069302                             -0.069302
      54     Au       1         11.069302                             -0.069302
      55     Au       1         11.069303                             -0.069303
      56     Au       1         11.069303                             -0.069303
      57     Au       1         10.955862                              0.044138
      58     Au       1         10.955862                              0.044138
      59     Au       1         10.955862                              0.044138
      60     Au       1         10.955862                              0.044138
      61     Au       1         10.955862                              0.044138
      62     Au       1         10.955862                              0.044138
      63     Au       1         10.955862                              0.044138
      64     Au       1         10.955862                              0.044138
      65     Au       1         10.976621                              0.023379
      66     Au       1         10.976621                              0.023379
      67     Au       1         10.976621                              0.023379
      68     Au       1         10.976621                              0.023379
      69     Au       1         10.976621                              0.023379
      70     Au       1         10.976622                              0.023378
      71     Au       1         10.976621                              0.023379
      72     Au       1         10.976621                              0.023379
      73     Au       1         10.995914                              0.004086
      74     Au       1         10.995914                              0.004086
      75     Au       1         10.995914                              0.004086
      76     Au       1         10.995915                              0.004085
      77     Au       1         10.995915                              0.004085
      78     Au       1         10.995915                              0.004085
      79     Au       1         10.995914                              0.004086
      80     Au       1         10.995915                              0.004085
      81     Au       1         10.999550                              0.000450
      82     Au       1         10.999551                              0.000449
      83     Au       1         10.999551                              0.000449
      84     Au       1         10.999551                              0.000449
      85     Au       1         10.999551                              0.000449
      86     Au       1         10.999551                              0.000449
      87     Au       1         10.999551                              0.000449
      88     Au       1         10.999551                              0.000449
      89     Au       1         10.999984                              0.000016
      90     Au       1         10.999984                              0.000016
      91     Au       1         10.999984                              0.000016
      92     Au       1         10.999984                              0.000016
      93     Au       1         10.999984                              0.000016
      94     Au       1         10.999984                              0.000016
      95     Au       1         10.999984                              0.000016
      96     Au       1         10.999984                              0.000016
 # Total charge                           1056.043138                 -0.043138

 !-----------------------------------------------------------------------------!

 !-----------------------------------------------------------------------------!
                           Hirshfeld Charges

  #Atom  Element  Kind  Ref Charge     Population                    Net charge
      1       Au     1      11.000         11.000                         0.000
      2       Au     1      11.000         11.000                         0.000
      3       Au     1      11.000         11.000                         0.000
      4       Au     1      11.000         11.000                         0.000
      5       Au     1      11.000         11.000                         0.000
      6       Au     1      11.000         11.000                        -0.000
      7       Au     1      11.000         11.000                         0.000
      8       Au     1      11.000         11.000                         0.000
      9       Au     1      11.000         11.000                        -0.000
     10       Au     1      11.000         11.000                        -0.000
     11       Au     1      11.000         11.000                        -0.000
     12       Au     1      11.000         11.000                        -0.000
     13       Au     1      11.000         11.000                        -0.000
     14       Au     1      11.000         11.000                        -0.000
     15       Au     1      11.000         11.000                        -0.000
     16       Au     1      11.000         11.000                        -0.000
     17       Au     1      11.000         11.002                        -0.002
     18       Au     1      11.000         11.002                        -0.002
     19       Au     1      11.000         11.002                        -0.002
     20       Au     1      11.000         11.002                        -0.002
     21       Au     1      11.000         11.002                        -0.002
     22       Au     1      11.000         11.002                        -0.002
     23       Au     1      11.000         11.002                        -0.002
     24       Au     1      11.000         11.002                        -0.002
     25       Au     1      11.000         10.995                         0.005
     26       Au     1      11.000         10.995                         0.005
     27       Au     1      11.000         10.995                         0.005
     28       Au     1      11.000         10.995                         0.005
     29       Au     1      11.000         10.995                         0.005
     30       Au     1      11.000         10.995                         0.005
     31       Au     1      11.000         10.995                         0.005
     32       Au     1      11.000         10.995                         0.005
     33       Au     1      11.000         10.986                         0.014
     34       Au     1      11.000         10.986                         0.014
     35       Au     1      11.000         10.986                         0.014
     36       Au     1      11.000         10.986                         0.014
     37       Au     1      11.000         10.986                         0.014
     38       Au     1      11.000         10.986                         0.014
     39       Au     1      11.000         10.986                         0.014
     40       Au     1      11.000         10.986                         0.014
     41       Au     1      11.000         11.025                        -0.025
     42       Au     1      11.000         11.025                        -0.025
     43       Au     1      11.000         11.025                        -0.025
     44       Au     1      11.000         11.025                        -0.025
     45       Au     1      11.000         11.025                        -0.025
     46       Au     1      11.000         11.025                        -0.025
     47       Au     1      11.000         11.025                        -0.025
     48       Au     1      11.000         11.025                        -0.025
     49       Au     1      11.000         11.017                        -0.017
     50       Au     1      11.000         11.017                        -0.017
     51       Au     1      11.000         11.017                        -0.017
     52       Au     1      11.000         11.017                        -0.017
     53       Au     1      11.000         11.017                        -0.017
     54       Au     1      11.000         11.017                        -0.017
     55       Au     1      11.000         11.017                        -0.017
     56       Au     1      11.000         11.017                        -0.017
     57       Au     1      11.000         10.985                         0.015
     58       Au     1      11.000         10.985                         0.015
     59       Au     1      11.000         10.985                         0.015
     60       Au     1      11.000         10.985                         0.015
     61       Au     1      11.000         10.985                         0.015
     62       Au     1      11.000         10.985                         0.015
     63       Au     1      11.000         10.985                         0.015
     64       Au     1      11.000         10.985                         0.015
     65       Au     1      11.000         10.993                         0.007
     66       Au     1      11.000         10.993                         0.007
     67       Au     1      11.000         10.993                         0.007
     68       Au     1      11.000         10.993                         0.007
     69       Au     1      11.000         10.993                         0.007
     70       Au     1      11.000         10.993                         0.007
     71       Au     1      11.000         10.993                         0.007
     72       Au     1      11.000         10.993                         0.007
     73       Au     1      11.000         11.002                        -0.002
     74       Au     1      11.000         11.002                        -0.002
     75       Au     1      11.000         11.002                        -0.002
     76       Au     1      11.000         11.002                        -0.002
     77       Au     1      11.000         11.002                        -0.002
     78       Au     1      11.000         11.002                        -0.002
     79       Au     1      11.000         11.002                        -0.002
     80       Au     1      11.000         11.002                        -0.002
     81       Au     1      11.000         11.000                        -0.000
     82       Au     1      11.000         11.000                        -0.000
     83       Au     1      11.000         11.000                        -0.000
     84       Au     1      11.000         11.000                        -0.000
     85       Au     1      11.000         11.000                        -0.000
     86       Au     1      11.000         11.000                        -0.000
     87       Au     1      11.000         11.000                        -0.000
     88       Au     1      11.000         11.000                        -0.000
     89       Au     1      11.000         11.000                         0.000
     90       Au     1      11.000         11.000                         0.000
     91       Au     1      11.000         11.000                         0.000
     92       Au     1      11.000         11.000                        -0.000
     93       Au     1      11.000         11.000                        -0.000
     94       Au     1      11.000         11.000                        -0.000
     95       Au     1      11.000         11.000                         0.000
     96       Au     1      11.000         11.000                        -0.000

  Total Charge                                                           -0.043
 !-----------------------------------------------------------------------------!
 Calculating transmission coefficient

 ENERGY| Total FORCE_EVAL ( QS ) energy [a.u.]:            -3194.990439874702588

 -------------------------------------------------------------------------------
 -                                                                             -
 -                                DBCSR STATISTICS                             -
 -                                                                             -
 -------------------------------------------------------------------------------
 COUNTER                                    TOTAL       BLAS       SMM       ACC
 flops inhomo. stacks                           0       0.0%      0.0%      0.0%
 flops total                         0.000000E+00       0.0%      0.0%      0.0%
 flops max/rank                      0.000000E+00       0.0%      0.0%      0.0%
 matmuls inhomo. stacks                         0       0.0%      0.0%      0.0%
 matmuls total                                  0       0.0%      0.0%      0.0%
 number of processed stacks                     0       0.0%      0.0%      0.0%
 average stack size                                     0.0       0.0       0.0
 marketing flops                     0.000000E+00
 -------------------------------------------------------------------------------
 -                                                                             -
 -                      DBCSR MESSAGE PASSING PERFORMANCE                      -
 -                                                                             -
 -------------------------------------------------------------------------------
 ROUTINE             CALLS      AVE VOLUME [Bytes]
 MP_Bcast                1                     12.
 MP_Allreduce         4243                      8.
 MP_Alltoall          3991                 170777.
 -------------------------------------------------------------------------------

 -------------------------------------------------------------------------------
 -                                                                             -
 -                                DBM STATISTICS                               -
 -                                                                             -
 -------------------------------------------------------------------------------
    M  x    N  x    K                                          COUNT     PERCENT
 -------------------------------------------------------------------------------

 -------------------------------------------------------------------------------
 -                                                                             -
 -                                GRID STATISTICS                              -
 -                                                                             -
 -------------------------------------------------------------------------------
 LP    KERNEL             BACKEND                              COUNT     PERCENT
 4     collocate ortho    REF                                5614960      48.68%
 4     integrate ortho    REF                                5528576      47.93%
 0     collocate general  REF                                 207360       1.80%
 0     integrate general  REF                                 184320       1.60%
 -------------------------------------------------------------------------------

 MEMORY| Estimated peak process memory [MiB]                                 890

 -------------------------------------------------------------------------------
 ----                             MULTIGRID INFO                            ----
 -------------------------------------------------------------------------------
 count for grid        1:          44768          cutoff [a.u.]          200.00
 count for grid        2:         136976          cutoff [a.u.]           66.67
 count for grid        3:          67088          cutoff [a.u.]           22.22
 count for grid        4:          67952          cutoff [a.u.]            7.41
 total gridlevel count  :         316784

 -------------------------------------------------------------------------------
 -                                                                             -
 -                         MESSAGE PASSING PERFORMANCE                         -
 -                                                                             -
 -------------------------------------------------------------------------------

 ROUTINE             CALLS      AVE VOLUME [Bytes]
 MP_Group                5
 MP_Bcast            47875                  10449.
 MP_Allreduce         4324                 826880.
 MP_Sync               778
 MP_Alltoall          1177              670132463.
 MP_ISendRecv        61662                   4000.
 MP_Wait             75999
 MP_ISend            20855                  36765.
 MP_IRecv            20953                  36607.
 MP_Recv              3432                 221184.
 MP_Write_All            2                 248850.
 -------------------------------------------------------------------------------


 -------------------------------------------------------------------------------
 -                                                                             -
 -                           R E F E R E N C E S                               -
 -                                                                             -
 -------------------------------------------------------------------------------
 
 CP2K version 2022.1 (Development Version), the CP2K developers group (2022).
 CP2K is freely available from https://www.cp2k.org/ .

 Kuehne,Thomas D.; Iannuzzi,Marcella; Del Ben,Mauro;
 Rybkin,Vladimir V.; Seewald,Patrick; Stein,Frederick; Laino,Teodoro;
 Khaliullin,Rustam Z.; Schuett,Ole; Schiffmann,Florian; Golze,Dorothea;
 Wilhelm,Jan; Chulkov,Sergey; Bani-Hashemian,Mohammad Hossein;
 Weber,Valery; Borstnik,Urban; Taillefumier,Mathieu;
 Jakobovits,Alice Shoshana; Lazzaro,Alfio; Pabst,Hans; Mueller,Tiziano;
 Schade,Robert; Guidon,Manuel; Andermatt,Samuel; Holmberg,Nico;
 Schenter,Gregory K.; Hehn,Anna; Bussy,Augustin; Belleflamme,Fabian;
 Tabacchi,Gloria; Gloess,Andreas; Lass,Michael; Bethune,Iain;
 Mundy,Christopher J.; Plessl,Christian; Watkins,Matt;
 VandeVondele,Joost; Krack,Matthias; Hutter,Juerg. 
 The Journal of Chemical Physics, 152 (19), (2020). 
 CP2K: An electronic structure and molecular dynamics software package -
 Quickstep: Efficient and accurate electronic structure calculations.
 https://doi.org/10.1063/5.0007045

 Togo, Atsushi; Tanaka, Isao. arXiv, 1808.01590 (2018). 
 Spglib : a software library for crystal symmetry search.
 https://doi.org/xxx

 Schuett, Ole; Messmer, Peter; Hutter, Juerg; VandeVondele, Joost. 
 Electronic Structure Calculations on Graphics Processing Units, John
 Wiley & Sons, Ltd, 173-190 (2016). 
 GPU-Accelerated Sparse Matrix-Matrix Multiplication for
 Linear Scaling Density Functional Theory.
 https://doi.org/10.1002/9781118670712.ch8

 Heinecke, A; Henry, G; Hutchinson, M; Pabst, H. 
 Proceedings of Intl. Supercomputing Conference, 981-991 (2016). 
 LIBXSMM: Accelerating Small Matrix Multiplications
 by Runtime Code Generation.
 https://doi.org/10.1109/SC.2016.83

 Borstnik, U; VandeVondele, J; Weber, V; Hutter, J. 
 PARALLEL COMPUTING, 40 (5-6), 47-58 (2014). 
 Sparse matrix multiplication: The distributed block-compressed sparse
 row library.
 https://doi.org/10.1016/j.parco.2014.03.012

 Hutter, J; Iannuzzi, M; Schiffmann, F; VandeVondele, J. 
 WIREs Comput Mol Sci., 4 (1), 15-25 (2014). 
 CP2K: atomistic simulations of condensed matter systems.
 https://doi.org/10.1002/wcms.1159

 VandeVondele, J; Hutter, J. 
 JOURNAL OF CHEMICAL PHYSICS, 127 (11), 114105 (2007). 
 Gaussian basis sets for accurate calculations on molecular systems in
 gas and condensed phases.
 https://doi.org/10.1063/1.2770708

 Krack, M. 
 THEORETICAL CHEMISTRY ACCOUNTS, 114 (1-3), 145-152 (2005). 
 Pseudopotentials for H to Kr optimized for gradient-corrected
 exchange-correlation functionals.
 https://doi.org/10.1007/s00214-005-0655-y

 VandeVondele, J; Krack, M; Mohamed, F; Parrinello, M; Chassaing, T;
 Hutter, J. COMPUTER PHYSICS COMMUNICATIONS, 167 (2), 103-128 (2005). 
 QUICKSTEP: Fast and accurate density functional calculations using a
 mixed Gaussian and plane waves approach.
 https://doi.org/10.1016/j.cpc.2004.12.014

 Frigo, M; Johnson, SG. 
 PROCEEDINGS OF THE IEEE, 93 (2), 216-231 (2005). 
 The design and implementation of FFTW3.
 https://doi.org/10.1109/JPROC.2004.840301

 Hartwigsen, C; Goedecker, S; Hutter, J. 
 PHYSICAL REVIEW B, 58 (7), 3641-3662 (1998). 
 Relativistic separable dual-space Gaussian pseudopotentials from H to Rn.
 https://doi.org/10.1103/PhysRevB.58.3641

 Lippert, G; Hutter, J; Parrinello, M. 
 MOLECULAR PHYSICS, 92 (3), 477-487 (1997). 
 A hybrid Gaussian and plane wave density functional scheme.
 https://doi.org/10.1080/002689797170220

 Goedecker, S; Teter, M; Hutter, J. 
 PHYSICAL REVIEW B, 54 (3), 1703-1710 (1996). 
 Separable dual-space Gaussian pseudopotentials.
 https://doi.org/10.1103/PhysRevB.54.1703


 -------------------------------------------------------------------------------
 -                                                                             -
 -                                T I M I N G                                  -
 -                                                                             -
 -------------------------------------------------------------------------------
 SUBROUTINE                       CALLS  ASD         SELF TIME        TOTAL TIME
                                MAXIMUM       AVERAGE  MAXIMUM  AVERAGE  MAXIMUM
 CP2K                                 1  1.0    1.295    1.667 4887.035 4887.062
 qs_energies                          1  2.0    0.000    0.001 4884.131 4884.233
 run_smeagol_emtrans                 65  6.0 4715.491 4761.075 4849.045 4857.507
 scf_env_do_scf                       1  3.0    0.000    0.001 4759.835 4759.906
 scf_env_do_scf_inner_loop           64  4.0    0.074    0.400 4759.834 4759.906
 qs_scf_new_mos_kp                   64  5.0    0.001    0.003 4734.244 4742.616
 -------------------------------------------------------------------------------

 The number of warnings for this run is : 0
 
 -------------------------------------------------------------------------------
  **** **** ******  **  PROGRAM ENDED AT                 2023-03-22 14:36:36.077
 ***** ** ***  *** **   PROGRAM RAN ON                     cn1029.scarf.rl.ac.uk
 **    ****   ******    PROGRAM RAN BY                                 scarf1157
 ***** **    ** ** **   PROGRAM PROCESS ID                                 48649
  **** **  *******  **  PROGRAM STOPPED IN /work4/scd/scarf1157/work/testing/cp2
                                           k-smeagol/bdt/cp2k/hollow-site/transp
                                           ort-cp2k/5-4/geometry-ordered/3x3-4/s
                                           z/bulk_layers-4/transmission/exp/capa
                                           citor/sergey-equal/auto/kpoints-20_te
                                           st/chris_kpoints-3-3-20_hlb-auto
