 DBCSR| CPU Multiplication driver                                           BLAS
 DBCSR| Multrec recursion limit                                              512
 DBCSR| Multiplication stack size                                           1000
 DBCSR| Maximum elements for images                                    UNLIMITED
 DBCSR| Multiplicative factor virtual images                                   1
 DBCSR| Use multiplication densification                                       T
 DBCSR| Multiplication size stacks                                             3
 DBCSR| Use memory pool for CPU allocation                                     F
 DBCSR| Number of 3D layers                                               SINGLE
 DBCSR| Use MPI memory allocation                                              F
 DBCSR| Use RMA algorithm                                                      F
 DBCSR| Use Communication thread                                               T
 DBCSR| Communication thread load                                             87
 DBCSR| MPI: My node id                                                        0
 DBCSR| MPI: Number of nodes                                                 128
 DBCSR| OMP: Current number of threads                                         1
 DBCSR| OMP: Max number of threads                                             1
 DBCSR| Split modifier for TAS multiplication algorithm                  1.0E+00


  **** **** ******  **  PROGRAM STARTED AT               2023-11-27 10:32:17.149
 ***** ** ***  *** **   PROGRAM STARTED ON                             nid001048
 **    ****   ******    PROGRAM STARTED BY                                cahart
 ***** **    ** ** **   PROGRAM PROCESS ID                                 82501
  **** **  *******  **  PROGRAM STARTED IN /mnt/lustre/a2fs-work2/work/e05/e05/c
                                           ahart/postdoc/transport/cp2k-smeagol-
                                           examples/benchmarking/cp2k-smeagol/au
                                           -bdt/NEnergReal-64_kpoints-1-1-20/bul
                                           k-sz-q1_em-sz-q11/atoms-3756/bulk

 CP2K| version string:                 CP2K version 2022.1 (Development Version)
 CP2K| source code revision number:                                  git:215a478
 CP2K| cp2kflags: omp libint fftw3 libxc elpa parallel mpi3 scalapack mkl       
 CP2K| is freely available from                            https://www.cp2k.org/
 CP2K| Program compiled at                          Mon 30 Oct 16:32:24 GMT 2023
 CP2K| Program compiled on                                                  ln03
 CP2K| Program compiled for                                                local
 CP2K| Data directory path    /work/e05/e05/cahart/smeagol/smgl/cp2k-private-ser
 CP2K| Input file name                                              1_bulkLR.inp

 GLOBAL| Force Environment number                                              1
 GLOBAL| Basis set file name                                        BASIS_MOLOPT
 GLOBAL| Potential file name                                      GTH_POTENTIALS
 GLOBAL| MM Potential file name                                     MM_POTENTIAL
 GLOBAL| Coordinate file name                                           bulk.xyz
 GLOBAL| Method name                                                        CP2K
 GLOBAL| Project name                                                       bulk
 GLOBAL| Run type                                                         ENERGY
 GLOBAL| FFT library                                                       FFTW3
 GLOBAL| Diagonalization library                                            ELPA
 GLOBAL| Minimum number of eigenvectors for ELPA usage                        16
 GLOBAL| Orthonormality check for eigenvectors                          DISABLED
 GLOBAL| Matrix multiplication library                                 ScaLAPACK
 GLOBAL| All-to-all communication in single precision                          F
 GLOBAL| FFTs using library dependent lengths                                  T
 GLOBAL| Grid backend                                                       AUTO
 GLOBAL| Global print level                                               MEDIUM
 GLOBAL| MPI I/O enabled                                                       T
 GLOBAL| Total number of message passing processes                           128
 GLOBAL| Number of threads for this process                                    1
 GLOBAL| This output is from process                                           0
 GLOBAL| Stack size for threads created by OpenMP (OMP_STACKSIZE)        default
 GLOBAL| CPU model name                          AMD EPYC 7742 64-Core Processor
 GLOBAL| CPUID                                                              1002

 MEMORY| system memory details [Kb]
 MEMORY|                        rank 0           min           max       average
 MEMORY| MemTotal            263341976     263341976     263341976     263341976
 MEMORY| MemFree             238691172     238691172     238691172     238691172
 MEMORY| Buffers                     0             0             0             0
 MEMORY| Cached                1552480       1552472       1552480       1552476
 MEMORY| Slab                  2948056       2948036       2948056       2948036
 MEMORY| SReclaimable           113240        113240        113240        113240
 MEMORY| MemLikelyFree       240356892     240356884     240356892     240356888


 *** Fundamental physical constants (SI units) ***

 *** Literature: B. J. Mohr and B. N. Taylor,
 ***             CODATA recommended values of the fundamental physical
 ***             constants: 2006, Web Version 5.1
 ***             http://physics.nist.gov/constants

 Speed of light in vacuum [m/s]                             2.99792458000000E+08
 Magnetic constant or permeability of vacuum [N/A**2]       1.25663706143592E-06
 Electric constant or permittivity of vacuum [F/m]          8.85418781762039E-12
 Planck constant (h) [J*s]                                  6.62606896000000E-34
 Planck constant (h-bar) [J*s]                              1.05457162825177E-34
 Elementary charge [C]                                      1.60217648700000E-19
 Electron mass [kg]                                         9.10938215000000E-31
 Electron g factor [ ]                                     -2.00231930436220E+00
 Proton mass [kg]                                           1.67262163700000E-27
 Fine-structure constant                                    7.29735253760000E-03
 Rydberg constant [1/m]                                     1.09737315685270E+07
 Avogadro constant [1/mol]                                  6.02214179000000E+23
 Boltzmann constant [J/K]                                   1.38065040000000E-23
 Atomic mass unit [kg]                                      1.66053878200000E-27
 Bohr radius [m]                                            5.29177208590000E-11

 *** Conversion factors ***

 [u] -> [a.u.]                                              1.82288848426455E+03
 [Angstrom] -> [Bohr] = [a.u.]                              1.88972613288564E+00
 [a.u.] = [Bohr] -> [Angstrom]                              5.29177208590000E-01
 [a.u.] -> [s]                                              2.41888432650478E-17
 [a.u.] -> [fs]                                             2.41888432650478E-02
 [a.u.] -> [J]                                              4.35974393937059E-18
 [a.u.] -> [N]                                              8.23872205491840E-08
 [a.u.] -> [K]                                              3.15774647902944E+05
 [a.u.] -> [kJ/mol]                                         2.62549961709828E+03
 [a.u.] -> [kcal/mol]                                       6.27509468713739E+02
 [a.u.] -> [Pa]                                             2.94210107994716E+13
 [a.u.] -> [bar]                                            2.94210107994716E+08
 [a.u.] -> [atm]                                            2.90362800883016E+08
 [a.u.] -> [eV]                                             2.72113838565563E+01
 [a.u.] -> [Hz]                                             6.57968392072181E+15
 [a.u.] -> [1/cm] (wave numbers)                            2.19474631370540E+05
 [a.u./Bohr**2] -> [1/cm]                                   5.14048714338585E+03
 

 CELL_TOP| Volume [angstrom^3]:                                     20524.868391
 CELL_TOP| Vector a [angstrom    49.752     0.000     0.000   |a| =    49.752000
 CELL_TOP| Vector b [angstrom     0.000    49.752     0.000   |b| =    49.752000
 CELL_TOP| Vector c [angstrom     0.000     0.000     8.292   |c| =     8.292000
 CELL_TOP| Angle (b,c), alpha [degree]:                                90.000000
 CELL_TOP| Angle (a,c), beta  [degree]:                                90.000000
 CELL_TOP| Angle (a,b), gamma [degree]:                                90.000000
 CELL_TOP| Numerically orthorhombic:                                         YES
 CELL_TOP| Periodicity                                                       XYZ

 GENERATE|  Preliminary Number of Bonds generated:                             0
 GENERATE|  Achieved consistency in connectivity generation.

 CELL| Volume [angstrom^3]:                                         20524.868391
 CELL| Vector a [angstrom]:      49.752     0.000     0.000   |a| =    49.752000
 CELL| Vector b [angstrom]:       0.000    49.752     0.000   |b| =    49.752000
 CELL| Vector c [angstrom]:       0.000     0.000     8.292   |c| =     8.292000
 CELL| Angle (b,c), alpha [degree]:                                    90.000000
 CELL| Angle (a,c), beta  [degree]:                                    90.000000
 CELL| Angle (a,b), gamma [degree]:                                    90.000000
 CELL| Numerically orthorhombic:                                             YES
 CELL| Periodicity                                                           XYZ

 CELL_REF| Volume [angstrom^3]:                                     20524.868391
 CELL_REF| Vector a [angstrom    49.752     0.000     0.000   |a| =    49.752000
 CELL_REF| Vector b [angstrom     0.000    49.752     0.000   |b| =    49.752000
 CELL_REF| Vector c [angstrom     0.000     0.000     8.292   |c| =     8.292000
 CELL_REF| Angle (b,c), alpha [degree]:                                90.000000
 CELL_REF| Angle (a,c), beta  [degree]:                                90.000000
 CELL_REF| Angle (a,b), gamma [degree]:                                90.000000
 CELL_REF| Numerically orthorhombic:                                         YES
 CELL_REF| Periodicity                                                       XYZ

 *** WARNING in cryssym.F:165 :: Symmetry library SPGLIB not available ***


 *******************************************************************************
                                    Kpoints
 *******************************************************************************
 BRILLOUIN| K-point scheme                                        Monkhorst-Pack
 BRILLOUIN| K-Point grid                                             1    1   20
 BRILLOUIN| Accuracy in Symmetry determination                      0.100000E-07
 BRILLOUIN| K-Point point group symmetrization                               OFF
 BRILLOUIN| Wavefunction type                                            COMPLEX
 BRILLOUIN| Use full k-point grid     
 BRILLOUIN| List of Kpoints [2 Pi/Bohr]                                       20
 BRILLOUIN| Number           Weight            X              Y              Z
 BRILLOUIN|     1           0.05000        0.00000        0.00000       -0.47500
 BRILLOUIN|     2           0.05000        0.00000        0.00000       -0.42500
 BRILLOUIN|     3           0.05000        0.00000        0.00000       -0.37500
 BRILLOUIN|     4           0.05000        0.00000        0.00000       -0.32500
 BRILLOUIN|     5           0.05000        0.00000        0.00000       -0.27500
 BRILLOUIN|     6           0.05000        0.00000        0.00000       -0.22500
 BRILLOUIN|     7           0.05000        0.00000        0.00000       -0.17500
 BRILLOUIN|     8           0.05000        0.00000        0.00000       -0.12500
 BRILLOUIN|     9           0.05000        0.00000        0.00000       -0.07500
 BRILLOUIN|    10           0.05000        0.00000        0.00000       -0.02500
 BRILLOUIN|    11           0.05000        0.00000        0.00000        0.02500
 BRILLOUIN|    12           0.05000        0.00000        0.00000        0.07500
 BRILLOUIN|    13           0.05000        0.00000        0.00000        0.12500
 BRILLOUIN|    14           0.05000        0.00000        0.00000        0.17500
 BRILLOUIN|    15           0.05000        0.00000        0.00000        0.22500
 BRILLOUIN|    16           0.05000        0.00000        0.00000        0.27500
 BRILLOUIN|    17           0.05000        0.00000        0.00000        0.32500
 BRILLOUIN|    18           0.05000        0.00000        0.00000        0.37500
 BRILLOUIN|    19           0.05000        0.00000        0.00000        0.42500
 BRILLOUIN|    20           0.05000        0.00000        0.00000        0.47500
 *******************************************************************************

 *******************************************************************************
 *******************************************************************************
 **                                                                           **
 **     #####                         ##              ##                      **
 **    ##   ##            ##          ##              ##                      **
 **   ##     ##                       ##            ######                    **
 **   ##     ##  ##   ##  ##   #####  ##  ##   ####   ##    #####    #####    **
 **   ##     ##  ##   ##  ##  ##      ## ##   ##      ##   ##   ##  ##   ##   **
 **   ##  ## ##  ##   ##  ##  ##      ####     ###    ##   ######   ######    **
 **    ##  ###   ##   ##  ##  ##      ## ##      ##   ##   ##       ##        **
 **     #######   #####   ##   #####  ##  ##  ####    ##    #####   ##        **
 **           ##                                                    ##        **
 **                                                                           **
 **                                                ... make the atoms dance   **
 **                                                                           **
 **            Copyright (C) by CP2K developers group (2000-2022)             **
 **                      J. Chem. Phys. 152, 194103 (2020)                    **
 **                                                                           **
 *******************************************************************************

 DFT| Spin restricted Kohn-Sham (RKS) calculation                            RKS
 DFT| Multiplicity                                                             1
 DFT| Number of spin states                                                    1
 DFT| Charge                                                                   0
 DFT| Self-interaction correction (SIC)                                       NO
 DFT| Cutoffs: density                                              1.000000E-10
 DFT|          gradient                                             1.000000E-10
 DFT|          tau                                                  1.000000E-10
 DFT|          cutoff_smoothing_range                               0.000000E+00
 DFT| XC density smoothing                                                  NONE
 DFT| XC derivatives                                                          PW

 FUNCTIONAL| PADE:
 FUNCTIONAL| S. Goedecker, M. Teter and J. Hutter, Phys. Rev. B 54, 1703 (1996) 


 QS| Method:                                                                 GPW
 QS| Density plane wave grid type                        NON-SPHERICAL FULLSPACE
 QS| Number of grid levels:                                                    4
 QS| Density cutoff [a.u.]:                                                200.0
 QS| Multi grid cutoff [a.u.]: 1) grid level                               200.0
 QS|                           2) grid level                                66.7
 QS|                           3) grid level                                22.2
 QS|                           4) grid level                                 7.4
 QS| Grid level progression factor:                                          3.0
 QS| Relative density cutoff [a.u.]:                                        20.0
 QS| Interaction thresholds: eps_pgf_orb:                                1.0E-05
 QS|                         eps_filter_matrix:                          0.0E+00
 QS|                         eps_core_charge:                            1.0E-12
 QS|                         eps_rho_gspace:                             1.0E-10
 QS|                         eps_rho_rspace:                             1.0E-10
 QS|                         eps_gvg_rspace:                             1.0E-05
 QS|                         eps_ppl:                                    1.0E-02
 QS|                         eps_ppnl:                                   1.0E-07


 ATOMIC KIND INFORMATION

  1. Atomic kind: Au_bulk                               Number of atoms:    1152

     Orbital Basis Set                                             SZV-CUSTOM-q1

       Number of orbital shell sets:                                           1
       Number of orbital shells:                                               1
       Number of primitive Cartesian functions:                                5
       Number of Cartesian basis functions:                                    1
       Number of spherical basis functions:                                    1
       Norm type:                                                              2

       Normalised Cartesian orbitals:

                        Set   Shell   Orbital            Exponent    Coefficient

                          1       1    1s                0.888736      -1.612085
                                                         0.793745       3.367506
                                                         0.708932      -1.928374
                                                         0.148335       0.135826
                                                         0.053004       0.035222

       Atomic covalent radius [Angstrom]:                                  1.340

       Atomic van der Waals radius [Angstrom]:                             1.660

     GTH Potential information for                                   GTH-PADE-q1

       Description:                       Goedecker-Teter-Hutter pseudopotential
                                           Goedecker et al., PRB 54, 1703 (1996)
                                          Hartwigsen et al., PRB 58, 3641 (1998)
                                                      Krack, TCA 114, 145 (2005)

       Gaussian exponent of the core charge distribution:               1.183432
       Electronic configuration (s p d ...):                                   1

       Parameters of the local part of the GTH pseudopotential:

                          rloc        C1          C2          C3          C4
                        0.650000   -1.963712   -1.698123

       Parameters of the non-local part of the GTH pseudopotential:

                   l      r(l)      h(i,j,l)

                   0    0.919308    1.539599    0.181557   -0.193238
                                    0.181557   -0.468779    0.498938
                                   -0.193238    0.498938   -0.792039
                   1    1.140351    0.471229    0.210248   -0.062360
                                    0.210248   -0.497538    0.147570
                                   -0.062360    0.147570   -0.209758


 MOLECULE KIND INFORMATION


 All atoms are their own molecule, skipping detailed information


 TOTAL NUMBERS AND MAXIMUM NUMBERS

  Total number of            - Atomic kinds:                                   1
                             - Atoms:                                       1152
                             - Shell sets:                                  1152
                             - Shells:                                      1152
                             - Primitive Cartesian functions:               5760
                             - Cartesian basis functions:                   1152
                             - Spherical basis functions:                   1152

  Maximum angular momentum of- Orbital basis functions:                        0
                             - Local part of the GTH pseudopotential:          2
                             - Non-local part of the GTH pseudopotential:      5


 MODULE QUICKSTEP: ATOMIC COORDINATES IN ANGSTROM

   Atom Kind Element         X             Y             Z       Z(eff)     Mass
      1    1 Au   79      0.000000      0.000000      0.000000   1.0000 196.9666
      2    1 Au   79      2.073000      2.073000      0.000000   1.0000 196.9666
      3    1 Au   79      2.073000      0.000000      2.073000   1.0000 196.9666
      4    1 Au   79      0.000000      2.073000      2.073000   1.0000 196.9666
      5    1 Au   79      0.000000      4.146000      0.000000   1.0000 196.9666
      6    1 Au   79      2.073000      6.219000      0.000000   1.0000 196.9666
      7    1 Au   79      2.073000      4.146000      2.073000   1.0000 196.9666
      8    1 Au   79      0.000000      6.219000      2.073000   1.0000 196.9666
      9    1 Au   79      0.000000      8.292000      0.000000   1.0000 196.9666
     10    1 Au   79      2.073000     10.365000      0.000000   1.0000 196.9666
     11    1 Au   79      2.073000      8.292000      2.073000   1.0000 196.9666
     12    1 Au   79      0.000000     10.365000      2.073000   1.0000 196.9666
     13    1 Au   79      0.000000     12.438000      0.000000   1.0000 196.9666
     14    1 Au   79      2.073000     14.511000      0.000000   1.0000 196.9666
     15    1 Au   79      2.073000     12.438000      2.073000   1.0000 196.9666
     16    1 Au   79      0.000000     14.511000      2.073000   1.0000 196.9666
     17    1 Au   79      0.000000     16.584000      0.000000   1.0000 196.9666
     18    1 Au   79      2.073000     18.657000      0.000000   1.0000 196.9666
     19    1 Au   79      2.073000     16.584000      2.073000   1.0000 196.9666
     20    1 Au   79      0.000000     18.657000      2.073000   1.0000 196.9666
     21    1 Au   79      0.000000     20.730000      0.000000   1.0000 196.9666
     22    1 Au   79      2.073000     22.803000      0.000000   1.0000 196.9666
     23    1 Au   79      2.073000     20.730000      2.073000   1.0000 196.9666
     24    1 Au   79      0.000000     22.803000      2.073000   1.0000 196.9666
     25    1 Au   79      0.000000     24.876000      0.000000   1.0000 196.9666
     26    1 Au   79      2.073000     26.949000      0.000000   1.0000 196.9666
     27    1 Au   79      2.073000     24.876000      2.073000   1.0000 196.9666
     28    1 Au   79      0.000000     26.949000      2.073000   1.0000 196.9666
     29    1 Au   79      0.000000     29.022000      0.000000   1.0000 196.9666
     30    1 Au   79      2.073000     31.095000      0.000000   1.0000 196.9666
     31    1 Au   79      2.073000     29.022000      2.073000   1.0000 196.9666
     32    1 Au   79      0.000000     31.095000      2.073000   1.0000 196.9666
     33    1 Au   79      0.000000     33.168000      0.000000   1.0000 196.9666
     34    1 Au   79      2.073000     35.241000      0.000000   1.0000 196.9666
     35    1 Au   79      2.073000     33.168000      2.073000   1.0000 196.9666
     36    1 Au   79      0.000000     35.241000      2.073000   1.0000 196.9666
     37    1 Au   79      0.000000     37.314000      0.000000   1.0000 196.9666
     38    1 Au   79      2.073000     39.387000      0.000000   1.0000 196.9666
     39    1 Au   79      2.073000     37.314000      2.073000   1.0000 196.9666
     40    1 Au   79      0.000000     39.387000      2.073000   1.0000 196.9666
     41    1 Au   79      0.000000     41.460000      0.000000   1.0000 196.9666
     42    1 Au   79      2.073000     43.533000      0.000000   1.0000 196.9666
     43    1 Au   79      2.073000     41.460000      2.073000   1.0000 196.9666
     44    1 Au   79      0.000000     43.533000      2.073000   1.0000 196.9666
     45    1 Au   79      0.000000     45.606000      0.000000   1.0000 196.9666
     46    1 Au   79      2.073000     47.679000      0.000000   1.0000 196.9666
     47    1 Au   79      2.073000     45.606000      2.073000   1.0000 196.9666
     48    1 Au   79      0.000000     47.679000      2.073000   1.0000 196.9666
     49    1 Au   79      4.146000      0.000000      0.000000   1.0000 196.9666
     50    1 Au   79      6.219000      2.073000      0.000000   1.0000 196.9666
     51    1 Au   79      6.219000      0.000000      2.073000   1.0000 196.9666
     52    1 Au   79      4.146000      2.073000      2.073000   1.0000 196.9666
     53    1 Au   79      4.146000      4.146000      0.000000   1.0000 196.9666
     54    1 Au   79      6.219000      6.219000      0.000000   1.0000 196.9666
     55    1 Au   79      6.219000      4.146000      2.073000   1.0000 196.9666
     56    1 Au   79      4.146000      6.219000      2.073000   1.0000 196.9666
     57    1 Au   79      4.146000      8.292000      0.000000   1.0000 196.9666
     58    1 Au   79      6.219000     10.365000      0.000000   1.0000 196.9666
     59    1 Au   79      6.219000      8.292000      2.073000   1.0000 196.9666
     60    1 Au   79      4.146000     10.365000      2.073000   1.0000 196.9666
     61    1 Au   79      4.146000     12.438000      0.000000   1.0000 196.9666
     62    1 Au   79      6.219000     14.511000      0.000000   1.0000 196.9666
     63    1 Au   79      6.219000     12.438000      2.073000   1.0000 196.9666
     64    1 Au   79      4.146000     14.511000      2.073000   1.0000 196.9666
     65    1 Au   79      4.146000     16.584000      0.000000   1.0000 196.9666
     66    1 Au   79      6.219000     18.657000      0.000000   1.0000 196.9666
     67    1 Au   79      6.219000     16.584000      2.073000   1.0000 196.9666
     68    1 Au   79      4.146000     18.657000      2.073000   1.0000 196.9666
     69    1 Au   79      4.146000     20.730000      0.000000   1.0000 196.9666
     70    1 Au   79      6.219000     22.803000      0.000000   1.0000 196.9666
     71    1 Au   79      6.219000     20.730000      2.073000   1.0000 196.9666
     72    1 Au   79      4.146000     22.803000      2.073000   1.0000 196.9666
     73    1 Au   79      4.146000     24.876000      0.000000   1.0000 196.9666
     74    1 Au   79      6.219000     26.949000      0.000000   1.0000 196.9666
     75    1 Au   79      6.219000     24.876000      2.073000   1.0000 196.9666
     76    1 Au   79      4.146000     26.949000      2.073000   1.0000 196.9666
     77    1 Au   79      4.146000     29.022000      0.000000   1.0000 196.9666
     78    1 Au   79      6.219000     31.095000      0.000000   1.0000 196.9666
     79    1 Au   79      6.219000     29.022000      2.073000   1.0000 196.9666
     80    1 Au   79      4.146000     31.095000      2.073000   1.0000 196.9666
     81    1 Au   79      4.146000     33.168000      0.000000   1.0000 196.9666
     82    1 Au   79      6.219000     35.241000      0.000000   1.0000 196.9666
     83    1 Au   79      6.219000     33.168000      2.073000   1.0000 196.9666
     84    1 Au   79      4.146000     35.241000      2.073000   1.0000 196.9666
     85    1 Au   79      4.146000     37.314000      0.000000   1.0000 196.9666
     86    1 Au   79      6.219000     39.387000      0.000000   1.0000 196.9666
     87    1 Au   79      6.219000     37.314000      2.073000   1.0000 196.9666
     88    1 Au   79      4.146000     39.387000      2.073000   1.0000 196.9666
     89    1 Au   79      4.146000     41.460000      0.000000   1.0000 196.9666
     90    1 Au   79      6.219000     43.533000      0.000000   1.0000 196.9666
     91    1 Au   79      6.219000     41.460000      2.073000   1.0000 196.9666
     92    1 Au   79      4.146000     43.533000      2.073000   1.0000 196.9666
     93    1 Au   79      4.146000     45.606000      0.000000   1.0000 196.9666
     94    1 Au   79      6.219000     47.679000      0.000000   1.0000 196.9666
     95    1 Au   79      6.219000     45.606000      2.073000   1.0000 196.9666
     96    1 Au   79      4.146000     47.679000      2.073000   1.0000 196.9666
     97    1 Au   79      8.292000      0.000000      0.000000   1.0000 196.9666
     98    1 Au   79     10.365000      2.073000      0.000000   1.0000 196.9666
     99    1 Au   79     10.365000      0.000000      2.073000   1.0000 196.9666
    100    1 Au   79      8.292000      2.073000      2.073000   1.0000 196.9666
    101    1 Au   79      8.292000      4.146000      0.000000   1.0000 196.9666
    102    1 Au   79     10.365000      6.219000      0.000000   1.0000 196.9666
    103    1 Au   79     10.365000      4.146000      2.073000   1.0000 196.9666
    104    1 Au   79      8.292000      6.219000      2.073000   1.0000 196.9666
    105    1 Au   79      8.292000      8.292000      0.000000   1.0000 196.9666
    106    1 Au   79     10.365000     10.365000      0.000000   1.0000 196.9666
    107    1 Au   79     10.365000      8.292000      2.073000   1.0000 196.9666
    108    1 Au   79      8.292000     10.365000      2.073000   1.0000 196.9666
    109    1 Au   79      8.292000     12.438000      0.000000   1.0000 196.9666
    110    1 Au   79     10.365000     14.511000      0.000000   1.0000 196.9666
    111    1 Au   79     10.365000     12.438000      2.073000   1.0000 196.9666
    112    1 Au   79      8.292000     14.511000      2.073000   1.0000 196.9666
    113    1 Au   79      8.292000     16.584000      0.000000   1.0000 196.9666
    114    1 Au   79     10.365000     18.657000      0.000000   1.0000 196.9666
    115    1 Au   79     10.365000     16.584000      2.073000   1.0000 196.9666
    116    1 Au   79      8.292000     18.657000      2.073000   1.0000 196.9666
    117    1 Au   79      8.292000     20.730000      0.000000   1.0000 196.9666
    118    1 Au   79     10.365000     22.803000      0.000000   1.0000 196.9666
    119    1 Au   79     10.365000     20.730000      2.073000   1.0000 196.9666
    120    1 Au   79      8.292000     22.803000      2.073000   1.0000 196.9666
    121    1 Au   79      8.292000     24.876000      0.000000   1.0000 196.9666
    122    1 Au   79     10.365000     26.949000      0.000000   1.0000 196.9666
    123    1 Au   79     10.365000     24.876000      2.073000   1.0000 196.9666
    124    1 Au   79      8.292000     26.949000      2.073000   1.0000 196.9666
    125    1 Au   79      8.292000     29.022000      0.000000   1.0000 196.9666
    126    1 Au   79     10.365000     31.095000      0.000000   1.0000 196.9666
    127    1 Au   79     10.365000     29.022000      2.073000   1.0000 196.9666
    128    1 Au   79      8.292000     31.095000      2.073000   1.0000 196.9666
    129    1 Au   79      8.292000     33.168000      0.000000   1.0000 196.9666
    130    1 Au   79     10.365000     35.241000      0.000000   1.0000 196.9666
    131    1 Au   79     10.365000     33.168000      2.073000   1.0000 196.9666
    132    1 Au   79      8.292000     35.241000      2.073000   1.0000 196.9666
    133    1 Au   79      8.292000     37.314000      0.000000   1.0000 196.9666
    134    1 Au   79     10.365000     39.387000      0.000000   1.0000 196.9666
    135    1 Au   79     10.365000     37.314000      2.073000   1.0000 196.9666
    136    1 Au   79      8.292000     39.387000      2.073000   1.0000 196.9666
    137    1 Au   79      8.292000     41.460000      0.000000   1.0000 196.9666
    138    1 Au   79     10.365000     43.533000      0.000000   1.0000 196.9666
    139    1 Au   79     10.365000     41.460000      2.073000   1.0000 196.9666
    140    1 Au   79      8.292000     43.533000      2.073000   1.0000 196.9666
    141    1 Au   79      8.292000     45.606000      0.000000   1.0000 196.9666
    142    1 Au   79     10.365000     47.679000      0.000000   1.0000 196.9666
    143    1 Au   79     10.365000     45.606000      2.073000   1.0000 196.9666
    144    1 Au   79      8.292000     47.679000      2.073000   1.0000 196.9666
    145    1 Au   79     12.438000      0.000000      0.000000   1.0000 196.9666
    146    1 Au   79     14.511000      2.073000      0.000000   1.0000 196.9666
    147    1 Au   79     14.511000      0.000000      2.073000   1.0000 196.9666
    148    1 Au   79     12.438000      2.073000      2.073000   1.0000 196.9666
    149    1 Au   79     12.438000      4.146000      0.000000   1.0000 196.9666
    150    1 Au   79     14.511000      6.219000      0.000000   1.0000 196.9666
    151    1 Au   79     14.511000      4.146000      2.073000   1.0000 196.9666
    152    1 Au   79     12.438000      6.219000      2.073000   1.0000 196.9666
    153    1 Au   79     12.438000      8.292000      0.000000   1.0000 196.9666
    154    1 Au   79     14.511000     10.365000      0.000000   1.0000 196.9666
    155    1 Au   79     14.511000      8.292000      2.073000   1.0000 196.9666
    156    1 Au   79     12.438000     10.365000      2.073000   1.0000 196.9666
    157    1 Au   79     12.438000     12.438000      0.000000   1.0000 196.9666
    158    1 Au   79     14.511000     14.511000      0.000000   1.0000 196.9666
    159    1 Au   79     14.511000     12.438000      2.073000   1.0000 196.9666
    160    1 Au   79     12.438000     14.511000      2.073000   1.0000 196.9666
    161    1 Au   79     12.438000     16.584000      0.000000   1.0000 196.9666
    162    1 Au   79     14.511000     18.657000      0.000000   1.0000 196.9666
    163    1 Au   79     14.511000     16.584000      2.073000   1.0000 196.9666
    164    1 Au   79     12.438000     18.657000      2.073000   1.0000 196.9666
    165    1 Au   79     12.438000     20.730000      0.000000   1.0000 196.9666
    166    1 Au   79     14.511000     22.803000      0.000000   1.0000 196.9666
    167    1 Au   79     14.511000     20.730000      2.073000   1.0000 196.9666
    168    1 Au   79     12.438000     22.803000      2.073000   1.0000 196.9666
    169    1 Au   79     12.438000     24.876000      0.000000   1.0000 196.9666
    170    1 Au   79     14.511000     26.949000      0.000000   1.0000 196.9666
    171    1 Au   79     14.511000     24.876000      2.073000   1.0000 196.9666
    172    1 Au   79     12.438000     26.949000      2.073000   1.0000 196.9666
    173    1 Au   79     12.438000     29.022000      0.000000   1.0000 196.9666
    174    1 Au   79     14.511000     31.095000      0.000000   1.0000 196.9666
    175    1 Au   79     14.511000     29.022000      2.073000   1.0000 196.9666
    176    1 Au   79     12.438000     31.095000      2.073000   1.0000 196.9666
    177    1 Au   79     12.438000     33.168000      0.000000   1.0000 196.9666
    178    1 Au   79     14.511000     35.241000      0.000000   1.0000 196.9666
    179    1 Au   79     14.511000     33.168000      2.073000   1.0000 196.9666
    180    1 Au   79     12.438000     35.241000      2.073000   1.0000 196.9666
    181    1 Au   79     12.438000     37.314000      0.000000   1.0000 196.9666
    182    1 Au   79     14.511000     39.387000      0.000000   1.0000 196.9666
    183    1 Au   79     14.511000     37.314000      2.073000   1.0000 196.9666
    184    1 Au   79     12.438000     39.387000      2.073000   1.0000 196.9666
    185    1 Au   79     12.438000     41.460000      0.000000   1.0000 196.9666
    186    1 Au   79     14.511000     43.533000      0.000000   1.0000 196.9666
    187    1 Au   79     14.511000     41.460000      2.073000   1.0000 196.9666
    188    1 Au   79     12.438000     43.533000      2.073000   1.0000 196.9666
    189    1 Au   79     12.438000     45.606000      0.000000   1.0000 196.9666
    190    1 Au   79     14.511000     47.679000      0.000000   1.0000 196.9666
    191    1 Au   79     14.511000     45.606000      2.073000   1.0000 196.9666
    192    1 Au   79     12.438000     47.679000      2.073000   1.0000 196.9666
    193    1 Au   79     16.584000      0.000000      0.000000   1.0000 196.9666
    194    1 Au   79     18.657000      2.073000      0.000000   1.0000 196.9666
    195    1 Au   79     18.657000      0.000000      2.073000   1.0000 196.9666
    196    1 Au   79     16.584000      2.073000      2.073000   1.0000 196.9666
    197    1 Au   79     16.584000      4.146000      0.000000   1.0000 196.9666
    198    1 Au   79     18.657000      6.219000      0.000000   1.0000 196.9666
    199    1 Au   79     18.657000      4.146000      2.073000   1.0000 196.9666
    200    1 Au   79     16.584000      6.219000      2.073000   1.0000 196.9666
    201    1 Au   79     16.584000      8.292000      0.000000   1.0000 196.9666
    202    1 Au   79     18.657000     10.365000      0.000000   1.0000 196.9666
    203    1 Au   79     18.657000      8.292000      2.073000   1.0000 196.9666
    204    1 Au   79     16.584000     10.365000      2.073000   1.0000 196.9666
    205    1 Au   79     16.584000     12.438000      0.000000   1.0000 196.9666
    206    1 Au   79     18.657000     14.511000      0.000000   1.0000 196.9666
    207    1 Au   79     18.657000     12.438000      2.073000   1.0000 196.9666
    208    1 Au   79     16.584000     14.511000      2.073000   1.0000 196.9666
    209    1 Au   79     16.584000     16.584000      0.000000   1.0000 196.9666
    210    1 Au   79     18.657000     18.657000      0.000000   1.0000 196.9666
    211    1 Au   79     18.657000     16.584000      2.073000   1.0000 196.9666
    212    1 Au   79     16.584000     18.657000      2.073000   1.0000 196.9666
    213    1 Au   79     16.584000     20.730000      0.000000   1.0000 196.9666
    214    1 Au   79     18.657000     22.803000      0.000000   1.0000 196.9666
    215    1 Au   79     18.657000     20.730000      2.073000   1.0000 196.9666
    216    1 Au   79     16.584000     22.803000      2.073000   1.0000 196.9666
    217    1 Au   79     16.584000     24.876000      0.000000   1.0000 196.9666
    218    1 Au   79     18.657000     26.949000      0.000000   1.0000 196.9666
    219    1 Au   79     18.657000     24.876000      2.073000   1.0000 196.9666
    220    1 Au   79     16.584000     26.949000      2.073000   1.0000 196.9666
    221    1 Au   79     16.584000     29.022000      0.000000   1.0000 196.9666
    222    1 Au   79     18.657000     31.095000      0.000000   1.0000 196.9666
    223    1 Au   79     18.657000     29.022000      2.073000   1.0000 196.9666
    224    1 Au   79     16.584000     31.095000      2.073000   1.0000 196.9666
    225    1 Au   79     16.584000     33.168000      0.000000   1.0000 196.9666
    226    1 Au   79     18.657000     35.241000      0.000000   1.0000 196.9666
    227    1 Au   79     18.657000     33.168000      2.073000   1.0000 196.9666
    228    1 Au   79     16.584000     35.241000      2.073000   1.0000 196.9666
    229    1 Au   79     16.584000     37.314000      0.000000   1.0000 196.9666
    230    1 Au   79     18.657000     39.387000      0.000000   1.0000 196.9666
    231    1 Au   79     18.657000     37.314000      2.073000   1.0000 196.9666
    232    1 Au   79     16.584000     39.387000      2.073000   1.0000 196.9666
    233    1 Au   79     16.584000     41.460000      0.000000   1.0000 196.9666
    234    1 Au   79     18.657000     43.533000      0.000000   1.0000 196.9666
    235    1 Au   79     18.657000     41.460000      2.073000   1.0000 196.9666
    236    1 Au   79     16.584000     43.533000      2.073000   1.0000 196.9666
    237    1 Au   79     16.584000     45.606000      0.000000   1.0000 196.9666
    238    1 Au   79     18.657000     47.679000      0.000000   1.0000 196.9666
    239    1 Au   79     18.657000     45.606000      2.073000   1.0000 196.9666
    240    1 Au   79     16.584000     47.679000      2.073000   1.0000 196.9666
    241    1 Au   79     20.730000      0.000000      0.000000   1.0000 196.9666
    242    1 Au   79     22.803000      2.073000      0.000000   1.0000 196.9666
    243    1 Au   79     22.803000      0.000000      2.073000   1.0000 196.9666
    244    1 Au   79     20.730000      2.073000      2.073000   1.0000 196.9666
    245    1 Au   79     20.730000      4.146000      0.000000   1.0000 196.9666
    246    1 Au   79     22.803000      6.219000      0.000000   1.0000 196.9666
    247    1 Au   79     22.803000      4.146000      2.073000   1.0000 196.9666
    248    1 Au   79     20.730000      6.219000      2.073000   1.0000 196.9666
    249    1 Au   79     20.730000      8.292000      0.000000   1.0000 196.9666
    250    1 Au   79     22.803000     10.365000      0.000000   1.0000 196.9666
    251    1 Au   79     22.803000      8.292000      2.073000   1.0000 196.9666
    252    1 Au   79     20.730000     10.365000      2.073000   1.0000 196.9666
    253    1 Au   79     20.730000     12.438000      0.000000   1.0000 196.9666
    254    1 Au   79     22.803000     14.511000      0.000000   1.0000 196.9666
    255    1 Au   79     22.803000     12.438000      2.073000   1.0000 196.9666
    256    1 Au   79     20.730000     14.511000      2.073000   1.0000 196.9666
    257    1 Au   79     20.730000     16.584000      0.000000   1.0000 196.9666
    258    1 Au   79     22.803000     18.657000      0.000000   1.0000 196.9666
    259    1 Au   79     22.803000     16.584000      2.073000   1.0000 196.9666
    260    1 Au   79     20.730000     18.657000      2.073000   1.0000 196.9666
    261    1 Au   79     20.730000     20.730000      0.000000   1.0000 196.9666
    262    1 Au   79     22.803000     22.803000      0.000000   1.0000 196.9666
    263    1 Au   79     22.803000     20.730000      2.073000   1.0000 196.9666
    264    1 Au   79     20.730000     22.803000      2.073000   1.0000 196.9666
    265    1 Au   79     20.730000     24.876000      0.000000   1.0000 196.9666
    266    1 Au   79     22.803000     26.949000      0.000000   1.0000 196.9666
    267    1 Au   79     22.803000     24.876000      2.073000   1.0000 196.9666
    268    1 Au   79     20.730000     26.949000      2.073000   1.0000 196.9666
    269    1 Au   79     20.730000     29.022000      0.000000   1.0000 196.9666
    270    1 Au   79     22.803000     31.095000      0.000000   1.0000 196.9666
    271    1 Au   79     22.803000     29.022000      2.073000   1.0000 196.9666
    272    1 Au   79     20.730000     31.095000      2.073000   1.0000 196.9666
    273    1 Au   79     20.730000     33.168000      0.000000   1.0000 196.9666
    274    1 Au   79     22.803000     35.241000      0.000000   1.0000 196.9666
    275    1 Au   79     22.803000     33.168000      2.073000   1.0000 196.9666
    276    1 Au   79     20.730000     35.241000      2.073000   1.0000 196.9666
    277    1 Au   79     20.730000     37.314000      0.000000   1.0000 196.9666
    278    1 Au   79     22.803000     39.387000      0.000000   1.0000 196.9666
    279    1 Au   79     22.803000     37.314000      2.073000   1.0000 196.9666
    280    1 Au   79     20.730000     39.387000      2.073000   1.0000 196.9666
    281    1 Au   79     20.730000     41.460000      0.000000   1.0000 196.9666
    282    1 Au   79     22.803000     43.533000      0.000000   1.0000 196.9666
    283    1 Au   79     22.803000     41.460000      2.073000   1.0000 196.9666
    284    1 Au   79     20.730000     43.533000      2.073000   1.0000 196.9666
    285    1 Au   79     20.730000     45.606000      0.000000   1.0000 196.9666
    286    1 Au   79     22.803000     47.679000      0.000000   1.0000 196.9666
    287    1 Au   79     22.803000     45.606000      2.073000   1.0000 196.9666
    288    1 Au   79     20.730000     47.679000      2.073000   1.0000 196.9666
    289    1 Au   79     24.876000      0.000000      0.000000   1.0000 196.9666
    290    1 Au   79     26.949000      2.073000      0.000000   1.0000 196.9666
    291    1 Au   79     26.949000      0.000000      2.073000   1.0000 196.9666
    292    1 Au   79     24.876000      2.073000      2.073000   1.0000 196.9666
    293    1 Au   79     24.876000      4.146000      0.000000   1.0000 196.9666
    294    1 Au   79     26.949000      6.219000      0.000000   1.0000 196.9666
    295    1 Au   79     26.949000      4.146000      2.073000   1.0000 196.9666
    296    1 Au   79     24.876000      6.219000      2.073000   1.0000 196.9666
    297    1 Au   79     24.876000      8.292000      0.000000   1.0000 196.9666
    298    1 Au   79     26.949000     10.365000      0.000000   1.0000 196.9666
    299    1 Au   79     26.949000      8.292000      2.073000   1.0000 196.9666
    300    1 Au   79     24.876000     10.365000      2.073000   1.0000 196.9666
    301    1 Au   79     24.876000     12.438000      0.000000   1.0000 196.9666
    302    1 Au   79     26.949000     14.511000      0.000000   1.0000 196.9666
    303    1 Au   79     26.949000     12.438000      2.073000   1.0000 196.9666
    304    1 Au   79     24.876000     14.511000      2.073000   1.0000 196.9666
    305    1 Au   79     24.876000     16.584000      0.000000   1.0000 196.9666
    306    1 Au   79     26.949000     18.657000      0.000000   1.0000 196.9666
    307    1 Au   79     26.949000     16.584000      2.073000   1.0000 196.9666
    308    1 Au   79     24.876000     18.657000      2.073000   1.0000 196.9666
    309    1 Au   79     24.876000     20.730000      0.000000   1.0000 196.9666
    310    1 Au   79     26.949000     22.803000      0.000000   1.0000 196.9666
    311    1 Au   79     26.949000     20.730000      2.073000   1.0000 196.9666
    312    1 Au   79     24.876000     22.803000      2.073000   1.0000 196.9666
    313    1 Au   79     24.876000     24.876000      0.000000   1.0000 196.9666
    314    1 Au   79     26.949000     26.949000      0.000000   1.0000 196.9666
    315    1 Au   79     26.949000     24.876000      2.073000   1.0000 196.9666
    316    1 Au   79     24.876000     26.949000      2.073000   1.0000 196.9666
    317    1 Au   79     24.876000     29.022000      0.000000   1.0000 196.9666
    318    1 Au   79     26.949000     31.095000      0.000000   1.0000 196.9666
    319    1 Au   79     26.949000     29.022000      2.073000   1.0000 196.9666
    320    1 Au   79     24.876000     31.095000      2.073000   1.0000 196.9666
    321    1 Au   79     24.876000     33.168000      0.000000   1.0000 196.9666
    322    1 Au   79     26.949000     35.241000      0.000000   1.0000 196.9666
    323    1 Au   79     26.949000     33.168000      2.073000   1.0000 196.9666
    324    1 Au   79     24.876000     35.241000      2.073000   1.0000 196.9666
    325    1 Au   79     24.876000     37.314000      0.000000   1.0000 196.9666
    326    1 Au   79     26.949000     39.387000      0.000000   1.0000 196.9666
    327    1 Au   79     26.949000     37.314000      2.073000   1.0000 196.9666
    328    1 Au   79     24.876000     39.387000      2.073000   1.0000 196.9666
    329    1 Au   79     24.876000     41.460000      0.000000   1.0000 196.9666
    330    1 Au   79     26.949000     43.533000      0.000000   1.0000 196.9666
    331    1 Au   79     26.949000     41.460000      2.073000   1.0000 196.9666
    332    1 Au   79     24.876000     43.533000      2.073000   1.0000 196.9666
    333    1 Au   79     24.876000     45.606000      0.000000   1.0000 196.9666
    334    1 Au   79     26.949000     47.679000      0.000000   1.0000 196.9666
    335    1 Au   79     26.949000     45.606000      2.073000   1.0000 196.9666
    336    1 Au   79     24.876000     47.679000      2.073000   1.0000 196.9666
    337    1 Au   79     29.022000      0.000000      0.000000   1.0000 196.9666
    338    1 Au   79     31.095000      2.073000      0.000000   1.0000 196.9666
    339    1 Au   79     31.095000      0.000000      2.073000   1.0000 196.9666
    340    1 Au   79     29.022000      2.073000      2.073000   1.0000 196.9666
    341    1 Au   79     29.022000      4.146000      0.000000   1.0000 196.9666
    342    1 Au   79     31.095000      6.219000      0.000000   1.0000 196.9666
    343    1 Au   79     31.095000      4.146000      2.073000   1.0000 196.9666
    344    1 Au   79     29.022000      6.219000      2.073000   1.0000 196.9666
    345    1 Au   79     29.022000      8.292000      0.000000   1.0000 196.9666
    346    1 Au   79     31.095000     10.365000      0.000000   1.0000 196.9666
    347    1 Au   79     31.095000      8.292000      2.073000   1.0000 196.9666
    348    1 Au   79     29.022000     10.365000      2.073000   1.0000 196.9666
    349    1 Au   79     29.022000     12.438000      0.000000   1.0000 196.9666
    350    1 Au   79     31.095000     14.511000      0.000000   1.0000 196.9666
    351    1 Au   79     31.095000     12.438000      2.073000   1.0000 196.9666
    352    1 Au   79     29.022000     14.511000      2.073000   1.0000 196.9666
    353    1 Au   79     29.022000     16.584000      0.000000   1.0000 196.9666
    354    1 Au   79     31.095000     18.657000      0.000000   1.0000 196.9666
    355    1 Au   79     31.095000     16.584000      2.073000   1.0000 196.9666
    356    1 Au   79     29.022000     18.657000      2.073000   1.0000 196.9666
    357    1 Au   79     29.022000     20.730000      0.000000   1.0000 196.9666
    358    1 Au   79     31.095000     22.803000      0.000000   1.0000 196.9666
    359    1 Au   79     31.095000     20.730000      2.073000   1.0000 196.9666
    360    1 Au   79     29.022000     22.803000      2.073000   1.0000 196.9666
    361    1 Au   79     29.022000     24.876000      0.000000   1.0000 196.9666
    362    1 Au   79     31.095000     26.949000      0.000000   1.0000 196.9666
    363    1 Au   79     31.095000     24.876000      2.073000   1.0000 196.9666
    364    1 Au   79     29.022000     26.949000      2.073000   1.0000 196.9666
    365    1 Au   79     29.022000     29.022000      0.000000   1.0000 196.9666
    366    1 Au   79     31.095000     31.095000      0.000000   1.0000 196.9666
    367    1 Au   79     31.095000     29.022000      2.073000   1.0000 196.9666
    368    1 Au   79     29.022000     31.095000      2.073000   1.0000 196.9666
    369    1 Au   79     29.022000     33.168000      0.000000   1.0000 196.9666
    370    1 Au   79     31.095000     35.241000      0.000000   1.0000 196.9666
    371    1 Au   79     31.095000     33.168000      2.073000   1.0000 196.9666
    372    1 Au   79     29.022000     35.241000      2.073000   1.0000 196.9666
    373    1 Au   79     29.022000     37.314000      0.000000   1.0000 196.9666
    374    1 Au   79     31.095000     39.387000      0.000000   1.0000 196.9666
    375    1 Au   79     31.095000     37.314000      2.073000   1.0000 196.9666
    376    1 Au   79     29.022000     39.387000      2.073000   1.0000 196.9666
    377    1 Au   79     29.022000     41.460000      0.000000   1.0000 196.9666
    378    1 Au   79     31.095000     43.533000      0.000000   1.0000 196.9666
    379    1 Au   79     31.095000     41.460000      2.073000   1.0000 196.9666
    380    1 Au   79     29.022000     43.533000      2.073000   1.0000 196.9666
    381    1 Au   79     29.022000     45.606000      0.000000   1.0000 196.9666
    382    1 Au   79     31.095000     47.679000      0.000000   1.0000 196.9666
    383    1 Au   79     31.095000     45.606000      2.073000   1.0000 196.9666
    384    1 Au   79     29.022000     47.679000      2.073000   1.0000 196.9666
    385    1 Au   79     33.168000      0.000000      0.000000   1.0000 196.9666
    386    1 Au   79     35.241000      2.073000      0.000000   1.0000 196.9666
    387    1 Au   79     35.241000      0.000000      2.073000   1.0000 196.9666
    388    1 Au   79     33.168000      2.073000      2.073000   1.0000 196.9666
    389    1 Au   79     33.168000      4.146000      0.000000   1.0000 196.9666
    390    1 Au   79     35.241000      6.219000      0.000000   1.0000 196.9666
    391    1 Au   79     35.241000      4.146000      2.073000   1.0000 196.9666
    392    1 Au   79     33.168000      6.219000      2.073000   1.0000 196.9666
    393    1 Au   79     33.168000      8.292000      0.000000   1.0000 196.9666
    394    1 Au   79     35.241000     10.365000      0.000000   1.0000 196.9666
    395    1 Au   79     35.241000      8.292000      2.073000   1.0000 196.9666
    396    1 Au   79     33.168000     10.365000      2.073000   1.0000 196.9666
    397    1 Au   79     33.168000     12.438000      0.000000   1.0000 196.9666
    398    1 Au   79     35.241000     14.511000      0.000000   1.0000 196.9666
    399    1 Au   79     35.241000     12.438000      2.073000   1.0000 196.9666
    400    1 Au   79     33.168000     14.511000      2.073000   1.0000 196.9666
    401    1 Au   79     33.168000     16.584000      0.000000   1.0000 196.9666
    402    1 Au   79     35.241000     18.657000      0.000000   1.0000 196.9666
    403    1 Au   79     35.241000     16.584000      2.073000   1.0000 196.9666
    404    1 Au   79     33.168000     18.657000      2.073000   1.0000 196.9666
    405    1 Au   79     33.168000     20.730000      0.000000   1.0000 196.9666
    406    1 Au   79     35.241000     22.803000      0.000000   1.0000 196.9666
    407    1 Au   79     35.241000     20.730000      2.073000   1.0000 196.9666
    408    1 Au   79     33.168000     22.803000      2.073000   1.0000 196.9666
    409    1 Au   79     33.168000     24.876000      0.000000   1.0000 196.9666
    410    1 Au   79     35.241000     26.949000      0.000000   1.0000 196.9666
    411    1 Au   79     35.241000     24.876000      2.073000   1.0000 196.9666
    412    1 Au   79     33.168000     26.949000      2.073000   1.0000 196.9666
    413    1 Au   79     33.168000     29.022000      0.000000   1.0000 196.9666
    414    1 Au   79     35.241000     31.095000      0.000000   1.0000 196.9666
    415    1 Au   79     35.241000     29.022000      2.073000   1.0000 196.9666
    416    1 Au   79     33.168000     31.095000      2.073000   1.0000 196.9666
    417    1 Au   79     33.168000     33.168000      0.000000   1.0000 196.9666
    418    1 Au   79     35.241000     35.241000      0.000000   1.0000 196.9666
    419    1 Au   79     35.241000     33.168000      2.073000   1.0000 196.9666
    420    1 Au   79     33.168000     35.241000      2.073000   1.0000 196.9666
    421    1 Au   79     33.168000     37.314000      0.000000   1.0000 196.9666
    422    1 Au   79     35.241000     39.387000      0.000000   1.0000 196.9666
    423    1 Au   79     35.241000     37.314000      2.073000   1.0000 196.9666
    424    1 Au   79     33.168000     39.387000      2.073000   1.0000 196.9666
    425    1 Au   79     33.168000     41.460000      0.000000   1.0000 196.9666
    426    1 Au   79     35.241000     43.533000      0.000000   1.0000 196.9666
    427    1 Au   79     35.241000     41.460000      2.073000   1.0000 196.9666
    428    1 Au   79     33.168000     43.533000      2.073000   1.0000 196.9666
    429    1 Au   79     33.168000     45.606000      0.000000   1.0000 196.9666
    430    1 Au   79     35.241000     47.679000      0.000000   1.0000 196.9666
    431    1 Au   79     35.241000     45.606000      2.073000   1.0000 196.9666
    432    1 Au   79     33.168000     47.679000      2.073000   1.0000 196.9666
    433    1 Au   79     37.314000      0.000000      0.000000   1.0000 196.9666
    434    1 Au   79     39.387000      2.073000      0.000000   1.0000 196.9666
    435    1 Au   79     39.387000      0.000000      2.073000   1.0000 196.9666
    436    1 Au   79     37.314000      2.073000      2.073000   1.0000 196.9666
    437    1 Au   79     37.314000      4.146000      0.000000   1.0000 196.9666
    438    1 Au   79     39.387000      6.219000      0.000000   1.0000 196.9666
    439    1 Au   79     39.387000      4.146000      2.073000   1.0000 196.9666
    440    1 Au   79     37.314000      6.219000      2.073000   1.0000 196.9666
    441    1 Au   79     37.314000      8.292000      0.000000   1.0000 196.9666
    442    1 Au   79     39.387000     10.365000      0.000000   1.0000 196.9666
    443    1 Au   79     39.387000      8.292000      2.073000   1.0000 196.9666
    444    1 Au   79     37.314000     10.365000      2.073000   1.0000 196.9666
    445    1 Au   79     37.314000     12.438000      0.000000   1.0000 196.9666
    446    1 Au   79     39.387000     14.511000      0.000000   1.0000 196.9666
    447    1 Au   79     39.387000     12.438000      2.073000   1.0000 196.9666
    448    1 Au   79     37.314000     14.511000      2.073000   1.0000 196.9666
    449    1 Au   79     37.314000     16.584000      0.000000   1.0000 196.9666
    450    1 Au   79     39.387000     18.657000      0.000000   1.0000 196.9666
    451    1 Au   79     39.387000     16.584000      2.073000   1.0000 196.9666
    452    1 Au   79     37.314000     18.657000      2.073000   1.0000 196.9666
    453    1 Au   79     37.314000     20.730000      0.000000   1.0000 196.9666
    454    1 Au   79     39.387000     22.803000      0.000000   1.0000 196.9666
    455    1 Au   79     39.387000     20.730000      2.073000   1.0000 196.9666
    456    1 Au   79     37.314000     22.803000      2.073000   1.0000 196.9666
    457    1 Au   79     37.314000     24.876000      0.000000   1.0000 196.9666
    458    1 Au   79     39.387000     26.949000      0.000000   1.0000 196.9666
    459    1 Au   79     39.387000     24.876000      2.073000   1.0000 196.9666
    460    1 Au   79     37.314000     26.949000      2.073000   1.0000 196.9666
    461    1 Au   79     37.314000     29.022000      0.000000   1.0000 196.9666
    462    1 Au   79     39.387000     31.095000      0.000000   1.0000 196.9666
    463    1 Au   79     39.387000     29.022000      2.073000   1.0000 196.9666
    464    1 Au   79     37.314000     31.095000      2.073000   1.0000 196.9666
    465    1 Au   79     37.314000     33.168000      0.000000   1.0000 196.9666
    466    1 Au   79     39.387000     35.241000      0.000000   1.0000 196.9666
    467    1 Au   79     39.387000     33.168000      2.073000   1.0000 196.9666
    468    1 Au   79     37.314000     35.241000      2.073000   1.0000 196.9666
    469    1 Au   79     37.314000     37.314000      0.000000   1.0000 196.9666
    470    1 Au   79     39.387000     39.387000      0.000000   1.0000 196.9666
    471    1 Au   79     39.387000     37.314000      2.073000   1.0000 196.9666
    472    1 Au   79     37.314000     39.387000      2.073000   1.0000 196.9666
    473    1 Au   79     37.314000     41.460000      0.000000   1.0000 196.9666
    474    1 Au   79     39.387000     43.533000      0.000000   1.0000 196.9666
    475    1 Au   79     39.387000     41.460000      2.073000   1.0000 196.9666
    476    1 Au   79     37.314000     43.533000      2.073000   1.0000 196.9666
    477    1 Au   79     37.314000     45.606000      0.000000   1.0000 196.9666
    478    1 Au   79     39.387000     47.679000      0.000000   1.0000 196.9666
    479    1 Au   79     39.387000     45.606000      2.073000   1.0000 196.9666
    480    1 Au   79     37.314000     47.679000      2.073000   1.0000 196.9666
    481    1 Au   79     41.460000      0.000000      0.000000   1.0000 196.9666
    482    1 Au   79     43.533000      2.073000      0.000000   1.0000 196.9666
    483    1 Au   79     43.533000      0.000000      2.073000   1.0000 196.9666
    484    1 Au   79     41.460000      2.073000      2.073000   1.0000 196.9666
    485    1 Au   79     41.460000      4.146000      0.000000   1.0000 196.9666
    486    1 Au   79     43.533000      6.219000      0.000000   1.0000 196.9666
    487    1 Au   79     43.533000      4.146000      2.073000   1.0000 196.9666
    488    1 Au   79     41.460000      6.219000      2.073000   1.0000 196.9666
    489    1 Au   79     41.460000      8.292000      0.000000   1.0000 196.9666
    490    1 Au   79     43.533000     10.365000      0.000000   1.0000 196.9666
    491    1 Au   79     43.533000      8.292000      2.073000   1.0000 196.9666
    492    1 Au   79     41.460000     10.365000      2.073000   1.0000 196.9666
    493    1 Au   79     41.460000     12.438000      0.000000   1.0000 196.9666
    494    1 Au   79     43.533000     14.511000      0.000000   1.0000 196.9666
    495    1 Au   79     43.533000     12.438000      2.073000   1.0000 196.9666
    496    1 Au   79     41.460000     14.511000      2.073000   1.0000 196.9666
    497    1 Au   79     41.460000     16.584000      0.000000   1.0000 196.9666
    498    1 Au   79     43.533000     18.657000      0.000000   1.0000 196.9666
    499    1 Au   79     43.533000     16.584000      2.073000   1.0000 196.9666
    500    1 Au   79     41.460000     18.657000      2.073000   1.0000 196.9666
    501    1 Au   79     41.460000     20.730000      0.000000   1.0000 196.9666
    502    1 Au   79     43.533000     22.803000      0.000000   1.0000 196.9666
    503    1 Au   79     43.533000     20.730000      2.073000   1.0000 196.9666
    504    1 Au   79     41.460000     22.803000      2.073000   1.0000 196.9666
    505    1 Au   79     41.460000     24.876000      0.000000   1.0000 196.9666
    506    1 Au   79     43.533000     26.949000      0.000000   1.0000 196.9666
    507    1 Au   79     43.533000     24.876000      2.073000   1.0000 196.9666
    508    1 Au   79     41.460000     26.949000      2.073000   1.0000 196.9666
    509    1 Au   79     41.460000     29.022000      0.000000   1.0000 196.9666
    510    1 Au   79     43.533000     31.095000      0.000000   1.0000 196.9666
    511    1 Au   79     43.533000     29.022000      2.073000   1.0000 196.9666
    512    1 Au   79     41.460000     31.095000      2.073000   1.0000 196.9666
    513    1 Au   79     41.460000     33.168000      0.000000   1.0000 196.9666
    514    1 Au   79     43.533000     35.241000      0.000000   1.0000 196.9666
    515    1 Au   79     43.533000     33.168000      2.073000   1.0000 196.9666
    516    1 Au   79     41.460000     35.241000      2.073000   1.0000 196.9666
    517    1 Au   79     41.460000     37.314000      0.000000   1.0000 196.9666
    518    1 Au   79     43.533000     39.387000      0.000000   1.0000 196.9666
    519    1 Au   79     43.533000     37.314000      2.073000   1.0000 196.9666
    520    1 Au   79     41.460000     39.387000      2.073000   1.0000 196.9666
    521    1 Au   79     41.460000     41.460000      0.000000   1.0000 196.9666
    522    1 Au   79     43.533000     43.533000      0.000000   1.0000 196.9666
    523    1 Au   79     43.533000     41.460000      2.073000   1.0000 196.9666
    524    1 Au   79     41.460000     43.533000      2.073000   1.0000 196.9666
    525    1 Au   79     41.460000     45.606000      0.000000   1.0000 196.9666
    526    1 Au   79     43.533000     47.679000      0.000000   1.0000 196.9666
    527    1 Au   79     43.533000     45.606000      2.073000   1.0000 196.9666
    528    1 Au   79     41.460000     47.679000      2.073000   1.0000 196.9666
    529    1 Au   79     45.606000      0.000000      0.000000   1.0000 196.9666
    530    1 Au   79     47.679000      2.073000      0.000000   1.0000 196.9666
    531    1 Au   79     47.679000      0.000000      2.073000   1.0000 196.9666
    532    1 Au   79     45.606000      2.073000      2.073000   1.0000 196.9666
    533    1 Au   79     45.606000      4.146000      0.000000   1.0000 196.9666
    534    1 Au   79     47.679000      6.219000      0.000000   1.0000 196.9666
    535    1 Au   79     47.679000      4.146000      2.073000   1.0000 196.9666
    536    1 Au   79     45.606000      6.219000      2.073000   1.0000 196.9666
    537    1 Au   79     45.606000      8.292000      0.000000   1.0000 196.9666
    538    1 Au   79     47.679000     10.365000      0.000000   1.0000 196.9666
    539    1 Au   79     47.679000      8.292000      2.073000   1.0000 196.9666
    540    1 Au   79     45.606000     10.365000      2.073000   1.0000 196.9666
    541    1 Au   79     45.606000     12.438000      0.000000   1.0000 196.9666
    542    1 Au   79     47.679000     14.511000      0.000000   1.0000 196.9666
    543    1 Au   79     47.679000     12.438000      2.073000   1.0000 196.9666
    544    1 Au   79     45.606000     14.511000      2.073000   1.0000 196.9666
    545    1 Au   79     45.606000     16.584000      0.000000   1.0000 196.9666
    546    1 Au   79     47.679000     18.657000      0.000000   1.0000 196.9666
    547    1 Au   79     47.679000     16.584000      2.073000   1.0000 196.9666
    548    1 Au   79     45.606000     18.657000      2.073000   1.0000 196.9666
    549    1 Au   79     45.606000     20.730000      0.000000   1.0000 196.9666
    550    1 Au   79     47.679000     22.803000      0.000000   1.0000 196.9666
    551    1 Au   79     47.679000     20.730000      2.073000   1.0000 196.9666
    552    1 Au   79     45.606000     22.803000      2.073000   1.0000 196.9666
    553    1 Au   79     45.606000     24.876000      0.000000   1.0000 196.9666
    554    1 Au   79     47.679000     26.949000      0.000000   1.0000 196.9666
    555    1 Au   79     47.679000     24.876000      2.073000   1.0000 196.9666
    556    1 Au   79     45.606000     26.949000      2.073000   1.0000 196.9666
    557    1 Au   79     45.606000     29.022000      0.000000   1.0000 196.9666
    558    1 Au   79     47.679000     31.095000      0.000000   1.0000 196.9666
    559    1 Au   79     47.679000     29.022000      2.073000   1.0000 196.9666
    560    1 Au   79     45.606000     31.095000      2.073000   1.0000 196.9666
    561    1 Au   79     45.606000     33.168000      0.000000   1.0000 196.9666
    562    1 Au   79     47.679000     35.241000      0.000000   1.0000 196.9666
    563    1 Au   79     47.679000     33.168000      2.073000   1.0000 196.9666
    564    1 Au   79     45.606000     35.241000      2.073000   1.0000 196.9666
    565    1 Au   79     45.606000     37.314000      0.000000   1.0000 196.9666
    566    1 Au   79     47.679000     39.387000      0.000000   1.0000 196.9666
    567    1 Au   79     47.679000     37.314000      2.073000   1.0000 196.9666
    568    1 Au   79     45.606000     39.387000      2.073000   1.0000 196.9666
    569    1 Au   79     45.606000     41.460000      0.000000   1.0000 196.9666
    570    1 Au   79     47.679000     43.533000      0.000000   1.0000 196.9666
    571    1 Au   79     47.679000     41.460000      2.073000   1.0000 196.9666
    572    1 Au   79     45.606000     43.533000      2.073000   1.0000 196.9666
    573    1 Au   79     45.606000     45.606000      0.000000   1.0000 196.9666
    574    1 Au   79     47.679000     47.679000      0.000000   1.0000 196.9666
    575    1 Au   79     47.679000     45.606000      2.073000   1.0000 196.9666
    576    1 Au   79     45.606000     47.679000      2.073000   1.0000 196.9666
    577    1 Au   79      0.000000      0.000000      4.146000   1.0000 196.9666
    578    1 Au   79      2.073000      2.073000      4.146000   1.0000 196.9666
    579    1 Au   79      2.073000      0.000000      6.219000   1.0000 196.9666
    580    1 Au   79      0.000000      2.073000      6.219000   1.0000 196.9666
    581    1 Au   79      0.000000      4.146000      4.146000   1.0000 196.9666
    582    1 Au   79      2.073000      6.219000      4.146000   1.0000 196.9666
    583    1 Au   79      2.073000      4.146000      6.219000   1.0000 196.9666
    584    1 Au   79      0.000000      6.219000      6.219000   1.0000 196.9666
    585    1 Au   79      0.000000      8.292000      4.146000   1.0000 196.9666
    586    1 Au   79      2.073000     10.365000      4.146000   1.0000 196.9666
    587    1 Au   79      2.073000      8.292000      6.219000   1.0000 196.9666
    588    1 Au   79      0.000000     10.365000      6.219000   1.0000 196.9666
    589    1 Au   79      0.000000     12.438000      4.146000   1.0000 196.9666
    590    1 Au   79      2.073000     14.511000      4.146000   1.0000 196.9666
    591    1 Au   79      2.073000     12.438000      6.219000   1.0000 196.9666
    592    1 Au   79      0.000000     14.511000      6.219000   1.0000 196.9666
    593    1 Au   79      0.000000     16.584000      4.146000   1.0000 196.9666
    594    1 Au   79      2.073000     18.657000      4.146000   1.0000 196.9666
    595    1 Au   79      2.073000     16.584000      6.219000   1.0000 196.9666
    596    1 Au   79      0.000000     18.657000      6.219000   1.0000 196.9666
    597    1 Au   79      0.000000     20.730000      4.146000   1.0000 196.9666
    598    1 Au   79      2.073000     22.803000      4.146000   1.0000 196.9666
    599    1 Au   79      2.073000     20.730000      6.219000   1.0000 196.9666
    600    1 Au   79      0.000000     22.803000      6.219000   1.0000 196.9666
    601    1 Au   79      0.000000     24.876000      4.146000   1.0000 196.9666
    602    1 Au   79      2.073000     26.949000      4.146000   1.0000 196.9666
    603    1 Au   79      2.073000     24.876000      6.219000   1.0000 196.9666
    604    1 Au   79      0.000000     26.949000      6.219000   1.0000 196.9666
    605    1 Au   79      0.000000     29.022000      4.146000   1.0000 196.9666
    606    1 Au   79      2.073000     31.095000      4.146000   1.0000 196.9666
    607    1 Au   79      2.073000     29.022000      6.219000   1.0000 196.9666
    608    1 Au   79      0.000000     31.095000      6.219000   1.0000 196.9666
    609    1 Au   79      0.000000     33.168000      4.146000   1.0000 196.9666
    610    1 Au   79      2.073000     35.241000      4.146000   1.0000 196.9666
    611    1 Au   79      2.073000     33.168000      6.219000   1.0000 196.9666
    612    1 Au   79      0.000000     35.241000      6.219000   1.0000 196.9666
    613    1 Au   79      0.000000     37.314000      4.146000   1.0000 196.9666
    614    1 Au   79      2.073000     39.387000      4.146000   1.0000 196.9666
    615    1 Au   79      2.073000     37.314000      6.219000   1.0000 196.9666
    616    1 Au   79      0.000000     39.387000      6.219000   1.0000 196.9666
    617    1 Au   79      0.000000     41.460000      4.146000   1.0000 196.9666
    618    1 Au   79      2.073000     43.533000      4.146000   1.0000 196.9666
    619    1 Au   79      2.073000     41.460000      6.219000   1.0000 196.9666
    620    1 Au   79      0.000000     43.533000      6.219000   1.0000 196.9666
    621    1 Au   79      0.000000     45.606000      4.146000   1.0000 196.9666
    622    1 Au   79      2.073000     47.679000      4.146000   1.0000 196.9666
    623    1 Au   79      2.073000     45.606000      6.219000   1.0000 196.9666
    624    1 Au   79      0.000000     47.679000      6.219000   1.0000 196.9666
    625    1 Au   79      4.146000      0.000000      4.146000   1.0000 196.9666
    626    1 Au   79      6.219000      2.073000      4.146000   1.0000 196.9666
    627    1 Au   79      6.219000      0.000000      6.219000   1.0000 196.9666
    628    1 Au   79      4.146000      2.073000      6.219000   1.0000 196.9666
    629    1 Au   79      4.146000      4.146000      4.146000   1.0000 196.9666
    630    1 Au   79      6.219000      6.219000      4.146000   1.0000 196.9666
    631    1 Au   79      6.219000      4.146000      6.219000   1.0000 196.9666
    632    1 Au   79      4.146000      6.219000      6.219000   1.0000 196.9666
    633    1 Au   79      4.146000      8.292000      4.146000   1.0000 196.9666
    634    1 Au   79      6.219000     10.365000      4.146000   1.0000 196.9666
    635    1 Au   79      6.219000      8.292000      6.219000   1.0000 196.9666
    636    1 Au   79      4.146000     10.365000      6.219000   1.0000 196.9666
    637    1 Au   79      4.146000     12.438000      4.146000   1.0000 196.9666
    638    1 Au   79      6.219000     14.511000      4.146000   1.0000 196.9666
    639    1 Au   79      6.219000     12.438000      6.219000   1.0000 196.9666
    640    1 Au   79      4.146000     14.511000      6.219000   1.0000 196.9666
    641    1 Au   79      4.146000     16.584000      4.146000   1.0000 196.9666
    642    1 Au   79      6.219000     18.657000      4.146000   1.0000 196.9666
    643    1 Au   79      6.219000     16.584000      6.219000   1.0000 196.9666
    644    1 Au   79      4.146000     18.657000      6.219000   1.0000 196.9666
    645    1 Au   79      4.146000     20.730000      4.146000   1.0000 196.9666
    646    1 Au   79      6.219000     22.803000      4.146000   1.0000 196.9666
    647    1 Au   79      6.219000     20.730000      6.219000   1.0000 196.9666
    648    1 Au   79      4.146000     22.803000      6.219000   1.0000 196.9666
    649    1 Au   79      4.146000     24.876000      4.146000   1.0000 196.9666
    650    1 Au   79      6.219000     26.949000      4.146000   1.0000 196.9666
    651    1 Au   79      6.219000     24.876000      6.219000   1.0000 196.9666
    652    1 Au   79      4.146000     26.949000      6.219000   1.0000 196.9666
    653    1 Au   79      4.146000     29.022000      4.146000   1.0000 196.9666
    654    1 Au   79      6.219000     31.095000      4.146000   1.0000 196.9666
    655    1 Au   79      6.219000     29.022000      6.219000   1.0000 196.9666
    656    1 Au   79      4.146000     31.095000      6.219000   1.0000 196.9666
    657    1 Au   79      4.146000     33.168000      4.146000   1.0000 196.9666
    658    1 Au   79      6.219000     35.241000      4.146000   1.0000 196.9666
    659    1 Au   79      6.219000     33.168000      6.219000   1.0000 196.9666
    660    1 Au   79      4.146000     35.241000      6.219000   1.0000 196.9666
    661    1 Au   79      4.146000     37.314000      4.146000   1.0000 196.9666
    662    1 Au   79      6.219000     39.387000      4.146000   1.0000 196.9666
    663    1 Au   79      6.219000     37.314000      6.219000   1.0000 196.9666
    664    1 Au   79      4.146000     39.387000      6.219000   1.0000 196.9666
    665    1 Au   79      4.146000     41.460000      4.146000   1.0000 196.9666
    666    1 Au   79      6.219000     43.533000      4.146000   1.0000 196.9666
    667    1 Au   79      6.219000     41.460000      6.219000   1.0000 196.9666
    668    1 Au   79      4.146000     43.533000      6.219000   1.0000 196.9666
    669    1 Au   79      4.146000     45.606000      4.146000   1.0000 196.9666
    670    1 Au   79      6.219000     47.679000      4.146000   1.0000 196.9666
    671    1 Au   79      6.219000     45.606000      6.219000   1.0000 196.9666
    672    1 Au   79      4.146000     47.679000      6.219000   1.0000 196.9666
    673    1 Au   79      8.292000      0.000000      4.146000   1.0000 196.9666
    674    1 Au   79     10.365000      2.073000      4.146000   1.0000 196.9666
    675    1 Au   79     10.365000      0.000000      6.219000   1.0000 196.9666
    676    1 Au   79      8.292000      2.073000      6.219000   1.0000 196.9666
    677    1 Au   79      8.292000      4.146000      4.146000   1.0000 196.9666
    678    1 Au   79     10.365000      6.219000      4.146000   1.0000 196.9666
    679    1 Au   79     10.365000      4.146000      6.219000   1.0000 196.9666
    680    1 Au   79      8.292000      6.219000      6.219000   1.0000 196.9666
    681    1 Au   79      8.292000      8.292000      4.146000   1.0000 196.9666
    682    1 Au   79     10.365000     10.365000      4.146000   1.0000 196.9666
    683    1 Au   79     10.365000      8.292000      6.219000   1.0000 196.9666
    684    1 Au   79      8.292000     10.365000      6.219000   1.0000 196.9666
    685    1 Au   79      8.292000     12.438000      4.146000   1.0000 196.9666
    686    1 Au   79     10.365000     14.511000      4.146000   1.0000 196.9666
    687    1 Au   79     10.365000     12.438000      6.219000   1.0000 196.9666
    688    1 Au   79      8.292000     14.511000      6.219000   1.0000 196.9666
    689    1 Au   79      8.292000     16.584000      4.146000   1.0000 196.9666
    690    1 Au   79     10.365000     18.657000      4.146000   1.0000 196.9666
    691    1 Au   79     10.365000     16.584000      6.219000   1.0000 196.9666
    692    1 Au   79      8.292000     18.657000      6.219000   1.0000 196.9666
    693    1 Au   79      8.292000     20.730000      4.146000   1.0000 196.9666
    694    1 Au   79     10.365000     22.803000      4.146000   1.0000 196.9666
    695    1 Au   79     10.365000     20.730000      6.219000   1.0000 196.9666
    696    1 Au   79      8.292000     22.803000      6.219000   1.0000 196.9666
    697    1 Au   79      8.292000     24.876000      4.146000   1.0000 196.9666
    698    1 Au   79     10.365000     26.949000      4.146000   1.0000 196.9666
    699    1 Au   79     10.365000     24.876000      6.219000   1.0000 196.9666
    700    1 Au   79      8.292000     26.949000      6.219000   1.0000 196.9666
    701    1 Au   79      8.292000     29.022000      4.146000   1.0000 196.9666
    702    1 Au   79     10.365000     31.095000      4.146000   1.0000 196.9666
    703    1 Au   79     10.365000     29.022000      6.219000   1.0000 196.9666
    704    1 Au   79      8.292000     31.095000      6.219000   1.0000 196.9666
    705    1 Au   79      8.292000     33.168000      4.146000   1.0000 196.9666
    706    1 Au   79     10.365000     35.241000      4.146000   1.0000 196.9666
    707    1 Au   79     10.365000     33.168000      6.219000   1.0000 196.9666
    708    1 Au   79      8.292000     35.241000      6.219000   1.0000 196.9666
    709    1 Au   79      8.292000     37.314000      4.146000   1.0000 196.9666
    710    1 Au   79     10.365000     39.387000      4.146000   1.0000 196.9666
    711    1 Au   79     10.365000     37.314000      6.219000   1.0000 196.9666
    712    1 Au   79      8.292000     39.387000      6.219000   1.0000 196.9666
    713    1 Au   79      8.292000     41.460000      4.146000   1.0000 196.9666
    714    1 Au   79     10.365000     43.533000      4.146000   1.0000 196.9666
    715    1 Au   79     10.365000     41.460000      6.219000   1.0000 196.9666
    716    1 Au   79      8.292000     43.533000      6.219000   1.0000 196.9666
    717    1 Au   79      8.292000     45.606000      4.146000   1.0000 196.9666
    718    1 Au   79     10.365000     47.679000      4.146000   1.0000 196.9666
    719    1 Au   79     10.365000     45.606000      6.219000   1.0000 196.9666
    720    1 Au   79      8.292000     47.679000      6.219000   1.0000 196.9666
    721    1 Au   79     12.438000      0.000000      4.146000   1.0000 196.9666
    722    1 Au   79     14.511000      2.073000      4.146000   1.0000 196.9666
    723    1 Au   79     14.511000      0.000000      6.219000   1.0000 196.9666
    724    1 Au   79     12.438000      2.073000      6.219000   1.0000 196.9666
    725    1 Au   79     12.438000      4.146000      4.146000   1.0000 196.9666
    726    1 Au   79     14.511000      6.219000      4.146000   1.0000 196.9666
    727    1 Au   79     14.511000      4.146000      6.219000   1.0000 196.9666
[...]
   1081       Au     1       1.000          1.000                        -0.000
   1082       Au     1       1.000          1.000                        -0.000
   1083       Au     1       1.000          1.000                        -0.000
   1084       Au     1       1.000          1.000                        -0.000
   1085       Au     1       1.000          1.000                        -0.000
   1086       Au     1       1.000          1.000                        -0.000
   1087       Au     1       1.000          1.000                        -0.000
   1088       Au     1       1.000          1.000                        -0.000
   1089       Au     1       1.000          1.000                        -0.000
   1090       Au     1       1.000          1.000                        -0.000
   1091       Au     1       1.000          1.000                        -0.000
   1092       Au     1       1.000          1.000                        -0.000
   1093       Au     1       1.000          1.000                        -0.000
   1094       Au     1       1.000          1.000                        -0.000
   1095       Au     1       1.000          1.000                        -0.000
   1096       Au     1       1.000          1.000                        -0.000
   1097       Au     1       1.000          1.000                        -0.000
   1098       Au     1       1.000          1.000                        -0.000
   1099       Au     1       1.000          1.000                        -0.000
   1100       Au     1       1.000          1.000                        -0.000
   1101       Au     1       1.000          1.000                        -0.000
   1102       Au     1       1.000          1.000                        -0.000
   1103       Au     1       1.000          1.000                        -0.000
   1104       Au     1       1.000          1.000                        -0.000
   1105       Au     1       1.000          1.000                        -0.000
   1106       Au     1       1.000          1.000                        -0.000
   1107       Au     1       1.000          1.000                        -0.000
   1108       Au     1       1.000          1.000                        -0.000
   1109       Au     1       1.000          1.000                        -0.000
   1110       Au     1       1.000          1.000                        -0.000
   1111       Au     1       1.000          1.000                        -0.000
   1112       Au     1       1.000          1.000                        -0.000
   1113       Au     1       1.000          1.000                        -0.000
   1114       Au     1       1.000          1.000                        -0.000
   1115       Au     1       1.000          1.000                        -0.000
   1116       Au     1       1.000          1.000                        -0.000
   1117       Au     1       1.000          1.000                        -0.000
   1118       Au     1       1.000          1.000                        -0.000
   1119       Au     1       1.000          1.000                        -0.000
   1120       Au     1       1.000          1.000                        -0.000
   1121       Au     1       1.000          1.000                        -0.000
   1122       Au     1       1.000          1.000                        -0.000
   1123       Au     1       1.000          1.000                        -0.000
   1124       Au     1       1.000          1.000                        -0.000
   1125       Au     1       1.000          1.000                        -0.000
   1126       Au     1       1.000          1.000                        -0.000
   1127       Au     1       1.000          1.000                        -0.000
   1128       Au     1       1.000          1.000                        -0.000
   1129       Au     1       1.000          1.000                        -0.000
   1130       Au     1       1.000          1.000                        -0.000
   1131       Au     1       1.000          1.000                        -0.000
   1132       Au     1       1.000          1.000                        -0.000
   1133       Au     1       1.000          1.000                        -0.000
   1134       Au     1       1.000          1.000                        -0.000
   1135       Au     1       1.000          1.000                        -0.000
   1136       Au     1       1.000          1.000                        -0.000
   1137       Au     1       1.000          1.000                        -0.000
   1138       Au     1       1.000          1.000                        -0.000
   1139       Au     1       1.000          1.000                        -0.000
   1140       Au     1       1.000          1.000                        -0.000
   1141       Au     1       1.000          1.000                        -0.000
   1142       Au     1       1.000          1.000                        -0.000
   1143       Au     1       1.000          1.000                        -0.000
   1144       Au     1       1.000          1.000                        -0.000
   1145       Au     1       1.000          1.000                        -0.000
   1146       Au     1       1.000          1.000                        -0.000
   1147       Au     1       1.000          1.000                        -0.000
   1148       Au     1       1.000          1.000                        -0.000
   1149       Au     1       1.000          1.000                        -0.000
   1150       Au     1       1.000          1.000                        -0.000
   1151       Au     1       1.000          1.000                        -0.000
   1152       Au     1       1.000          1.000                        -0.000

  Total Charge                                                           -0.000
 !-----------------------------------------------------------------------------!

 BULKTRANSP| E_FERMI [a.u.] =                                  -1.5216840456E-01
 BULKTRANSP| HartreeLeadsBottom [a.u.] =                       -5.3353774050E-02
 BULKTRANSP| Number of electrons:                                1152.0003469404

 ENERGY| Total FORCE_EVAL ( QS ) energy [a.u.]:             -604.168260306987122

 -------------------------------------------------------------------------------
 -                                                                             -
 -                                DBCSR STATISTICS                             -
 -                                                                             -
 -------------------------------------------------------------------------------
 COUNTER                                    TOTAL       BLAS       SMM       ACC
 flops inhomo. stacks                           0       0.0%      0.0%      0.0%
 flops total                         0.000000E+00       0.0%      0.0%      0.0%
 flops max/rank                      0.000000E+00       0.0%      0.0%      0.0%
 matmuls inhomo. stacks                         0       0.0%      0.0%      0.0%
 matmuls total                                  0       0.0%      0.0%      0.0%
 number of processed stacks                     0       0.0%      0.0%      0.0%
 average stack size                                     0.0       0.0       0.0
 marketing flops                     0.000000E+00
 -------------------------------------------------------------------------------
 -                                                                             -
 -                      DBCSR MESSAGE PASSING PERFORMANCE                      -
 -                                                                             -
 -------------------------------------------------------------------------------
 ROUTINE             CALLS      AVE VOLUME [Bytes]
 MP_Bcast                1                     12.
 MP_Allreduce          380                      9.
 MP_Alltoall          7380                  79215.
 -------------------------------------------------------------------------------

 -------------------------------------------------------------------------------
 -                                                                             -
 -                                DBM STATISTICS                               -
 -                                                                             -
 -------------------------------------------------------------------------------
    M  x    N  x    K                                          COUNT     PERCENT
 -------------------------------------------------------------------------------

 -------------------------------------------------------------------------------
 -                                                                             -
 -                                GRID STATISTICS                              -
 -                                                                             -
 -------------------------------------------------------------------------------
 LP    KERNEL             BACKEND                              COUNT     PERCENT
 0     collocate ortho    REF                                7758720      47.10%
 0     integrate ortho    REF                                6206976      37.68%
 0     collocate general  REF                                1327104       8.06%
 0     integrate general  REF                                1179648       7.16%
 -------------------------------------------------------------------------------

 MEMORY| Estimated peak process memory [MiB]                                 447

 -------------------------------------------------------------------------------
 ----                             MULTIGRID INFO                            ----
 -------------------------------------------------------------------------------
 count for grid        1:              0          cutoff [a.u.]          200.00
 count for grid        2:          91008          cutoff [a.u.]           66.67
 count for grid        3:         698880          cutoff [a.u.]           22.22
 count for grid        4:         780672          cutoff [a.u.]            7.41
 total gridlevel count  :        1570560

 -------------------------------------------------------------------------------
 -                                                                             -
 -                         MESSAGE PASSING PERFORMANCE                         -
 -                                                                             -
 -------------------------------------------------------------------------------

 ROUTINE             CALLS      AVE VOLUME [Bytes]
 MP_Group                5
 MP_Bcast             3312                  81907.
 MP_Allreduce          641                   2450.
 MP_Sync                 4
 MP_Alltoall            82
 MP_ISendRecv         2286                  62400.
 MP_Wait              5373
 MP_ISend             4060                  52264.
 MP_IRecv             4568                  50789.
 MP_Recv              1575                 294912.
 MP_Write_All            2                3912000.
 -------------------------------------------------------------------------------


 -------------------------------------------------------------------------------
 -                                                                             -
 -                           R E F E R E N C E S                               -
 -                                                                             -
 -------------------------------------------------------------------------------
 
 CP2K version 2022.1 (Development Version), the CP2K developers group (2022).
 CP2K is freely available from https://www.cp2k.org/ .

 Kuehne,Thomas D.; Iannuzzi,Marcella; Del Ben,Mauro;
 Rybkin,Vladimir V.; Seewald,Patrick; Stein,Frederick; Laino,Teodoro;
 Khaliullin,Rustam Z.; Schuett,Ole; Schiffmann,Florian; Golze,Dorothea;
 Wilhelm,Jan; Chulkov,Sergey; Bani-Hashemian,Mohammad Hossein;
 Weber,Valery; Borstnik,Urban; Taillefumier,Mathieu;
 Jakobovits,Alice Shoshana; Lazzaro,Alfio; Pabst,Hans; Mueller,Tiziano;
 Schade,Robert; Guidon,Manuel; Andermatt,Samuel; Holmberg,Nico;
 Schenter,Gregory K.; Hehn,Anna; Bussy,Augustin; Belleflamme,Fabian;
 Tabacchi,Gloria; Gloess,Andreas; Lass,Michael; Bethune,Iain;
 Mundy,Christopher J.; Plessl,Christian; Watkins,Matt;
 VandeVondele,Joost; Krack,Matthias; Hutter,Juerg. 
 The Journal of Chemical Physics, 152 (19), (2020). 
 CP2K: An electronic structure and molecular dynamics software package -
 Quickstep: Efficient and accurate electronic structure calculations.
 https://doi.org/10.1063/5.0007045

 Schuett, Ole; Messmer, Peter; Hutter, Juerg; VandeVondele, Joost. 
 Electronic Structure Calculations on Graphics Processing Units, John
 Wiley & Sons, Ltd, 173-190 (2016). 
 GPU-Accelerated Sparse Matrix-Matrix Multiplication for
 Linear Scaling Density Functional Theory.
 https://doi.org/10.1002/9781118670712.ch8

 Borstnik, U; VandeVondele, J; Weber, V; Hutter, J. 
 PARALLEL COMPUTING, 40 (5-6), 47-58 (2014). 
 Sparse matrix multiplication: The distributed block-compressed sparse
 row library.
 https://doi.org/10.1016/j.parco.2014.03.012

 Hutter, J; Iannuzzi, M; Schiffmann, F; VandeVondele, J. 
 WIREs Comput Mol Sci., 4 (1), 15-25 (2014). 
 CP2K: atomistic simulations of condensed matter systems.
 https://doi.org/10.1002/wcms.1159

 Marek, A; Blum, V; Johanni, R; Havu, V; Lang, B; Auckenthaler, T;
 Heinecke, A; Bungartz, H; Lederer, H. 
 Journal of Physics: Condensed Matter, 26 (21), (2014). 
 The ELPA library: scalable parallel eigenvalue solutions for
 electronic structure
 theory and computational science.
 https://doi.org/10.1088/0953-8984/26/21/213201

 VandeVondele, J; Hutter, J. 
 JOURNAL OF CHEMICAL PHYSICS, 127 (11), 114105 (2007). 
 Gaussian basis sets for accurate calculations on molecular systems in
 gas and condensed phases.
 https://doi.org/10.1063/1.2770708

 Krack, M. 
 THEORETICAL CHEMISTRY ACCOUNTS, 114 (1-3), 145-152 (2005). 
 Pseudopotentials for H to Kr optimized for gradient-corrected
 exchange-correlation functionals.
 https://doi.org/10.1007/s00214-005-0655-y

 VandeVondele, J; Krack, M; Mohamed, F; Parrinello, M; Chassaing, T;
 Hutter, J. COMPUTER PHYSICS COMMUNICATIONS, 167 (2), 103-128 (2005). 
 QUICKSTEP: Fast and accurate density functional calculations using a
 mixed Gaussian and plane waves approach.
 https://doi.org/10.1016/j.cpc.2004.12.014

 Frigo, M; Johnson, SG. 
 PROCEEDINGS OF THE IEEE, 93 (2), 216-231 (2005). 
 The design and implementation of FFTW3.
 https://doi.org/10.1109/JPROC.2004.840301

 Hartwigsen, C; Goedecker, S; Hutter, J. 
 PHYSICAL REVIEW B, 58 (7), 3641-3662 (1998). 
 Relativistic separable dual-space Gaussian pseudopotentials from H to Rn.
 https://doi.org/10.1103/PhysRevB.58.3641

 Lippert, G; Hutter, J; Parrinello, M. 
 MOLECULAR PHYSICS, 92 (3), 477-487 (1997). 
 A hybrid Gaussian and plane wave density functional scheme.
 https://doi.org/10.1080/002689797170220

 Goedecker, S; Teter, M; Hutter, J. 
 PHYSICAL REVIEW B, 54 (3), 1703-1710 (1996). 
 Separable dual-space Gaussian pseudopotentials.
 https://doi.org/10.1103/PhysRevB.54.1703


 -------------------------------------------------------------------------------
 -                                                                             -
 -                                T I M I N G                                  -
 -                                                                             -
 -------------------------------------------------------------------------------
 SUBROUTINE                       CALLS  ASD         SELF TIME        TOTAL TIME
                                MAXIMUM       AVERAGE  MAXIMUM  AVERAGE  MAXIMUM
 CP2K                                 1  1.0    0.102    0.114   58.267   58.271
 qs_energies                          1  2.0    0.004    0.007   57.576   57.606
 scf_env_do_scf                       1  3.0    0.000    0.001   37.670   37.685
 scf_env_do_scf_inner_loop            4  4.0    0.012    0.014   37.669   37.685
 qs_scf_new_mos_kp                    4  5.0    0.000    0.001   33.042   33.099
 do_general_diag_kp                   4  6.0    0.007    0.011   33.041   33.099
 cp_cfm_geeig                        80  7.0    0.002    0.003   29.890   29.905
 cp_cfm_heevd                        80  8.0   20.945   21.316   20.945   21.316
 scf_post_calculation_gpw             1  3.0    0.002    0.004    9.464    9.470
 write_available_results              1  4.0    0.000    0.001    9.462    9.466
 write_mo_free_results                1  5.0    1.616    1.623    9.462    9.466
 run_smeagol_bulktrans                1  3.0    0.071    7.913    8.479    8.503
 mp_waitall_1                      4953 10.1    8.020    8.120    8.020    8.120
 convert_dbcsr_to_distributed_s       4  4.0    0.002    0.050    7.918    7.983
 cp_cfm_triangular_multiply         240  8.0    6.795    7.205    6.795    7.205
 pw_to_cube                           2  6.0    1.540    1.678    3.239    3.241
 hirshfeld_integration                1  6.0    2.514    2.545    2.617    2.617
 qs_rho_update_rho_low                5  5.0    0.000    0.001    2.019    2.022
 calculate_rho_elec                   5  6.0    0.009    0.010    2.019    2.022
 calculate_hirshfeld_normalizat       1  6.0    1.818    1.840    1.886    1.892
 qs_ks_update_qs_env                  4  5.0    0.000    0.000    1.778    1.785
 rebuild_ks_matrix                    4  6.0    0.002    0.003    1.752    1.755
 qs_ks_build_kohn_sham_matrix         4  7.0    0.006    0.011    1.750    1.754
 pw_transfer                         57  8.8    0.008    0.011    1.656    1.717
 fft_wrap_pw1pw2                     49  9.8    0.001    0.001    1.601    1.662
 copy_dbcsr_to_fm                   365  6.9    0.004    0.005    1.372    1.583
 mp_file_write_all_chv                2  7.0    1.536    1.536    1.536    1.536
 fft_wrap_pw1pw2_200                 22 10.2    0.137    0.149    1.447    1.496
 kpoint_density_matrices              5  6.6    0.014    0.016    1.379    1.383
 qs_energies_init_hamiltonians        1  3.0    0.005    0.008    1.365    1.370
 cp_gemm                            400  7.6    0.000    0.001    1.364    1.367
 cp_gemm_fm_gemm                    400  8.6    0.001    0.001    1.363    1.366
 cp_fm_gemm                         400  9.6    1.363    1.366    1.363    1.366
 rs_pw_transfer                      39  9.1    0.001    0.001    1.071    1.285
 fft3d_ps                            49 11.8    0.715    0.752    1.204    1.273
 cp_cfm_cholesky_decompose           80  8.0    1.210    1.262    1.210    1.262
 density_rs2pw                        5  7.0    0.000    0.001    1.202    1.261
 dbcsr_desymmetrize_deep            685  7.5    0.184    0.193    1.076    1.223
 sum_up_and_integrate                 4  8.0    0.014    0.017    1.218    1.222
 integrate_v_rspace                   4  9.0    0.000    0.000    1.204    1.211
 -------------------------------------------------------------------------------

 The number of warnings for this run is : 1
 
 -------------------------------------------------------------------------------
  **** **** ******  **  PROGRAM ENDED AT                 2023-11-27 10:33:17.306
 ***** ** ***  *** **   PROGRAM RAN ON                                 nid001048
 **    ****   ******    PROGRAM RAN BY                                    cahart
 ***** **    ** ** **   PROGRAM PROCESS ID                                 82501
  **** **  *******  **  PROGRAM STOPPED IN /mnt/lustre/a2fs-work2/work/e05/e05/c
                                           ahart/postdoc/transport/cp2k-smeagol-
                                           examples/benchmarking/cp2k-smeagol/au
                                           -bdt/NEnergReal-64_kpoints-1-1-20/bul
                                           k-sz-q1_em-sz-q11/atoms-3756/bulk
