SIESTA 1.3.7  -- [1.3f1 release] (04 Feb 2004)
Architecture  : 
Compiler flags:  -O3
PARALLEL version

* Running on    4 nodes in parallel
>> Start of run:   8-OCT-2013  16:12:39

                           ***********************       
                           *  WELCOME TO SIESTA  *       
                           ***********************       

reinit: Reading from standard input
************************** Dump of input data file ****************************
#
SystemName                   mol            # Descriptive name of the system
SystemLabel                  mol            # Short name for naming files
NumberOfSpecies              1             # Number of species
NumberOfAtoms                2           # Number of atoms
%block ChemicalSpeciesLabel
 1    1   H
%endblock ChemicalSpeciesLabel
# ps
%block Ps.lmax
  H     3
%endblock Ps.lmax
# Basis
PAO.BasisType                split         # Type of basis ('nones', 'nonodes', 'split')
PAO.SplitNorm  0.15
%block PAO.Basis                           # basis
H     2      0.00
 n=1    0    2   E      2.07      0.50
   5.75  1.5
   1.000   1.000
 n=2    1    1   E      0.89      0.01
   5.500
   1.000
%endblock PAO.Basis
# lattice vectors
LatticeConstant              1.0 Ang
%block LatticeVectors
         20.00000        0.00000000       0.00000000
         0.00000        20.0000000        0.00000000
         0.00000000      0.00000000      20.0000
%endblock LatticeVectors
# coordinates
AtomicCoordinatesFormat      Ang
%block AtomicCoordinatesAndAtomicSpecies
    0.00000000    0.00000000   -0.01024134   1  H          1
    0.00000000    0.00000000    0.74024825   1  H          2
%endblock AtomicCoordinatesAndAtomicSpecies
# constrains in relaxation
#%block GeometryConstraints
#   position   from  1 to  54
#   position   from  -1 to  -45
#%endblock GeometryConstraints
# real space mesh grid
MeshCutoff                   800.0 Ry
%block GridCellSampling
  0.5  0.5   0.0
  0.5  0.0   0.5
  0.0  0.5   0.5
%endblock GridCellSampling
# reciprocal space
%block kgrid_Monkhorst_Pack
  1   0   0    0.0
  0   1   0    0.0
  0   0   1    0.0
%endblock kgrid_Monkhorst_Pack
#ProcessorY                   4
#BlockSize                    100
%block ExternalElectricField
   0.000 0.000 0.500 V/Ang
%endblock ExternalElectricField
# functional
xc.functional                GGA           # 'LDA', 'GGA'
xc.authors                   PBE           # 'CA'='PZ', 'PW92', 'PBE'
# scf
MaxSCFIterations             300
DM.MixingWeight              0.02
DM.Tolerance                 2.0E-5
DM.UseSaveDM                 T
DM.NumberPulay               6             # Pulay convergency accelerator
SolutionMethod               diagon
ElectronicTemperature        300 K         # Default value
# MD options
MD.TypeOfRun                 fc            # Type of dynamics:
MD.VariableCell              false         # if vary cell
MD.NumCGsteps                300             # Number of CG steps for relaxation
MD.MaxCGDispl                0.08 Ang     # Maximum atomic displacement at one step
MD.MaxForceTol               0.01 eV/Ang   # Tolerance in the maximum force min(fx, fy, fz)
MD.MaxStressTol              0.1 Gpa
MD.FCDispl                 0.02 ang
MD.FCIR                    T
MD.FCEigenVectors          T
MD.FCRead                  F
MD.FCAtomRestart           46
MD.FCAxisRestart           1
MD.InitialTimeStep         1
MD.FinalTimeStep           10
MD.LengthTimeStep          1.0 fs
MD.InitialTemperature      100.0 K
MD.TargetTemperature       100.0 K
#MD.TargetPressure          3.0 Gpa
#Siesta Output Flags
SaveHS                       F           # Hamiltonian and overlap in sparse
SaveRHO                      F
WriteMullikenPop             1
WriteForces                  T
WriteCoorStep                T
SaveElectrostaticPotential   T             # Hartree Potential file
************************** End of input data file *****************************

reinit: -----------------------------------------------------------------------
reinit: System Name: mol                                                        
reinit: -----------------------------------------------------------------------
reinit: System Label: mol                 
reinit: -----------------------------------------------------------------------

initatom: Reading input for the pseudopotentials and atomic orbitals ----------
 Species number:            1  Label: H Atomic number:           1
Ground state valence configuration:   1s01
Reading pseudopotential information in formatted form from H.psf
relmxkb: Read Max KB Ang. Momentum=    3 for species H

<basis_specs>
===============================================================================
H                    Z=   1    Mass=  1.0100        Charge=  0.0000    
Lmxo=1 Lmxkb=3     BasisType=split      Semic=F
L=0  Nsemic=0  Cnfigmx=1
          n=1  nzeta=2  polorb=0
               vcte:    2.0700    
               rinn:   0.50000    
                rcs:    5.7500      1.5000    
            lambdas:    1.0000      1.0000    
L=1  Nsemic=0  Cnfigmx=2
          n=1  nzeta=1  polorb=0
               vcte:   0.89000    
               rinn:   0.10000E-01
                rcs:    5.5000    
            lambdas:    1.0000    
-------------------------------------------------------------------------------
L=0  Nkbl=1  erefs: 0.17977+309
L=1  Nkbl=1  erefs: 0.17977+309
L=2  Nkbl=1  erefs: 0.17977+309
L=3  Nkbl=1  erefs: 0.17977+309
===============================================================================
</basis_specs>

atom: Called for H   (Z =   1)

read_vps: Pseudopotential generation method:
read_vps: ATM3      Troullier-Martins                       

read_vps: Valence configuration (pseudopotential and basis set generation):
1s( 1.00) rc: 1.89
2p( 0.00) rc: 1.80
3d( 0.00) rc: 1.49
4f( 0.00) rc: 1.49
read_vps: Spin-orbit interaction is not included in this calculation
Total valence charge:    1.00000

xc_check: Exchange-correlation functional:
xc_check: GGA Perdew, Burke & Ernzerhof 1996
V l=0 = -2*Zval/r beyond r=  1.8658
V l=1 = -2*Zval/r beyond r=  1.7970
V l=2 = -2*Zval/r beyond r=  1.8196
V l=3 = -2*Zval/r beyond r=  1.8196
All V_l potentials equal beyond r=  1.8658
This should be close to max(r_c) in ps generation
All pots = -2*Zval/r beyond r=  1.8658

VLOCAL1: 99.0% of the norm of Vloc inside     12.470 Ry
VLOCAL1: 99.9% of the norm of Vloc inside     28.418 Ry
atom: Maximum radius for 4*pi*r*r*local-pseudopot. charge    2.16811
atom: Maximum radius for r*vlocal+2*Zval:    1.84256
GHOST: No ghost state for L =  0
GHOST: No ghost state for L =  1
GHOST: No ghost state for L =  2
GHOST: No ghost state for L =  3

KBgen: Kleinman-Bylander projectors: 
   l= 0   rc=  2.011274   el= -0.477200   Ekb= -1.572097   kbcos= -0.493163
   l= 1   rc=  2.141150   el=  0.001076   Ekb= -0.356432   kbcos= -0.050277
   l= 2   rc=  2.195416   el=  0.002010   Ekb= -0.177656   kbcos= -0.007774
   l= 3   rc=  2.251056   el=  0.003122   Ekb= -0.068270   kbcos= -0.002268

KBgen: Total number of  Kleinman-Bylander projectors:   16
atom: -------------------------------------------------------------------------

atom: SANKEY-TYPE ORBITALS:
atom: Selected multiple-zeta basis: split     

SPLIT: Orbitals with angular momentum L= 0

SPLIT: Basis orbitals for state 1s

   izeta = 1
                 lambda =    1.000000
                     rc =    5.752124
                 energy =   -0.469599
                kinetic =    0.919264
    potential(screened) =   -1.388863
       potential(ionic) =   -1.911599

   izeta = 2
                 rmatch =    1.527112
              splitnorm =    0.807394
                 energy =    2.126033
                kinetic =    5.261681
    potential(screened) =   -3.135649
       potential(ionic) =   -3.696632

SPLIT: Orbitals with angular momentum L= 1

SPLIT: Basis orbitals for state 2p

   izeta = 1
                 lambda =    1.000000
                     rc =    5.471469
                 energy =    0.371359
                kinetic =    0.737398
    potential(screened) =   -0.366040
       potential(ionic) =   -0.791603
atom: Total number of Sankey-type orbitals:  5

atm_pop: Valence configuration(local Pseudopot. screening):
 1s( 1.00)                                                            
 2p( 0.00)                                                            
Vna: chval, zval:    1.00000   1.00000

Vna:  Cut-off radius for the neutral-atom potential:   5.752124

atom: _________________________________________________________________________

prinput: Basis input ----------------------------------------------------------

PAO.BasisType split     

%block ChemicalSpeciesLabel
    1    1 H                       # Species index, atomic number, species label
%endblock ChemicalSpeciesLabel

%block PAO.Basis                 # Define Basis set
H           2                    # Species label, number of l-shells
 n=1   0   2                         # n, l, Nzeta 
   5.752      1.527   
   1.000      1.000   
 n=2   1   1                         # n, l, Nzeta 
   5.471   
   1.000   
%endblock PAO.Basis

prinput: ----------------------------------------------------------------------


siesta: ******************** Simulation parameters ****************************
siesta:
siesta: The following are some of the parameters of the simulation.
siesta: A complete list of the parameters used, including defect values,
siesta: can be found in file out.fdf
siesta:
coor:   Atomic-coordinates input format  =     Cartesian coordinates
coor:                                          (in Angstroms)
redata: Number of spin components        =     1
redata: SpinOrbit                        =     0
redata: Long output                      =     F
redata: Number of Atomic Species         =     1
redata: Charge density info will appear in .RHO file
redata: Write Mulliken Pop.              =     Atomic and Orbital charges
redata: Mesh Cutoff                      =   800.0000  Ry
redata: Net charge of the system         =     0.0000 |e|
redata: Max. number of SCF Iter          =   300
redata: One Pulay mixing every           =     6 iterations
redata: Mix DM in first SCF step ?       =     F
redata: Write Pulay info on disk?        =     F
redata: New DM Mixing Weight             =     0.0200
redata: No kicks to SCF
redata: DM Mixing Weight for Kicks       =     0.5000
redata: DM Tolerance for SCF             =     0.000020
redata: Use continuation files for DM    =     T
redata: Neglect nonoverlap interactions  =     F
redata: Method of Calculation            =     Diagonalization
redata: Divide and Conquer               =     F
redata: Electronic Temperature           =     0.0019  Ry
redata: Fix the spin of the system       =     F
redata: Dynamics option                  =     Force Constants Matrix Calculation
redata: Atomic displ for force constants =     0.0378  Bohr
redata: First atom to move               =      1
redata: Last atom to move                =      2
redata: Read previous FC                 =     F
redata: Acoustic sum rule                =     T
redata: Calculate Eigen Vectors          =     T
redata: Calculate Infrared Intensity     =     T
redata: ***********************************************************************

siesta: Atomic coordinates (Bohr) and species
siesta:      0.00000   0.00000  -0.01935  1        1
siesta:      0.00000   0.00000   1.39887  1        2

initatomlists: Number of atoms, orbitals, and projectors:      2    10    32

siesta: System type = molecule  
 Nodes, Orbitals           4          10
 blocksizedefault           2

* ProcessorY, Blocksize:    2   2

 Using EM.ParallelOverKNum =           1
 label:           1 H                              1 s      
 label:           2 H                              1 s      
 label:           3 H                              1 py     
 label:           4 H                              1 pz     
 label:           5 H                              1 px     
 label:           6 H                              2 s      
 label:           7 H                              2 s      
 label:           8 H                              2 py     
 label:           9 H                              2 pz     
 label:          10 H                              2 px     
 
* Maximum dynamic memory allocated =     1 MB

siesta:                 ==============================
                        Begin FC step =     0 of    12
                            Undisplaced coordinates
                        ==============================

outcoor: Atomic coordinates (Ang):                          
    0.00000000    0.00000000   -0.01024134   1  H          1
    0.00000000    0.00000000    0.74024825   1  H          2

read_ldau The LDA+U method used is from Czyzky PRB 49 14211

iodm: Reading Density Matrix from files

mol.DM                           

InitMesh: MESH =   360 x   360 x   360 =    46656000
InitMesh: Mesh cutoff (required, used) =   800.000   895.461 Ry

efield: External electric field =    0.000000    0.000000    0.019447 Ry/Bohr/e
 
* Maximum dynamic memory allocated =   583 MB

stepf: Fermi-Dirac step function

siesta: Program's energy decomposition (eV):
siesta: Eions   =        26.074526
siesta: Ena     =         4.289714
siesta: Ekin    =        26.375208
siesta: Enl     =       -17.145506
siesta: DEna    =        -1.453999
siesta: DUscf   =         0.254476
siesta: DUext   =        -0.018141
siesta: Exc     =       -17.572235
siesta: eta*DQ  =         0.000000
siesta: Emadel  =         0.000000
siesta: Eharris =       -31.345008
siesta: Eso     =         0.000000
siesta: Etot    =       -31.345009
siesta: FreeEng =       -31.345009

siesta: iscf   Eharris(eV)      E_KS(eV)   FreeEng(eV)     dDmax   Ef(eV)
siesta:    1      -31.3450      -31.3450      -31.3450   0.00002  -4.9176
timer: Routine,Calls,Time,% = IterSCF        1      75.955  96.87
grdsam: Reading %block GridCellSampling
grdsam: Grid-cell sampling, point   0
grdsam: Generating displacements for grid-cell sampling
grdsam: Grid-cell sampling, point   1
grdsam: Grid-cell sampling, point   2
grdsam: Grid-cell sampling, point   3

siesta: E_KS(eV) =              -31.3450

siesta: E_KS - E_eggbox =       -31.3450

siesta: Atomic forces (eV/Ang):
     1    0.000000    0.000000    0.000080
     2    0.000000    0.000000    0.000047
----------------------------------------
 Tot    0.000000    0.000000    0.000126
----------------------------------------
 Max    0.000080
 Res    0.000038    sqrt( Sum f_i^2 / 3N )
----------------------------------------
 Max    0.000080    constrained
 
mulliken: Atomic and Orbital Populations:

Species: H                   
Atom  Qatom  Qorb
               1s      1s      2py     2pz     2px     
   1  1.015   0.922   0.083   0.000   0.010   0.000
   2  0.985   0.884   0.083   0.000   0.019   0.000

mulliken: Qtot =    2.000
 
* Maximum dynamic memory allocated =   583 MB

siesta:                 ==============================
                        Begin FC step =     1 of    12
                            displace atom        1
                            in direction         1
                        by  -0.0378 Bohr =  -0.0200 Ang
                        ==============================

outcoor: Atomic coordinates (Ang):                          
   -0.02000000    0.00000000   -0.01024134   1  H          1
    0.00000000    0.00000000    0.74024825   1  H          2

siesta: iscf   Eharris(eV)      E_KS(eV)   FreeEng(eV)     dDmax   Ef(eV)
siesta:    1      -31.3450      -31.3450      -31.3450   0.00068  -4.9160
siesta:    2      -31.3450      -31.3450      -31.3450   0.00003  -4.9168
siesta:    3      -31.3450      -31.3450      -31.3450   0.00002  -4.9168
grdsam: Grid-cell sampling, point   0
grdsam: Grid-cell sampling, point   1
grdsam: Grid-cell sampling, point   2
grdsam: Grid-cell sampling, point   3

siesta: E_KS(eV) =              -31.3450

siesta: Atomic forces (eV/Ang):
     1    0.000464    0.000000    0.009262
     2   -0.000455    0.000000   -0.009250
----------------------------------------
 Tot    0.000008    0.000000    0.000013
----------------------------------------
 Max    0.009262
 Res    0.005351    sqrt( Sum f_i^2 / 3N )
----------------------------------------
 Max    0.009262    constrained
 
mulliken: Atomic and Orbital Populations:

Species: H                   
Atom  Qatom  Qorb
               1s      1s      2py     2pz     2px     
   1  1.015   0.922   0.083   0.000   0.010   0.000
   2  0.985   0.884   0.083   0.000   0.019   0.000

mulliken: Qtot =    2.000
 
* Maximum dynamic memory allocated =   584 MB

siesta:                 ==============================
                        Begin FC step =     2 of    12
                            displace atom        1
                            in direction         1
                        by   0.0378 Bohr =   0.0200 Ang
                        ==============================

outcoor: Atomic coordinates (Ang):                          
    0.02000000    0.00000000   -0.01024134   1  H          1
    0.00000000    0.00000000    0.74024825   1  H          2

siesta: iscf   Eharris(eV)      E_KS(eV)   FreeEng(eV)     dDmax   Ef(eV)
siesta:    1      -31.3450      -31.3450      -31.3450   0.00137  -4.9169
siesta:    2      -31.3450      -31.3450      -31.3450   0.00005  -4.9167
siesta:    3      -31.3450      -31.3450      -31.3450   0.00001  -4.9167
grdsam: Grid-cell sampling, point   0
grdsam: Grid-cell sampling, point   1
grdsam: Grid-cell sampling, point   2
grdsam: Grid-cell sampling, point   3

siesta: E_KS(eV) =              -31.3450

siesta: Atomic forces (eV/Ang):
     1   -0.000439    0.000000    0.009516
     2    0.000431    0.000000   -0.009503
----------------------------------------
 Tot   -0.000008    0.000000    0.000013
----------------------------------------
 Max    0.009516
 Res    0.005496    sqrt( Sum f_i^2 / 3N )
----------------------------------------
 Max    0.009516    constrained
 
mulliken: Atomic and Orbital Populations:

Species: H                   
Atom  Qatom  Qorb
               1s      1s      2py     2pz     2px     
   1  1.015   0.922   0.083   0.000   0.010   0.000
   2  0.985   0.884   0.083   0.000   0.019   0.000

mulliken: Qtot =    2.000
 
* Maximum dynamic memory allocated =   584 MB

siesta:                 ==============================
                        Begin FC step =     3 of    12
                            displace atom        1
                            in direction         2
                        by  -0.0378 Bohr =  -0.0200 Ang
                        ==============================

outcoor: Atomic coordinates (Ang):                          
    0.00000000   -0.02000000   -0.01024134   1  H          1
    0.00000000    0.00000000    0.74024825   1  H          2

siesta: iscf   Eharris(eV)      E_KS(eV)   FreeEng(eV)     dDmax   Ef(eV)
siesta:    1      -31.3450      -31.3450      -31.3450   0.00069  -4.9167
siesta:    2      -31.3450      -31.3450      -31.3450   0.00003  -4.9167
siesta:    3      -31.3450      -31.3450      -31.3450   0.00000  -4.9167
grdsam: Grid-cell sampling, point   0
grdsam: Grid-cell sampling, point   1
grdsam: Grid-cell sampling, point   2
grdsam: Grid-cell sampling, point   3

siesta: E_KS(eV) =              -31.3450

siesta: Atomic forces (eV/Ang):
     1   -0.000002    0.000425    0.009479
     2    0.000001   -0.000417   -0.009466
----------------------------------------
 Tot   -0.000001    0.000008    0.000013
----------------------------------------
 Max    0.009479
 Res    0.005475    sqrt( Sum f_i^2 / 3N )
----------------------------------------
 Max    0.009479    constrained
 
mulliken: Atomic and Orbital Populations:

Species: H                   
Atom  Qatom  Qorb
               1s      1s      2py     2pz     2px     
   1  1.015   0.922   0.083   0.000   0.010   0.000
   2  0.985   0.884   0.083   0.000   0.019   0.000

mulliken: Qtot =    2.000
 
* Maximum dynamic memory allocated =   584 MB

siesta:                 ==============================
                        Begin FC step =     4 of    12
                            displace atom        1
                            in direction         2
                        by   0.0378 Bohr =   0.0200 Ang
                        ==============================

outcoor: Atomic coordinates (Ang):                          
    0.00000000    0.02000000   -0.01024134   1  H          1
    0.00000000    0.00000000    0.74024825   1  H          2

siesta: iscf   Eharris(eV)      E_KS(eV)   FreeEng(eV)     dDmax   Ef(eV)
siesta:    1      -31.3450      -31.3450      -31.3450   0.00137  -4.9168
siesta:    2      -31.3450      -31.3450      -31.3450   0.00005  -4.9167
siesta:    3      -31.3450      -31.3450      -31.3450   0.00001  -4.9167
grdsam: Grid-cell sampling, point   0
grdsam: Grid-cell sampling, point   1
grdsam: Grid-cell sampling, point   2
grdsam: Grid-cell sampling, point   3

siesta: E_KS(eV) =              -31.3450

siesta: Atomic forces (eV/Ang):
     1    0.000000   -0.000434    0.009485
     2    0.000000    0.000426   -0.009472
----------------------------------------
 Tot    0.000001   -0.000008    0.000013
----------------------------------------
 Max    0.009485
 Res    0.005478    sqrt( Sum f_i^2 / 3N )
----------------------------------------
 Max    0.009485    constrained
 
mulliken: Atomic and Orbital Populations:

Species: H                   
Atom  Qatom  Qorb
               1s      1s      2py     2pz     2px     
   1  1.015   0.922   0.083   0.000   0.010   0.000
   2  0.985   0.884   0.083   0.000   0.019   0.000

mulliken: Qtot =    2.000
 
* Maximum dynamic memory allocated =   584 MB

siesta:                 ==============================
                        Begin FC step =     5 of    12
                            displace atom        1
                            in direction         3
                        by  -0.0378 Bohr =  -0.0200 Ang
                        ==============================

outcoor: Atomic coordinates (Ang):                          
    0.00000000    0.00000000   -0.03024134   1  H          1
    0.00000000    0.00000000    0.74024825   1  H          2

siesta: iscf   Eharris(eV)      E_KS(eV)   FreeEng(eV)     dDmax   Ef(eV)
siesta:    1      -31.3383      -31.3364      -31.3364   0.00524  -4.7736
siesta:    2      -31.3381      -31.3381      -31.3381   0.00111  -4.8328
siesta:    3      -31.3381      -31.3380      -31.3380   0.00042  -4.8265
siesta:    4      -31.3381      -31.3381      -31.3381   0.00011  -4.8272
siesta:    5      -31.3381      -31.3381      -31.3381   0.00010  -4.8272
siesta:    6      -31.3381      -31.3381      -31.3381   0.00010  -4.8272
siesta:    7      -31.3381      -31.3381      -31.3381   0.00010  -4.8272
siesta:    8      -31.3381      -31.3381      -31.3381   0.00009  -4.8272
siesta:    9      -31.3381      -31.3381      -31.3381   0.00009  -4.8272
siesta:   10      -31.3381      -31.3381      -31.3381   0.00009  -4.8272
siesta:   11      -31.3381      -31.3381      -31.3381   0.00009  -4.8273
siesta:   12      -31.3381      -31.3381      -31.3381   0.00008  -4.8273
siesta:   13      -31.3381      -31.3381      -31.3381   0.00008  -4.8273
siesta:   14      -31.3381      -31.3381      -31.3381   0.00008  -4.8273
siesta:   15      -31.3381      -31.3381      -31.3381   0.00008  -4.8273
siesta:   16      -31.3381      -31.3381      -31.3381   0.00007  -4.8273
siesta:   17      -31.3381      -31.3381      -31.3381   0.00007  -4.8273
siesta:   18      -31.3381      -31.3381      -31.3381   0.00007  -4.8273
siesta:   19      -31.3381      -31.3381      -31.3381   0.00007  -4.8273
siesta:   20      -31.3381      -31.3381      -31.3381   0.00006  -4.8273
siesta:   21      -31.3381      -31.3381      -31.3381   0.00006  -4.8273
siesta:   22      -31.3381      -31.3381      -31.3381   0.00006  -4.8273
siesta:   23      -31.3381      -31.3381      -31.3381   0.00006  -4.8273
siesta:   24      -31.3381      -31.3381      -31.3381   0.00006  -4.8273
siesta:   25      -31.3381      -31.3381      -31.3381   0.00006  -4.8273
siesta:   26      -31.3381      -31.3381      -31.3381   0.00005  -4.8273
siesta:   27      -31.3381      -31.3381      -31.3381   0.00005  -4.8274
siesta:   28      -31.3381      -31.3381      -31.3381   0.00005  -4.8274
siesta:   29      -31.3381      -31.3381      -31.3381   0.00005  -4.8274
siesta:   30      -31.3381      -31.3381      -31.3381   0.00005  -4.8274
siesta:   31      -31.3381      -31.3381      -31.3381   0.00005  -4.8274
siesta:   32      -31.3381      -31.3381      -31.3381   0.00004  -4.8274
siesta:   33      -31.3381      -31.3381      -31.3381   0.00004  -4.8274
siesta:   34      -31.3381      -31.3381      -31.3381   0.00004  -4.8274
siesta:   35      -31.3381      -31.3381      -31.3381   0.00004  -4.8274
siesta:   36      -31.3381      -31.3381      -31.3381   0.00004  -4.8274
siesta:   37      -31.3381      -31.3381      -31.3381   0.00004  -4.8274
siesta:   38      -31.3381      -31.3381      -31.3381   0.00004  -4.8274
siesta:   39      -31.3381      -31.3381      -31.3381   0.00004  -4.8274
siesta:   40      -31.3381      -31.3381      -31.3381   0.00003  -4.8274
siesta:   41      -31.3381      -31.3381      -31.3381   0.00003  -4.8274
siesta:   42      -31.3381      -31.3381      -31.3381   0.00003  -4.8274
siesta:   43      -31.3381      -31.3381      -31.3381   0.00003  -4.8274
siesta:   44      -31.3381      -31.3381      -31.3381   0.00003  -4.8274
siesta:   45      -31.3381      -31.3381      -31.3381   0.00003  -4.8274
siesta:   46      -31.3381      -31.3381      -31.3381   0.00003  -4.8274
siesta:   47      -31.3381      -31.3381      -31.3381   0.00003  -4.8274
siesta:   48      -31.3381      -31.3381      -31.3381   0.00003  -4.8274
siesta:   49      -31.3381      -31.3381      -31.3381   0.00003  -4.8274
siesta:   50      -31.3381      -31.3381      -31.3381   0.00003  -4.8274
siesta:   51      -31.3381      -31.3381      -31.3381   0.00003  -4.8274
siesta:   52      -31.3381      -31.3381      -31.3381   0.00003  -4.8274
siesta:   53      -31.3381      -31.3381      -31.3381   0.00003  -4.8275
siesta:   54      -31.3381      -31.3381      -31.3381   0.00003  -4.8275
siesta:   55      -31.3381      -31.3381      -31.3381   0.00003  -4.8275
siesta:   56      -31.3381      -31.3381      -31.3381   0.00003  -4.8275
siesta:   57      -31.3381      -31.3381      -31.3381   0.00002  -4.8275
siesta:   58      -31.3381      -31.3381      -31.3381   0.00002  -4.8275
siesta:   59      -31.3381      -31.3381      -31.3381   0.00002  -4.8275
siesta:   60      -31.3381      -31.3381      -31.3381   0.00002  -4.8275
siesta:   61      -31.3381      -31.3381      -31.3381   0.00002  -4.8275
siesta:   62      -31.3381      -31.3381      -31.3381   0.00002  -4.8275
siesta:   63      -31.3381      -31.3381      -31.3381   0.00002  -4.8275
siesta:   64      -31.3381      -31.3381      -31.3381   0.00002  -4.8275
siesta:   65      -31.3381      -31.3381      -31.3381   0.00002  -4.8275
siesta:   66      -31.3381      -31.3381      -31.3381   0.00002  -4.8275
siesta:   67      -31.3381      -31.3381      -31.3381   0.00002  -4.8275
siesta:   68      -31.3381      -31.3381      -31.3381   0.00002  -4.8275
siesta:   69      -31.3381      -31.3381      -31.3381   0.00002  -4.8275
grdsam: Grid-cell sampling, point   0
grdsam: Grid-cell sampling, point   1
grdsam: Grid-cell sampling, point   2
grdsam: Grid-cell sampling, point   3

siesta: E_KS(eV) =              -31.3381

siesta: Atomic forces (eV/Ang):
     1    0.000000    0.000251    0.671262
     2    0.000000   -0.000251   -0.671205
----------------------------------------
 Tot    0.000000    0.000000    0.000056
----------------------------------------
 Max    0.671262
 Res    0.387537    sqrt( Sum f_i^2 / 3N )
----------------------------------------
 Max    0.671262    constrained
 
mulliken: Atomic and Orbital Populations:

Species: H                   
Atom  Qatom  Qorb
               1s      1s      2py     2pz     2px     
   1  1.015   0.927   0.078   0.000   0.009   0.000
   2  0.985   0.888   0.078   0.000   0.019   0.000

mulliken: Qtot =    2.000
 
* Maximum dynamic memory allocated =   584 MB

siesta:                 ==============================
                        Begin FC step =     6 of    12
                            displace atom        1
                            in direction         3
                        by   0.0378 Bohr =   0.0200 Ang
                        ==============================

outcoor: Atomic coordinates (Ang):                          
    0.00000000    0.00000000    0.00975866   1  H          1
    0.00000000    0.00000000    0.74024825   1  H          2

siesta: iscf   Eharris(eV)      E_KS(eV)   FreeEng(eV)     dDmax   Ef(eV)
siesta:    1      -31.3383      -31.3302      -31.3302   0.01066  -5.0958
siesta:    2      -31.3376      -31.3375      -31.3375   0.00228  -4.9675
siesta:    3      -31.3375      -31.3367      -31.3367   0.00073  -4.9826
siesta:    4      -31.3375      -31.3374      -31.3374   0.00027  -4.9798
siesta:    5      -31.3375      -31.3374      -31.3374   0.00027  -4.9798
siesta:    6      -31.3375      -31.3374      -31.3374   0.00026  -4.9798
siesta:    7      -31.3375      -31.3374      -31.3374   0.00025  -4.9798
siesta:    8      -31.3375      -31.3374      -31.3374   0.00025  -4.9799
siesta:    9      -31.3375      -31.3374      -31.3374   0.00024  -4.9799
siesta:   10      -31.3375      -31.3374      -31.3374   0.00023  -4.9799
siesta:   11      -31.3375      -31.3374      -31.3374   0.00023  -4.9799
siesta:   12      -31.3375      -31.3374      -31.3374   0.00022  -4.9799
siesta:   13      -31.3375      -31.3374      -31.3374   0.00022  -4.9799
siesta:   14      -31.3375      -31.3374      -31.3374   0.00021  -4.9799
siesta:   15      -31.3375      -31.3374      -31.3374   0.00020  -4.9799
siesta:   16      -31.3375      -31.3374      -31.3374   0.00020  -4.9799
siesta:   17      -31.3375      -31.3374      -31.3374   0.00019  -4.9799
siesta:   18      -31.3375      -31.3374      -31.3374   0.00019  -4.9799
siesta:   19      -31.3375      -31.3374      -31.3374   0.00018  -4.9799
siesta:   20      -31.3375      -31.3374      -31.3374   0.00018  -4.9799
siesta:   21      -31.3375      -31.3374      -31.3374   0.00017  -4.9799
siesta:   22      -31.3375      -31.3374      -31.3374   0.00017  -4.9799
siesta:   23      -31.3375      -31.3374      -31.3374   0.00017  -4.9799
siesta:   24      -31.3375      -31.3374      -31.3374   0.00016  -4.9799
siesta:   25      -31.3375      -31.3375      -31.3375   0.00016  -4.9800
siesta:   26      -31.3375      -31.3375      -31.3375   0.00015  -4.9800
siesta:   27      -31.3375      -31.3375      -31.3375   0.00015  -4.9800
siesta:   28      -31.3375      -31.3375      -31.3375   0.00015  -4.9800
siesta:   29      -31.3375      -31.3375      -31.3375   0.00014  -4.9800
siesta:   30      -31.3375      -31.3375      -31.3375   0.00014  -4.9800
siesta:   31      -31.3375      -31.3375      -31.3375   0.00013  -4.9800
siesta:   32      -31.3375      -31.3375      -31.3375   0.00013  -4.9800
siesta:   33      -31.3375      -31.3375      -31.3375   0.00013  -4.9800
siesta:   34      -31.3375      -31.3375      -31.3375   0.00012  -4.9800
siesta:   35      -31.3375      -31.3375      -31.3375   0.00012  -4.9800
siesta:   36      -31.3375      -31.3375      -31.3375   0.00012  -4.9800
siesta:   37      -31.3375      -31.3375      -31.3375   0.00012  -4.9800
siesta:   38      -31.3375      -31.3375      -31.3375   0.00011  -4.9800
siesta:   39      -31.3375      -31.3375      -31.3375   0.00011  -4.9800
siesta:   40      -31.3375      -31.3375      -31.3375   0.00011  -4.9800
siesta:   41      -31.3375      -31.3375      -31.3375   0.00010  -4.9800
siesta:   42      -31.3375      -31.3375      -31.3375   0.00010  -4.9800
siesta:   43      -31.3375      -31.3375      -31.3375   0.00010  -4.9800
siesta:   44      -31.3375      -31.3375      -31.3375   0.00010  -4.9800
siesta:   45      -31.3375      -31.3375      -31.3375   0.00009  -4.9800
siesta:   46      -31.3375      -31.3375      -31.3375   0.00009  -4.9800
siesta:   47      -31.3375      -31.3375      -31.3375   0.00009  -4.9800
siesta:   48      -31.3375      -31.3375      -31.3375   0.00009  -4.9800
siesta:   49      -31.3375      -31.3375      -31.3375   0.00008  -4.9800
siesta:   50      -31.3375      -31.3375      -31.3375   0.00008  -4.9800
siesta:   51      -31.3375      -31.3375      -31.3375   0.00008  -4.9800
siesta:   52      -31.3375      -31.3375      -31.3375   0.00008  -4.9801
siesta:   53      -31.3375      -31.3375      -31.3375   0.00008  -4.9801
siesta:   54      -31.3375      -31.3375      -31.3375   0.00007  -4.9801
siesta:   55      -31.3375      -31.3375      -31.3375   0.00007  -4.9801
siesta:   56      -31.3375      -31.3375      -31.3375   0.00007  -4.9801
siesta:   57      -31.3375      -31.3375      -31.3375   0.00007  -4.9801
siesta:   58      -31.3375      -31.3375      -31.3375   0.00007  -4.9801
siesta:   59      -31.3375      -31.3375      -31.3375   0.00007  -4.9801
siesta:   60      -31.3375      -31.3375      -31.3375   0.00006  -4.9801
siesta:   61      -31.3375      -31.3375      -31.3375   0.00006  -4.9801
siesta:   62      -31.3375      -31.3375      -31.3375   0.00006  -4.9801
siesta:   63      -31.3375      -31.3375      -31.3375   0.00006  -4.9801
siesta:   64      -31.3375      -31.3375      -31.3375   0.00006  -4.9801
siesta:   65      -31.3375      -31.3375      -31.3375   0.00006  -4.9801
siesta:   66      -31.3375      -31.3375      -31.3375   0.00006  -4.9801
siesta:   67      -31.3375      -31.3375      -31.3375   0.00005  -4.9801
siesta:   68      -31.3375      -31.3375      -31.3375   0.00005  -4.9801
siesta:   69      -31.3375      -31.3375      -31.3375   0.00005  -4.9801
siesta:   70      -31.3375      -31.3375      -31.3375   0.00005  -4.9801
siesta:   71      -31.3375      -31.3375      -31.3375   0.00005  -4.9801
siesta:   72      -31.3375      -31.3375      -31.3375   0.00005  -4.9801
siesta:   73      -31.3375      -31.3375      -31.3375   0.00005  -4.9801
siesta:   74      -31.3375      -31.3375      -31.3375   0.00005  -4.9801
siesta:   75      -31.3375      -31.3375      -31.3375   0.00004  -4.9801
siesta:   76      -31.3375      -31.3375      -31.3375   0.00004  -4.9801
siesta:   77      -31.3375      -31.3375      -31.3375   0.00004  -4.9801
siesta:   78      -31.3375      -31.3375      -31.3375   0.00004  -4.9801
siesta:   79      -31.3375      -31.3375      -31.3375   0.00004  -4.9801
siesta:   80      -31.3375      -31.3375      -31.3375   0.00004  -4.9801
siesta:   81      -31.3375      -31.3375      -31.3375   0.00004  -4.9801
siesta:   82      -31.3375      -31.3375      -31.3375   0.00004  -4.9801
siesta:   83      -31.3375      -31.3375      -31.3375   0.00004  -4.9801
siesta:   84      -31.3375      -31.3375      -31.3375   0.00004  -4.9801
siesta:   85      -31.3375      -31.3375      -31.3375   0.00003  -4.9801
siesta:   86      -31.3375      -31.3375      -31.3375   0.00003  -4.9801
siesta:   87      -31.3375      -31.3375      -31.3375   0.00003  -4.9801
siesta:   88      -31.3375      -31.3375      -31.3375   0.00003  -4.9801
siesta:   89      -31.3375      -31.3375      -31.3375   0.00003  -4.9801
siesta:   90      -31.3375      -31.3375      -31.3375   0.00003  -4.9801
siesta:   91      -31.3375      -31.3375      -31.3375   0.00003  -4.9801
siesta:   92      -31.3375      -31.3375      -31.3375   0.00003  -4.9801
siesta:   93      -31.3375      -31.3375      -31.3375   0.00003  -4.9801
siesta:   94      -31.3375      -31.3375      -31.3375   0.00003  -4.9801
siesta:   95      -31.3375      -31.3375      -31.3375   0.00003  -4.9801
siesta:   96      -31.3375      -31.3375      -31.3375   0.00003  -4.9801
siesta:   97      -31.3375      -31.3375      -31.3375   0.00003  -4.9801
siesta:   98      -31.3375      -31.3375      -31.3375   0.00003  -4.9801
siesta:   99      -31.3375      -31.3375      -31.3375   0.00002  -4.9801
siesta:  100      -31.3375      -31.3375      -31.3375   0.00002  -4.9801
siesta:  101      -31.3375      -31.3375      -31.3375   0.00002  -4.9801
siesta:  102      -31.3375      -31.3375      -31.3375   0.00002  -4.9801
siesta:  103      -31.3375      -31.3375      -31.3375   0.00002  -4.9801
siesta:  104      -31.3375      -31.3375      -31.3375   0.00002  -4.9801
siesta:  105      -31.3375      -31.3375      -31.3375   0.00002  -4.9801
siesta:  106      -31.3375      -31.3375      -31.3375   0.00002  -4.9801
siesta:  107      -31.3375      -31.3375      -31.3375   0.00002  -4.9801
siesta:  108      -31.3375      -31.3375      -31.3375   0.00002  -4.9801
siesta:  109      -31.3375      -31.3375      -31.3375   0.00002  -4.9801
grdsam: Grid-cell sampling, point   0
grdsam: Grid-cell sampling, point   1
grdsam: Grid-cell sampling, point   2
grdsam: Grid-cell sampling, point   3

siesta: E_KS(eV) =              -31.3375

siesta: Atomic forces (eV/Ang):
     1    0.000000    0.000001   -0.775699
     2    0.000000   -0.000001    0.775666
----------------------------------------
 Tot    0.000000    0.000000   -0.000033
----------------------------------------
 Max    0.775699
 Res    0.447840    sqrt( Sum f_i^2 / 3N )
----------------------------------------
 Max    0.775699    constrained
 
mulliken: Atomic and Orbital Populations:

Species: H                   
Atom  Qatom  Qorb
               1s      1s      2py     2pz     2px     
   1  1.015   0.917   0.088   0.000   0.010   0.000
   2  0.985   0.879   0.088   0.000   0.019   0.000

mulliken: Qtot =    2.000
 
* Maximum dynamic memory allocated =   584 MB

siesta:                 ==============================
                        Begin FC step =     7 of    12
                            displace atom        2
                            in direction         1
                        by  -0.0378 Bohr =  -0.0200 Ang
                        ==============================

outcoor: Atomic coordinates (Ang):                          
    0.00000000    0.00000000   -0.01024134   1  H          1
   -0.02000000    0.00000000    0.74024825   1  H          2

siesta: iscf   Eharris(eV)      E_KS(eV)   FreeEng(eV)     dDmax   Ef(eV)
siesta:    1      -31.3452      -31.3431      -31.3431   0.00542  -4.8590
siesta:    2      -31.3450      -31.3450      -31.3450   0.00113  -4.9227
siesta:    3      -31.3450      -31.3448      -31.3448   0.00039  -4.9156
siesta:    4      -31.3450      -31.3450      -31.3450   0.00012  -4.9163
siesta:    5      -31.3450      -31.3450      -31.3450   0.00012  -4.9163
siesta:    6      -31.3450      -31.3450      -31.3450   0.00011  -4.9163
siesta:    7      -31.3450      -31.3450      -31.3450   0.00011  -4.9164
siesta:    8      -31.3450      -31.3450      -31.3450   0.00011  -4.9164
siesta:    9      -31.3450      -31.3450      -31.3450   0.00010  -4.9164
siesta:   10      -31.3450      -31.3450      -31.3450   0.00010  -4.9164
siesta:   11      -31.3450      -31.3450      -31.3450   0.00010  -4.9164
siesta:   12      -31.3450      -31.3450      -31.3450   0.00009  -4.9164
siesta:   13      -31.3450      -31.3450      -31.3450   0.00009  -4.9164
siesta:   14      -31.3450      -31.3450      -31.3450   0.00009  -4.9164
siesta:   15      -31.3450      -31.3450      -31.3450   0.00009  -4.9164
siesta:   16      -31.3450      -31.3450      -31.3450   0.00008  -4.9164
siesta:   17      -31.3450      -31.3450      -31.3450   0.00008  -4.9164
siesta:   18      -31.3450      -31.3450      -31.3450   0.00008  -4.9164
siesta:   19      -31.3450      -31.3450      -31.3450   0.00008  -4.9164
siesta:   20      -31.3450      -31.3450      -31.3450   0.00007  -4.9165
siesta:   21      -31.3450      -31.3450      -31.3450   0.00007  -4.9165
siesta:   22      -31.3450      -31.3450      -31.3450   0.00007  -4.9165
siesta:   23      -31.3450      -31.3450      -31.3450   0.00007  -4.9165
siesta:   24      -31.3450      -31.3450      -31.3450   0.00006  -4.9165
siesta:   25      -31.3450      -31.3450      -31.3450   0.00006  -4.9165
siesta:   26      -31.3450      -31.3450      -31.3450   0.00006  -4.9165
siesta:   27      -31.3450      -31.3450      -31.3450   0.00006  -4.9165
siesta:   28      -31.3450      -31.3450      -31.3450   0.00006  -4.9165
siesta:   29      -31.3450      -31.3450      -31.3450   0.00006  -4.9165
siesta:   30      -31.3450      -31.3450      -31.3450   0.00005  -4.9165
siesta:   31      -31.3450      -31.3450      -31.3450   0.00005  -4.9165
siesta:   32      -31.3450      -31.3450      -31.3450   0.00005  -4.9165
siesta:   33      -31.3450      -31.3450      -31.3450   0.00005  -4.9165
siesta:   34      -31.3450      -31.3450      -31.3450   0.00005  -4.9165
siesta:   35      -31.3450      -31.3450      -31.3450   0.00005  -4.9165
siesta:   36      -31.3450      -31.3450      -31.3450   0.00004  -4.9165
siesta:   37      -31.3450      -31.3450      -31.3450   0.00004  -4.9165
siesta:   38      -31.3450      -31.3450      -31.3450   0.00004  -4.9166
siesta:   39      -31.3450      -31.3450      -31.3450   0.00004  -4.9166
siesta:   40      -31.3450      -31.3450      -31.3450   0.00004  -4.9166
siesta:   41      -31.3450      -31.3450      -31.3450   0.00004  -4.9166
siesta:   42      -31.3450      -31.3450      -31.3450   0.00004  -4.9166
siesta:   43      -31.3450      -31.3450      -31.3450   0.00004  -4.9166
siesta:   44      -31.3450      -31.3450      -31.3450   0.00003  -4.9166
siesta:   45      -31.3450      -31.3450      -31.3450   0.00003  -4.9166
siesta:   46      -31.3450      -31.3450      -31.3450   0.00003  -4.9166
siesta:   47      -31.3450      -31.3450      -31.3450   0.00003  -4.9166
siesta:   48      -31.3450      -31.3450      -31.3450   0.00003  -4.9166
siesta:   49      -31.3450      -31.3450      -31.3450   0.00003  -4.9166
siesta:   50      -31.3450      -31.3450      -31.3450   0.00003  -4.9166
siesta:   51      -31.3450      -31.3450      -31.3450   0.00003  -4.9166
siesta:   52      -31.3450      -31.3450      -31.3450   0.00003  -4.9166
siesta:   53      -31.3450      -31.3450      -31.3450   0.00003  -4.9166
siesta:   54      -31.3450      -31.3450      -31.3450   0.00003  -4.9166
siesta:   55      -31.3450      -31.3450      -31.3450   0.00002  -4.9166
siesta:   56      -31.3450      -31.3450      -31.3450   0.00002  -4.9166
siesta:   57      -31.3450      -31.3450      -31.3450   0.00002  -4.9166
siesta:   58      -31.3450      -31.3450      -31.3450   0.00002  -4.9166
siesta:   59      -31.3450      -31.3450      -31.3450   0.00002  -4.9166
siesta:   60      -31.3450      -31.3450      -31.3450   0.00002  -4.9166
siesta:   61      -31.3450      -31.3450      -31.3450   0.00002  -4.9166
siesta:   62      -31.3450      -31.3450      -31.3450   0.00002  -4.9166
siesta:   63      -31.3450      -31.3450      -31.3450   0.00002  -4.9166
siesta:   64      -31.3450      -31.3450      -31.3450   0.00002  -4.9166
grdsam: Grid-cell sampling, point   0
grdsam: Grid-cell sampling, point   1
grdsam: Grid-cell sampling, point   2
grdsam: Grid-cell sampling, point   3

siesta: E_KS(eV) =              -31.3450

siesta: Atomic forces (eV/Ang):
     1   -0.000721    0.000000    0.010707
     2    0.000712    0.000000   -0.010531
----------------------------------------
 Tot   -0.000009    0.000000    0.000176
----------------------------------------
 Max    0.010707
 Res    0.006145    sqrt( Sum f_i^2 / 3N )
----------------------------------------
 Max    0.010707    constrained
 
mulliken: Atomic and Orbital Populations:

Species: H                   
Atom  Qatom  Qorb
               1s      1s      2py     2pz     2px     
   1  1.015   0.922   0.083   0.000   0.010   0.000
   2  0.985   0.884   0.083   0.000   0.019   0.000

mulliken: Qtot =    2.000
 
* Maximum dynamic memory allocated =   584 MB

siesta:                 ==============================
                        Begin FC step =     8 of    12
                            displace atom        2
                            in direction         1
                        by   0.0378 Bohr =   0.0200 Ang
                        ==============================

outcoor: Atomic coordinates (Ang):                          
    0.00000000    0.00000000   -0.01024134   1  H          1
    0.02000000    0.00000000    0.74024825   1  H          2

siesta: iscf   Eharris(eV)      E_KS(eV)   FreeEng(eV)     dDmax   Ef(eV)
siesta:    1      -31.3450      -31.3450      -31.3450   0.00136  -4.9167
siesta:    2      -31.3450      -31.3450      -31.3450   0.00005  -4.9168
siesta:    3      -31.3450      -31.3450      -31.3450   0.00001  -4.9168
grdsam: Grid-cell sampling, point   0
grdsam: Grid-cell sampling, point   1
grdsam: Grid-cell sampling, point   2
grdsam: Grid-cell sampling, point   3

siesta: E_KS(eV) =              -31.3450

siesta: Atomic forces (eV/Ang):
     1    0.000424    0.000000    0.009556
     2   -0.000415    0.000000   -0.009380
----------------------------------------
 Tot    0.000009    0.000000    0.000176
----------------------------------------
 Max    0.009556
 Res    0.005472    sqrt( Sum f_i^2 / 3N )
----------------------------------------
 Max    0.009556    constrained
 
mulliken: Atomic and Orbital Populations:

Species: H                   
Atom  Qatom  Qorb
               1s      1s      2py     2pz     2px     
   1  1.015   0.922   0.083   0.000   0.010   0.000
   2  0.985   0.884   0.083   0.000   0.019   0.000

mulliken: Qtot =    2.000
 
* Maximum dynamic memory allocated =   584 MB

siesta:                 ==============================
                        Begin FC step =     9 of    12
                            displace atom        2
                            in direction         2
                        by  -0.0378 Bohr =  -0.0200 Ang
                        ==============================

outcoor: Atomic coordinates (Ang):                          
    0.00000000    0.00000000   -0.01024134   1  H          1
    0.00000000   -0.02000000    0.74024825   1  H          2

siesta: iscf   Eharris(eV)      E_KS(eV)   FreeEng(eV)     dDmax   Ef(eV)
siesta:    1      -31.3450      -31.3450      -31.3450   0.00069  -4.9168
siesta:    2      -31.3450      -31.3450      -31.3450   0.00003  -4.9167
siesta:    3      -31.3450      -31.3450      -31.3450   0.00001  -4.9167
grdsam: Grid-cell sampling, point   0
grdsam: Grid-cell sampling, point   1
grdsam: Grid-cell sampling, point   2
grdsam: Grid-cell sampling, point   3

siesta: E_KS(eV) =              -31.3450

siesta: Atomic forces (eV/Ang):
     1   -0.000004   -0.000424    0.009595
     2    0.000004    0.000416   -0.009419
----------------------------------------
 Tot    0.000000   -0.000009    0.000176
----------------------------------------
 Max    0.009595
 Res    0.005495    sqrt( Sum f_i^2 / 3N )
----------------------------------------
 Max    0.009595    constrained
 
mulliken: Atomic and Orbital Populations:

Species: H                   
Atom  Qatom  Qorb
               1s      1s      2py     2pz     2px     
   1  1.015   0.922   0.083   0.000   0.010   0.000
   2  0.985   0.884   0.083   0.000   0.019   0.000

mulliken: Qtot =    2.000
 
* Maximum dynamic memory allocated =   584 MB

siesta:                 ==============================
                        Begin FC step =    10 of    12
                            displace atom        2
                            in direction         2
                        by   0.0378 Bohr =   0.0200 Ang
                        ==============================

outcoor: Atomic coordinates (Ang):                          
    0.00000000    0.00000000   -0.01024134   1  H          1
    0.00000000    0.02000000    0.74024825   1  H          2

siesta: iscf   Eharris(eV)      E_KS(eV)   FreeEng(eV)     dDmax   Ef(eV)
siesta:    1      -31.3450      -31.3450      -31.3450   0.00137  -4.9168
siesta:    2      -31.3450      -31.3450      -31.3450   0.00005  -4.9167
siesta:    3      -31.3450      -31.3450      -31.3450   0.00001  -4.9167
grdsam: Grid-cell sampling, point   0
grdsam: Grid-cell sampling, point   1
grdsam: Grid-cell sampling, point   2
grdsam: Grid-cell sampling, point   3

siesta: E_KS(eV) =              -31.3450

siesta: Atomic forces (eV/Ang):
     1   -0.000002    0.000426    0.009592
     2    0.000001   -0.000418   -0.009416
----------------------------------------
 Tot   -0.000001    0.000009    0.000176
----------------------------------------
 Max    0.009592
 Res    0.005493    sqrt( Sum f_i^2 / 3N )
----------------------------------------
 Max    0.009592    constrained
 
mulliken: Atomic and Orbital Populations:

Species: H                   
Atom  Qatom  Qorb
               1s      1s      2py     2pz     2px     
   1  1.015   0.922   0.083   0.000   0.010   0.000
   2  0.985   0.884   0.083   0.000   0.019   0.000

mulliken: Qtot =    2.000
 
* Maximum dynamic memory allocated =   584 MB

siesta:                 ==============================
                        Begin FC step =    11 of    12
                            displace atom        2
                            in direction         3
                        by  -0.0378 Bohr =  -0.0200 Ang
                        ==============================

outcoor: Atomic coordinates (Ang):                          
    0.00000000    0.00000000   -0.01024134   1  H          1
    0.00000000    0.00000000    0.72024825   1  H          2

siesta: iscf   Eharris(eV)      E_KS(eV)   FreeEng(eV)     dDmax   Ef(eV)
siesta:    1      -31.3377      -31.3356      -31.3356   0.00543  -5.0216
siesta:    2      -31.3375      -31.3375      -31.3375   0.00116  -4.9559
siesta:    3      -31.3375      -31.3373      -31.3373   0.00037  -4.9636
siesta:    4      -31.3375      -31.3375      -31.3375   0.00013  -4.9624
siesta:    5      -31.3375      -31.3375      -31.3375   0.00013  -4.9624
siesta:    6      -31.3375      -31.3375      -31.3375   0.00013  -4.9624
siesta:    7      -31.3375      -31.3375      -31.3375   0.00012  -4.9624
siesta:    8      -31.3375      -31.3375      -31.3375   0.00012  -4.9624
siesta:    9      -31.3375      -31.3375      -31.3375   0.00012  -4.9624
siesta:   10      -31.3375      -31.3375      -31.3375   0.00011  -4.9624
siesta:   11      -31.3375      -31.3375      -31.3375   0.00011  -4.9624
siesta:   12      -31.3375      -31.3375      -31.3375   0.00011  -4.9624
siesta:   13      -31.3375      -31.3375      -31.3375   0.00010  -4.9624
siesta:   14      -31.3375      -31.3375      -31.3375   0.00010  -4.9624
siesta:   15      -31.3375      -31.3375      -31.3375   0.00010  -4.9624
siesta:   16      -31.3375      -31.3375      -31.3375   0.00010  -4.9624
siesta:   17      -31.3375      -31.3375      -31.3375   0.00009  -4.9624
siesta:   18      -31.3375      -31.3375      -31.3375   0.00009  -4.9624
siesta:   19      -31.3375      -31.3375      -31.3375   0.00009  -4.9624
siesta:   20      -31.3375      -31.3375      -31.3375   0.00009  -4.9624
siesta:   21      -31.3375      -31.3375      -31.3375   0.00008  -4.9624
siesta:   22      -31.3375      -31.3375      -31.3375   0.00008  -4.9624
siesta:   23      -31.3375      -31.3375      -31.3375   0.00008  -4.9624
siesta:   24      -31.3375      -31.3375      -31.3375   0.00008  -4.9624
siesta:   25      -31.3375      -31.3375      -31.3375   0.00007  -4.9624
siesta:   26      -31.3375      -31.3375      -31.3375   0.00007  -4.9624
siesta:   27      -31.3375      -31.3375      -31.3375   0.00007  -4.9624
siesta:   28      -31.3375      -31.3375      -31.3375   0.00007  -4.9624
siesta:   29      -31.3375      -31.3375      -31.3375   0.00007  -4.9624
siesta:   30      -31.3375      -31.3375      -31.3375   0.00007  -4.9624
siesta:   31      -31.3375      -31.3375      -31.3375   0.00006  -4.9624
siesta:   32      -31.3375      -31.3375      -31.3375   0.00006  -4.9624
siesta:   33      -31.3375      -31.3375      -31.3375   0.00006  -4.9624
siesta:   34      -31.3375      -31.3375      -31.3375   0.00006  -4.9624
siesta:   35      -31.3375      -31.3375      -31.3375   0.00006  -4.9624
siesta:   36      -31.3375      -31.3375      -31.3375   0.00006  -4.9624
siesta:   37      -31.3375      -31.3375      -31.3375   0.00005  -4.9624
siesta:   38      -31.3375      -31.3375      -31.3375   0.00005  -4.9624
siesta:   39      -31.3375      -31.3375      -31.3375   0.00005  -4.9624
siesta:   40      -31.3375      -31.3375      -31.3375   0.00005  -4.9624
siesta:   41      -31.3375      -31.3375      -31.3375   0.00005  -4.9624
siesta:   42      -31.3375      -31.3375      -31.3375   0.00005  -4.9624
siesta:   43      -31.3375      -31.3375      -31.3375   0.00005  -4.9624
siesta:   44      -31.3375      -31.3375      -31.3375   0.00004  -4.9624
siesta:   45      -31.3375      -31.3375      -31.3375   0.00004  -4.9624
siesta:   46      -31.3375      -31.3375      -31.3375   0.00004  -4.9624
siesta:   47      -31.3375      -31.3375      -31.3375   0.00004  -4.9624
siesta:   48      -31.3375      -31.3375      -31.3375   0.00004  -4.9624
siesta:   49      -31.3375      -31.3375      -31.3375   0.00004  -4.9624
siesta:   50      -31.3375      -31.3375      -31.3375   0.00004  -4.9624
siesta:   51      -31.3375      -31.3375      -31.3375   0.00004  -4.9624
siesta:   52      -31.3375      -31.3375      -31.3375   0.00004  -4.9624
siesta:   53      -31.3375      -31.3375      -31.3375   0.00004  -4.9624
siesta:   54      -31.3375      -31.3375      -31.3375   0.00003  -4.9624
siesta:   55      -31.3375      -31.3375      -31.3375   0.00003  -4.9624
siesta:   56      -31.3375      -31.3375      -31.3375   0.00003  -4.9624
siesta:   57      -31.3375      -31.3375      -31.3375   0.00003  -4.9624
siesta:   58      -31.3375      -31.3375      -31.3375   0.00003  -4.9624
siesta:   59      -31.3375      -31.3375      -31.3375   0.00003  -4.9624
siesta:   60      -31.3375      -31.3375      -31.3375   0.00003  -4.9624
siesta:   61      -31.3375      -31.3375      -31.3375   0.00003  -4.9624
siesta:   62      -31.3375      -31.3375      -31.3375   0.00003  -4.9624
siesta:   63      -31.3375      -31.3375      -31.3375   0.00003  -4.9624
siesta:   64      -31.3375      -31.3375      -31.3375   0.00003  -4.9624
siesta:   65      -31.3375      -31.3375      -31.3375   0.00003  -4.9624
siesta:   66      -31.3375      -31.3375      -31.3375   0.00003  -4.9624
siesta:   67      -31.3375      -31.3375      -31.3375   0.00002  -4.9624
siesta:   68      -31.3375      -31.3375      -31.3375   0.00002  -4.9624
siesta:   69      -31.3375      -31.3375      -31.3375   0.00002  -4.9624
siesta:   70      -31.3375      -31.3375      -31.3375   0.00002  -4.9624
siesta:   71      -31.3375      -31.3375      -31.3375   0.00002  -4.9624
siesta:   72      -31.3375      -31.3375      -31.3375   0.00002  -4.9624
siesta:   73      -31.3375      -31.3375      -31.3375   0.00002  -4.9624
siesta:   74      -31.3375      -31.3375      -31.3375   0.00002  -4.9624
siesta:   75      -31.3375      -31.3375      -31.3375   0.00002  -4.9624
siesta:   76      -31.3375      -31.3375      -31.3375   0.00002  -4.9624
grdsam: Grid-cell sampling, point   0
grdsam: Grid-cell sampling, point   1
grdsam: Grid-cell sampling, point   2
grdsam: Grid-cell sampling, point   3

siesta: E_KS(eV) =              -31.3375

siesta: Atomic forces (eV/Ang):
     1    0.000000   -0.000170   -0.767114
     2    0.000000    0.000170    0.767435
----------------------------------------
 Tot    0.000000    0.000000    0.000321
----------------------------------------
 Max    0.767435
 Res    0.442986    sqrt( Sum f_i^2 / 3N )
----------------------------------------
 Max    0.767435    constrained
 
mulliken: Atomic and Orbital Populations:

Species: H                   
Atom  Qatom  Qorb
               1s      1s      2py     2pz     2px     
   1  1.015   0.917   0.088   0.000   0.010   0.000
   2  0.985   0.879   0.088   0.000   0.019   0.000

mulliken: Qtot =    2.000
 
* Maximum dynamic memory allocated =   584 MB

siesta:                 ==============================
                        Begin FC step =    12 of    12
                            displace atom        2
                            in direction         3
                        by   0.0378 Bohr =   0.0200 Ang
                        ==============================

outcoor: Atomic coordinates (Ang):                          
    0.00000000    0.00000000   -0.01024134   1  H          1
    0.00000000    0.00000000    0.76024825   1  H          2

siesta: iscf   Eharris(eV)      E_KS(eV)   FreeEng(eV)     dDmax   Ef(eV)
siesta:    1      -31.3388      -31.3308      -31.3308   0.01068  -4.7349
siesta:    2      -31.3381      -31.3381      -31.3381   0.00222  -4.8562
siesta:    3      -31.3381      -31.3374      -31.3374   0.00079  -4.8430
siesta:    4      -31.3381      -31.3379      -31.3379   0.00024  -4.8441
siesta:    5      -31.3381      -31.3375      -31.3375   0.00072  -4.8442
siesta:    6      -31.3381      -31.3375      -31.3375   0.00070  -4.8443
siesta:    7      -31.3381      -31.3375      -31.3375   0.00067  -4.8443
siesta:    8      -31.3381      -31.3375      -31.3375   0.00065  -4.8443
siesta:    9      -31.3381      -31.3376      -31.3376   0.00063  -4.8443
siesta:   10      -31.3381      -31.3376      -31.3376   0.00061  -4.8444
siesta:   11      -31.3381      -31.3376      -31.3376   0.00059  -4.8444
siesta:   12      -31.3381      -31.3376      -31.3376   0.00057  -4.8444
siesta:   13      -31.3381      -31.3376      -31.3376   0.00056  -4.8444
siesta:   14      -31.3381      -31.3376      -31.3376   0.00054  -4.8444
siesta:   15      -31.3381      -31.3376      -31.3376   0.00052  -4.8445
siesta:   16      -31.3381      -31.3376      -31.3376   0.00050  -4.8445
siesta:   17      -31.3381      -31.3376      -31.3376   0.00049  -4.8445
siesta:   18      -31.3381      -31.3377      -31.3377   0.00047  -4.8445
siesta:   19      -31.3381      -31.3377      -31.3377   0.00046  -4.8445
siesta:   20      -31.3381      -31.3377      -31.3377   0.00044  -4.8446
siesta:   21      -31.3381      -31.3377      -31.3377   0.00043  -4.8446
siesta:   22      -31.3381      -31.3377      -31.3377   0.00042  -4.8446
siesta:   23      -31.3381      -31.3377      -31.3377   0.00040  -4.8446
siesta:   24      -31.3381      -31.3377      -31.3377   0.00039  -4.8446
siesta:   25      -31.3381      -31.3377      -31.3377   0.00038  -4.8446
siesta:   26      -31.3381      -31.3377      -31.3377   0.00037  -4.8447
siesta:   27      -31.3381      -31.3377      -31.3377   0.00036  -4.8447
siesta:   28      -31.3381      -31.3377      -31.3377   0.00034  -4.8447
siesta:   29      -31.3381      -31.3378      -31.3378   0.00033  -4.8447
siesta:   30      -31.3381      -31.3378      -31.3378   0.00032  -4.8447
siesta:   31      -31.3381      -31.3378      -31.3378   0.00031  -4.8447
siesta:   32      -31.3381      -31.3378      -31.3378   0.00030  -4.8448
siesta:   33      -31.3381      -31.3378      -31.3378   0.00029  -4.8448
siesta:   34      -31.3381      -31.3378      -31.3378   0.00028  -4.8448
siesta:   35      -31.3381      -31.3378      -31.3378   0.00028  -4.8448
siesta:   36      -31.3381      -31.3378      -31.3378   0.00027  -4.8448
siesta:   37      -31.3381      -31.3378      -31.3378   0.00026  -4.8448
siesta:   38      -31.3381      -31.3378      -31.3378   0.00025  -4.8448
siesta:   39      -31.3381      -31.3378      -31.3378   0.00024  -4.8448
siesta:   40      -31.3381      -31.3378      -31.3378   0.00023  -4.8449
siesta:   41      -31.3381      -31.3378      -31.3378   0.00023  -4.8449
siesta:   42      -31.3381      -31.3378      -31.3378   0.00022  -4.8449
siesta:   43      -31.3381      -31.3378      -31.3378   0.00021  -4.8449
siesta:   44      -31.3381      -31.3379      -31.3379   0.00021  -4.8449
siesta:   45      -31.3381      -31.3379      -31.3379   0.00020  -4.8449
siesta:   46      -31.3381      -31.3379      -31.3379   0.00019  -4.8449
siesta:   47      -31.3381      -31.3379      -31.3379   0.00019  -4.8449
siesta:   48      -31.3381      -31.3379      -31.3379   0.00019  -4.8449
siesta:   49      -31.3381      -31.3379      -31.3379   0.00018  -4.8449
siesta:   50      -31.3381      -31.3379      -31.3379   0.00018  -4.8450
siesta:   51      -31.3381      -31.3379      -31.3379   0.00018  -4.8450
siesta:   52      -31.3381      -31.3379      -31.3379   0.00017  -4.8450
siesta:   53      -31.3381      -31.3379      -31.3379   0.00017  -4.8450
siesta:   54      -31.3381      -31.3379      -31.3379   0.00017  -4.8450
siesta:   55      -31.3381      -31.3379      -31.3379   0.00016  -4.8450
siesta:   56      -31.3381      -31.3379      -31.3379   0.00016  -4.8450
siesta:   57      -31.3381      -31.3379      -31.3379   0.00016  -4.8450
siesta:   58      -31.3381      -31.3379      -31.3379   0.00016  -4.8450
siesta:   59      -31.3381      -31.3379      -31.3379   0.00015  -4.8450
siesta:   60      -31.3381      -31.3379      -31.3379   0.00015  -4.8450
siesta:   61      -31.3381      -31.3379      -31.3379   0.00015  -4.8450
siesta:   62      -31.3381      -31.3379      -31.3379   0.00014  -4.8451
siesta:   63      -31.3381      -31.3379      -31.3379   0.00014  -4.8451
siesta:   64      -31.3381      -31.3379      -31.3379   0.00014  -4.8451
siesta:   65      -31.3381      -31.3379      -31.3379   0.00014  -4.8451
siesta:   66      -31.3381      -31.3380      -31.3380   0.00013  -4.8451
siesta:   67      -31.3381      -31.3380      -31.3380   0.00013  -4.8451
siesta:   68      -31.3381      -31.3380      -31.3380   0.00013  -4.8451
siesta:   69      -31.3381      -31.3380      -31.3380   0.00013  -4.8451
siesta:   70      -31.3381      -31.3380      -31.3380   0.00012  -4.8451
siesta:   71      -31.3381      -31.3380      -31.3380   0.00012  -4.8451
siesta:   72      -31.3381      -31.3380      -31.3380   0.00012  -4.8451
siesta:   73      -31.3381      -31.3380      -31.3380   0.00012  -4.8451
siesta:   74      -31.3381      -31.3380      -31.3380   0.00011  -4.8451
siesta:   75      -31.3381      -31.3380      -31.3380   0.00011  -4.8451
siesta:   76      -31.3381      -31.3380      -31.3380   0.00011  -4.8451
siesta:   77      -31.3381      -31.3380      -31.3380   0.00011  -4.8451
siesta:   78      -31.3381      -31.3380      -31.3380   0.00011  -4.8452
siesta:   79      -31.3381      -31.3380      -31.3380   0.00010  -4.8452
siesta:   80      -31.3381      -31.3380      -31.3380   0.00010  -4.8452
siesta:   81      -31.3381      -31.3380      -31.3380   0.00010  -4.8452
siesta:   82      -31.3381      -31.3380      -31.3380   0.00010  -4.8452
siesta:   83      -31.3381      -31.3380      -31.3380   0.00010  -4.8452
siesta:   84      -31.3381      -31.3380      -31.3380   0.00009  -4.8452
siesta:   85      -31.3381      -31.3380      -31.3380   0.00009  -4.8452
siesta:   86      -31.3381      -31.3380      -31.3380   0.00009  -4.8452
siesta:   87      -31.3381      -31.3380      -31.3380   0.00009  -4.8452
siesta:   88      -31.3381      -31.3380      -31.3380   0.00009  -4.8452
siesta:   89      -31.3381      -31.3380      -31.3380   0.00009  -4.8452
siesta:   90      -31.3381      -31.3380      -31.3380   0.00008  -4.8452
siesta:   91      -31.3381      -31.3380      -31.3380   0.00008  -4.8452
siesta:   92      -31.3381      -31.3380      -31.3380   0.00008  -4.8452
siesta:   93      -31.3381      -31.3380      -31.3380   0.00008  -4.8452
siesta:   94      -31.3381      -31.3380      -31.3380   0.00008  -4.8452
siesta:   95      -31.3381      -31.3380      -31.3380   0.00008  -4.8452
siesta:   96      -31.3381      -31.3380      -31.3380   0.00008  -4.8452
siesta:   97      -31.3381      -31.3380      -31.3380   0.00007  -4.8452
siesta:   98      -31.3381      -31.3380      -31.3380   0.00007  -4.8452
siesta:   99      -31.3381      -31.3380      -31.3380   0.00007  -4.8452
siesta:  100      -31.3381      -31.3380      -31.3380   0.00007  -4.8452
siesta:  101      -31.3381      -31.3380      -31.3380   0.00007  -4.8452
siesta:  102      -31.3381      -31.3380      -31.3380   0.00007  -4.8452
siesta:  103      -31.3381      -31.3380      -31.3380   0.00007  -4.8452
siesta:  104      -31.3381      -31.3381      -31.3381   0.00006  -4.8452
siesta:  105      -31.3381      -31.3381      -31.3381   0.00006  -4.8453
siesta:  106      -31.3381      -31.3381      -31.3381   0.00006  -4.8453
siesta:  107      -31.3381      -31.3381      -31.3381   0.00006  -4.8453
siesta:  108      -31.3381      -31.3381      -31.3381   0.00006  -4.8453
siesta:  109      -31.3381      -31.3381      -31.3381   0.00006  -4.8453
siesta:  110      -31.3381      -31.3381      -31.3381   0.00006  -4.8453
siesta:  111      -31.3381      -31.3381      -31.3381   0.00006  -4.8453
siesta:  112      -31.3381      -31.3381      -31.3381   0.00006  -4.8453
siesta:  113      -31.3381      -31.3381      -31.3381   0.00005  -4.8453
siesta:  114      -31.3381      -31.3381      -31.3381   0.00005  -4.8453
siesta:  115      -31.3381      -31.3381      -31.3381   0.00005  -4.8453
siesta:  116      -31.3381      -31.3381      -31.3381   0.00005  -4.8453
siesta:  117      -31.3381      -31.3381      -31.3381   0.00005  -4.8453
siesta:  118      -31.3381      -31.3381      -31.3381   0.00005  -4.8453
siesta:  119      -31.3381      -31.3381      -31.3381   0.00005  -4.8453
siesta:  120      -31.3381      -31.3381      -31.3381   0.00005  -4.8453
siesta:  121      -31.3381      -31.3381      -31.3381   0.00005  -4.8453
siesta:  122      -31.3381      -31.3381      -31.3381   0.00005  -4.8453
siesta:  123      -31.3381      -31.3381      -31.3381   0.00005  -4.8453
siesta:  124      -31.3381      -31.3381      -31.3381   0.00004  -4.8453
siesta:  125      -31.3381      -31.3381      -31.3381   0.00004  -4.8453
siesta:  126      -31.3381      -31.3381      -31.3381   0.00004  -4.8453
siesta:  127      -31.3381      -31.3381      -31.3381   0.00004  -4.8453
siesta:  128      -31.3381      -31.3381      -31.3381   0.00004  -4.8453
siesta:  129      -31.3381      -31.3381      -31.3381   0.00004  -4.8453
siesta:  130      -31.3381      -31.3381      -31.3381   0.00004  -4.8453
siesta:  131      -31.3381      -31.3381      -31.3381   0.00004  -4.8453
siesta:  132      -31.3381      -31.3381      -31.3381   0.00004  -4.8453
siesta:  133      -31.3381      -31.3381      -31.3381   0.00004  -4.8453
siesta:  134      -31.3381      -31.3381      -31.3381   0.00004  -4.8453
siesta:  135      -31.3381      -31.3381      -31.3381   0.00004  -4.8453
siesta:  136      -31.3381      -31.3381      -31.3381   0.00004  -4.8453
siesta:  137      -31.3381      -31.3381      -31.3381   0.00003  -4.8453
siesta:  138      -31.3381      -31.3381      -31.3381   0.00003  -4.8453
siesta:  139      -31.3381      -31.3381      -31.3381   0.00003  -4.8453
siesta:  140      -31.3381      -31.3381      -31.3381   0.00003  -4.8453
siesta:  141      -31.3381      -31.3381      -31.3381   0.00003  -4.8453
siesta:  142      -31.3381      -31.3381      -31.3381   0.00003  -4.8453
siesta:  143      -31.3381      -31.3381      -31.3381   0.00003  -4.8453
siesta:  144      -31.3381      -31.3381      -31.3381   0.00003  -4.8453
siesta:  145      -31.3381      -31.3381      -31.3381   0.00003  -4.8453
siesta:  146      -31.3381      -31.3381      -31.3381   0.00003  -4.8453
siesta:  147      -31.3381      -31.3381      -31.3381   0.00003  -4.8453
siesta:  148      -31.3381      -31.3381      -31.3381   0.00003  -4.8453
siesta:  149      -31.3381      -31.3381      -31.3381   0.00003  -4.8453
siesta:  150      -31.3381      -31.3381      -31.3381   0.00003  -4.8453
siesta:  151      -31.3381      -31.3381      -31.3381   0.00003  -4.8453
siesta:  152      -31.3381      -31.3381      -31.3381   0.00003  -4.8453
siesta:  153      -31.3381      -31.3381      -31.3381   0.00003  -4.8453
siesta:  154      -31.3381      -31.3381      -31.3381   0.00002  -4.8453
siesta:  155      -31.3381      -31.3381      -31.3381   0.00002  -4.8453
siesta:  156      -31.3381      -31.3381      -31.3381   0.00002  -4.8453
siesta:  157      -31.3381      -31.3381      -31.3381   0.00002  -4.8453
siesta:  158      -31.3381      -31.3381      -31.3381   0.00002  -4.8453
siesta:  159      -31.3381      -31.3381      -31.3381   0.00002  -4.8453
siesta:  160      -31.3381      -31.3381      -31.3381   0.00002  -4.8453
siesta:  161      -31.3381      -31.3381      -31.3381   0.00002  -4.8453
siesta:  162      -31.3381      -31.3381      -31.3381   0.00002  -4.8453
siesta:  163      -31.3381      -31.3381      -31.3381   0.00002  -4.8453
siesta:  164      -31.3381      -31.3381      -31.3381   0.00002  -4.8453
siesta:  165      -31.3381      -31.3381      -31.3381   0.00002  -4.8453
siesta:  166      -31.3381      -31.3381      -31.3381   0.00002  -4.8453
grdsam: Grid-cell sampling, point   0
grdsam: Grid-cell sampling, point   1
grdsam: Grid-cell sampling, point   2
grdsam: Grid-cell sampling, point   3

siesta: E_KS(eV) =              -31.3381

siesta: Atomic forces (eV/Ang):
     1    0.000000   -0.000001    0.662474
     2    0.000000    0.000001   -0.662368
----------------------------------------
 Tot    0.000000    0.000000    0.000105
----------------------------------------
 Max    0.662474
 Res    0.382449    sqrt( Sum f_i^2 / 3N )
----------------------------------------
 Max    0.662474    constrained
 
mulliken: Atomic and Orbital Populations:

Species: H                   
Atom  Qatom  Qorb
               1s      1s      2py     2pz     2px     
   1  1.015   0.927   0.078   0.000   0.009   0.000
   2  0.985   0.888   0.078   0.000   0.019   0.000

mulliken: Qtot =    2.000
 
* Maximum dynamic memory allocated =   584 MB

outcoor: Final (unrelaxed) atomic coordinates (Ang):        
    0.00000000    0.00000000   -0.01024134   1  H          1
    0.00000000    0.00000000    0.74024825   1  H          2

siesta: Eigenvalues (eV):
  ik is    eps
   1  1 -10.98   1.32   4.16   4.16   9.66  10.78  10.78  17.35  44.24  89.10
siesta: Fermi energy =      -4.845342 eV

siesta: Program's energy decomposition (eV):
siesta:-Eions   =     -26.074526
siesta: Ena     =       4.050729
siesta: Ekin    =      25.951886
siesta: Enl     =     -16.693863
siesta: DEna    =      -1.354971
siesta: DUscf   =       0.232099
siesta: DUext   =      -0.018735
siesta: Exc     =     -17.430735
siesta: eta*DQ  =       0.000000
siesta: Emadel  =       0.000000
siesta: Ekinion =       0.000000
siesta: Eharris =     -31.338134
siesta: Eso     =       0.000000
siesta: Etot    =     -31.338115
siesta: FreeEng =     -31.338115

siesta: Final energy (eV):
siesta:       Kinetic =      25.951886
siesta:       Hartree =      28.963663
siesta:    Ext. field =      -0.018735
siesta:   Exch.-corr. =     -17.430735
siesta:  Ion-electron =     -83.422211
siesta:       Ion-ion =      14.618016
siesta:       Ekinion =       0.000000
siesta:         Total =     -31.338115

siesta: Atomic forces (eV/Ang):
siesta:    1    0.000000   -0.000001    0.662474
siesta:    2    0.000000    0.000001   -0.662368
siesta: ----------------------------------------
siesta:  Tot    0.000000    0.000000    0.000105

siesta: Stress tensor (static) (eV/Ang**3):
siesta:     0.000002    0.000000    0.000000
siesta:     0.000000    0.000002    0.000000
siesta:     0.000000    0.000000    0.000068

siesta: Cell volume =       8000.000000 Ang**3

siesta: Pressure (static):
siesta:                Solid            Molecule  Units
siesta:          -0.00000027         -0.00000003  Ry/Bohr**3
siesta:          -0.00002439         -0.00000313  eV/Ang**3
siesta:          -0.03908035         -0.00500779  kBar

siesta: Total spin polarization (Qup-Qdown) =    0.000000
siesta: Spin vector =    0.000000    0.000000    0.000000
siesta: No SpinPolK block detected...

siesta: Electric dipole (a.u.)  =    0.000000    0.000000    0.070807
siesta: Electric dipole (Debye) =    0.000000    0.000000    0.179974

siesta: Vibrational frequency (cm^-1) & IR (a.u.) (Acoustic sum rule):
 eigenvalue #    1   omega =   -0.000001    IR =    0.000000 
 eigenvalue #    2   omega =    0.000018    IR =    0.000000 
 eigenvalue #    3   omega =    0.000054    IR =    0.000000 
 eigenvalue #    4   omega =  106.775220    IR =    0.000963 
 eigenvalue #    5   omega =  116.919296    IR =    0.000966 
 eigenvalue #    6   omega = 4400.160131    IR =    0.024408 
 
* Maximum dynamic memory allocated : Node    0 =   584 MB
* Maximum dynamic memory allocated : Node    1 =   580 MB
* Maximum dynamic memory allocated : Node    2 =   583 MB
* Maximum dynamic memory allocated : Node    3 =   580 MB
* Maximum memory occured during redistribXZ                   

timer: CPU execution times:
timer:  Routine       Calls   Time/call    Tot.time        %
timer:  siesta            1   22552.522   22552.522   100.00
timer:  Setup             1       2.365       2.365     0.01
timer:  bands             1       0.004       0.004     0.00
timer:  writewave         1       0.008       0.008     0.00
timer:  KSV_init          1       0.002       0.002     0.00
timer:  IterMD           13    1728.618   22472.038    99.64
timer:  hsparse          14       0.001       0.008     0.00
timer:  overfsm          26       0.003       0.086     0.00
timer:  IterSCF         519      43.292   22468.706    99.63
timer:  kinefsm          26       0.001       0.029     0.00
timer:  nlefsm           26       0.033       0.859     0.00
timer:  DHSCF           559      40.315   22536.018    99.93
timer:  DHSCF1            1      12.691      12.691     0.06
timer:  DHSCF2           53      24.373    1291.795     5.73
timer:  REORD          7934       0.147    1165.906     5.17
timer:  POISON          612      22.402   13709.726    60.79
timer:  DHSCF3          559      37.821   21142.190    93.75
timer:  rhoofd          559       0.267     149.016     0.66
timer:  CELLXC          559       4.771    2666.961    11.83
timer:  vmat            519       0.124      64.433     0.29
timer:  diagon          506       0.016       8.344     0.04
timer:  rdiag           506       0.012       6.062     0.03
timer:  DHSCF4           52       1.493      77.661     0.34
timer:  dfscf            52       1.199      62.324     0.28
  
>> End of run:   8-OCT-2013  17:54:59
