ATOMS
H             0.00000000      0.00000000     -0.01024134             0.70710678     -0.00003734     -0.00003641
H             0.00000000      0.00000000      0.74024825             0.70710678     -0.00003734     -0.00003641
