SIESTA 1.3.7  -- [1.3f1 release] (04 Feb 2004)
Architecture  : 
Compiler flags:  -O3
PARALLEL version

* Running on    4 nodes in parallel
>> Start of run:   7-NOV-2013  15:54:32

                           ***********************       
                           *  WELCOME TO SIESTA  *       
                           ***********************       

reinit: Reading from standard input
************************** Dump of input data file ****************************
#
SystemName                   mol            # Descriptive name of the system
SystemLabel                  mol            # Short name for naming files
NumberOfSpecies              1             # Number of species
NumberOfAtoms                2           # Number of atoms
%block ChemicalSpeciesLabel
 1    1   H
%endblock ChemicalSpeciesLabel
# ps
%block Ps.lmax
  H     3
%endblock Ps.lmax
# Basis
PAO.BasisType                split         # Type of basis ('nones', 'nonodes', 'split')
PAO.SplitNorm  0.15
%block PAO.Basis                           # basis
H     2      0.00
 n=1    0    2   E      2.07      0.50
   5.75  1.5
   1.000   1.000
 n=2    1    1   E      0.89      0.01
   5.500
   1.000
%endblock PAO.Basis
# lattice vectors
LatticeConstant              1.0 Ang
%block LatticeVectors
         8.86712000        0.00000000        0.00000000
         0.00000        8.86712000        0.00000000
         0.00000000        0.00000000       38.72
%endblock LatticeVectors
# coordinates
AtomicCoordinatesFormat      Ang
%block AtomicCoordinatesAndAtomicSpecies
    3.25353201    5.72009504   18.92650888   1  H         61
    3.26037283    5.72625871   19.79615533   1  H         62
%endblock AtomicCoordinatesAndAtomicSpecies
# constrains in relaxation
%block GeometryConstraints
   position 1
%endblock GeometryConstraints
# real space mesh grid
MeshCutoff                   800.0 Ry
%block GridCellSampling
  0.5  0.5   0.0
  0.5  0.0   0.5
  0.0  0.5   0.5
%endblock GridCellSampling
# reciprocal space
%block kgrid_Monkhorst_Pack
  1   0   0    0.0
  0   1   0    0.0
  0   0   1    0.0
%endblock kgrid_Monkhorst_Pack
#ProcessorY                   4
#BlockSize                    100
%block ExternalElectricField
   0.000 0.000 0.0 V/Ang
%endblock ExternalElectricField
# functional
xc.functional                GGA           # 'LDA', 'GGA'
xc.authors                   PBE           # 'CA'='PZ', 'PW92', 'PBE'
# scf
MaxSCFIterations             300
DM.MixingWeight              0.02
DM.Tolerance                 1.0E-4
DM.UseSaveDM                 T
DM.NumberPulay               6             # Pulay convergency accelerator
SolutionMethod               diagon
ElectronicTemperature        300 K         # Default value
# MD options
MD.TypeOfRun                 cg            # Type of dynamics:
MD.VariableCell              false         # if vary cell
MD.NumCGsteps                300             # Number of CG steps for relaxation
MD.MaxCGDispl                0.08 Ang     # Maximum atomic displacement at one step
MD.MaxForceTol               0.01 eV/Ang   # Tolerance in the maximum force min(fx, fy, fz)
MD.MaxStressTol              0.1 Gpa
MD.FCDispl                 0.02 ang
MD.FCIR                    T
MD.FCEigenVectors          T
MD.FCRead                  F
MD.FCAtomRestart           46
MD.FCAxisRestart           1
#Siesta Output Flags
SaveHS                       F           # Hamiltonian and overlap in sparse
SaveRHO                      T
WriteMullikenPop             1
WriteForces                  T
WriteCoorStep                T
SaveElectrostaticPotential   T             # Hartree Potential file
************************** End of input data file *****************************

reinit: -----------------------------------------------------------------------
reinit: System Name: mol                                                        
reinit: -----------------------------------------------------------------------
reinit: System Label: mol                 
reinit: -----------------------------------------------------------------------

initatom: Reading input for the pseudopotentials and atomic orbitals ----------
 Species number:            1  Label: H Atomic number:           1
Ground state valence configuration:   1s01
Reading pseudopotential information in formatted form from H.psf
relmxkb: Read Max KB Ang. Momentum=    3 for species H

<basis_specs>
===============================================================================
H                    Z=   1    Mass=  1.0100        Charge=  0.0000    
Lmxo=1 Lmxkb=3     BasisType=split      Semic=F
L=0  Nsemic=0  Cnfigmx=1
          n=1  nzeta=2  polorb=0
               vcte:    2.0700    
               rinn:   0.50000    
                rcs:    5.7500      1.5000    
            lambdas:    1.0000      1.0000    
L=1  Nsemic=0  Cnfigmx=2
          n=1  nzeta=1  polorb=0
               vcte:   0.89000    
               rinn:   0.10000E-01
                rcs:    5.5000    
            lambdas:    1.0000    
-------------------------------------------------------------------------------
L=0  Nkbl=1  erefs: 0.17977+309
L=1  Nkbl=1  erefs: 0.17977+309
L=2  Nkbl=1  erefs: 0.17977+309
L=3  Nkbl=1  erefs: 0.17977+309
===============================================================================
</basis_specs>

atom: Called for H   (Z =   1)

read_vps: Pseudopotential generation method:
read_vps: ATM3      Troullier-Martins                       

read_vps: Valence configuration (pseudopotential and basis set generation):
1s( 1.00) rc: 1.89
2p( 0.00) rc: 1.80
3d( 0.00) rc: 1.49
4f( 0.00) rc: 1.49
read_vps: Spin-orbit interaction is not included in this calculation
Total valence charge:    1.00000

xc_check: Exchange-correlation functional:
xc_check: GGA Perdew, Burke & Ernzerhof 1996
V l=0 = -2*Zval/r beyond r=  1.8658
V l=1 = -2*Zval/r beyond r=  1.7970
V l=2 = -2*Zval/r beyond r=  1.8196
V l=3 = -2*Zval/r beyond r=  1.8196
All V_l potentials equal beyond r=  1.8658
This should be close to max(r_c) in ps generation
All pots = -2*Zval/r beyond r=  1.8658

VLOCAL1: 99.0% of the norm of Vloc inside     12.470 Ry
VLOCAL1: 99.9% of the norm of Vloc inside     28.418 Ry
atom: Maximum radius for 4*pi*r*r*local-pseudopot. charge    2.16811
atom: Maximum radius for r*vlocal+2*Zval:    1.84256
GHOST: No ghost state for L =  0
GHOST: No ghost state for L =  1
GHOST: No ghost state for L =  2
GHOST: No ghost state for L =  3

KBgen: Kleinman-Bylander projectors: 
   l= 0   rc=  2.011274   el= -0.477200   Ekb= -1.572097   kbcos= -0.493163
   l= 1   rc=  2.141150   el=  0.001076   Ekb= -0.356432   kbcos= -0.050277
   l= 2   rc=  2.195416   el=  0.002010   Ekb= -0.177656   kbcos= -0.007774
   l= 3   rc=  2.251056   el=  0.003122   Ekb= -0.068270   kbcos= -0.002268

KBgen: Total number of  Kleinman-Bylander projectors:   16
atom: -------------------------------------------------------------------------

atom: SANKEY-TYPE ORBITALS:
atom: Selected multiple-zeta basis: split     

SPLIT: Orbitals with angular momentum L= 0

SPLIT: Basis orbitals for state 1s

   izeta = 1
                 lambda =    1.000000
                     rc =    5.752124
                 energy =   -0.469599
                kinetic =    0.919264
    potential(screened) =   -1.388863
       potential(ionic) =   -1.911599

   izeta = 2
                 rmatch =    1.527112
              splitnorm =    0.807394
                 energy =    2.126033
                kinetic =    5.261681
    potential(screened) =   -3.135649
       potential(ionic) =   -3.696632

SPLIT: Orbitals with angular momentum L= 1

SPLIT: Basis orbitals for state 2p

   izeta = 1
                 lambda =    1.000000
                     rc =    5.471469
                 energy =    0.371359
                kinetic =    0.737398
    potential(screened) =   -0.366040
       potential(ionic) =   -0.791603
atom: Total number of Sankey-type orbitals:  5

atm_pop: Valence configuration(local Pseudopot. screening):
 1s( 1.00)                                                            
 2p( 0.00)                                                            
Vna: chval, zval:    1.00000   1.00000

Vna:  Cut-off radius for the neutral-atom potential:   5.752124

atom: _________________________________________________________________________

prinput: Basis input ----------------------------------------------------------

PAO.BasisType split     

%block ChemicalSpeciesLabel
    1    1 H                       # Species index, atomic number, species label
%endblock ChemicalSpeciesLabel

%block PAO.Basis                 # Define Basis set
H           2                    # Species label, number of l-shells
 n=1   0   2                         # n, l, Nzeta 
   5.752      1.527   
   1.000      1.000   
 n=2   1   1                         # n, l, Nzeta 
   5.471   
   1.000   
%endblock PAO.Basis

prinput: ----------------------------------------------------------------------


siesta: ******************** Simulation parameters ****************************
siesta:
siesta: The following are some of the parameters of the simulation.
siesta: A complete list of the parameters used, including defect values,
siesta: can be found in file out.fdf
siesta:
coor:   Atomic-coordinates input format  =     Cartesian coordinates
coor:                                          (in Angstroms)
redata: Number of spin components        =     1
redata: SpinOrbit                        =     0
redata: Long output                      =     F
redata: Number of Atomic Species         =     1
redata: Charge density info will appear in .RHO file
redata: Write Mulliken Pop.              =     Atomic and Orbital charges
redata: Mesh Cutoff                      =   800.0000  Ry
redata: Net charge of the system         =     0.0000 |e|
redata: Max. number of SCF Iter          =   300
redata: One Pulay mixing every           =     6 iterations
redata: Mix DM in first SCF step ?       =     F
redata: Write Pulay info on disk?        =     F
redata: New DM Mixing Weight             =     0.0200
redata: No kicks to SCF
redata: DM Mixing Weight for Kicks       =     0.5000
redata: DM Tolerance for SCF             =     0.000100
redata: Use continuation files for DM    =     T
redata: Neglect nonoverlap interactions  =     F
redata: Method of Calculation            =     Diagonalization
redata: Divide and Conquer               =     F
redata: Electronic Temperature           =     0.0019  Ry
redata: Fix the spin of the system       =     F
redata: Dynamics option                  =     CG coord. optimization
redata: Variable cell                    =     F
redata: Use continuation files for CG    =     F
redata: Maximum number of CG moves       =   300
redata: Max atomic displ per move        =     0.1512  Bohr
redata: Force tolerance                  =     0.0004  Ry/Bohr
redata: ***********************************************************************

siesta: Atomic coordinates (Bohr) and species
siesta:      6.14829  10.80942  35.76593  1        1
siesta:      6.16121  10.82106  37.40933  1        2

initatomlists: Number of atoms, orbitals, and projectors:      2    10    32

siesta: System type = molecule  
 Nodes, Orbitals           4          10
 blocksizedefault           2

* ProcessorY, Blocksize:    2   2

 Using EM.ParallelOverKNum =           1
 label:           1 H                              1 s      
 label:           2 H                              1 s      
 label:           3 H                              1 py     
 label:           4 H                              1 pz     
 label:           5 H                              1 px     
 label:           6 H                              2 s      
 label:           7 H                              2 s      
 label:           8 H                              2 py     
 label:           9 H                              2 pz     
 label:          10 H                              2 px     
 
* Maximum dynamic memory allocated =     1 MB

siesta:                 ==============================
                            Begin CG move =      0
                        ==============================

outcoor: Atomic coordinates (Ang):                          
    3.25353201    5.72009504   18.92650888   1  H          1
    3.26037283    5.72625871   19.79615533   1  H          2

read_ldau The LDA+U method used is from Czyzky PRB 49 14211

iodm: Reading Density Matrix from files

mol.DM                           

InitMesh: MESH =   160 x   160 x   720 =    18432000
InitMesh: Mesh cutoff (required, used) =   800.000   899.863 Ry
 
* Maximum dynamic memory allocated =   250 MB

stepf: Fermi-Dirac step function

siesta: Program's energy decomposition (eV):
siesta: Eions   =        26.074526
siesta: Ena     =         3.171840
siesta: Ekin    =        25.720229
siesta: Enl     =       -15.696974
siesta: DEna    =        -1.256626
siesta: DUscf   =         0.228313
siesta: DUext   =         0.000000
siesta: Exc     =       -17.178282
siesta: eta*DQ  =         0.000000
siesta: Emadel  =         0.000000
siesta: Eharris =       -31.147414
siesta: Eso     =         0.000000
siesta: Etot    =       -31.086027
siesta: FreeEng =       -31.086027

siesta: iscf   Eharris(eV)      E_KS(eV)   FreeEng(eV)     dDmax   Ef(eV)
siesta:    1      -31.1474      -31.0860      -31.0860   0.02878  -4.2131
timer: Routine,Calls,Time,% = IterSCF        1      38.637  84.26
siesta:    2      -31.1440      -31.1437      -31.1437   0.00267  -4.5072
siesta:    3      -31.1440      -31.1394      -31.1394   0.00113  -4.4837
siesta:    4      -31.1440      -31.1431      -31.1431   0.00047  -4.4833
siesta:    5      -31.1440      -31.1441      -31.1441   0.00002  -4.4877
grdsam: Reading %block GridCellSampling
grdsam: Grid-cell sampling, point   0
grdsam: Generating displacements for grid-cell sampling
grdsam: Grid-cell sampling, point   1
grdsam: Grid-cell sampling, point   2
grdsam: Grid-cell sampling, point   3

siesta: E_KS(eV) =              -31.1441

siesta: E_KS - E_eggbox =       -31.1441

siesta: Atomic forces (eV/Ang):
     1    0.021789    0.019630    2.772043
     2   -0.021782   -0.019624   -2.772077
----------------------------------------
 Tot    0.000007    0.000006   -0.000034
----------------------------------------
 Max    2.772077
 Res    1.600539    sqrt( Sum f_i^2 / 3N )
----------------------------------------
 Max    2.772077    constrained
 
mulliken: Atomic and Orbital Populations:

Species: H                   
Atom  Qatom  Qorb
               1s      1s      2py     2pz     2px     
   1  1.000   0.928   0.059   0.000   0.013   0.000
   2  1.000   0.928   0.059   0.000   0.013   0.000

mulliken: Qtot =    2.000
 
* Maximum dynamic memory allocated =   251 MB

siesta:                 ==============================
                            Begin CG move =      1
                        ==============================

outcoor: Atomic coordinates (Ang):                          
    3.25353201    5.72009504   18.92650888   1  H          1
    3.25974425    5.72569240   19.71615980   1  H          2

siesta: iscf   Eharris(eV)      E_KS(eV)   FreeEng(eV)     dDmax   Ef(eV)
siesta:    1      -31.3121      -31.2865      -31.2865   0.01865  -4.9519
siesta:    2      -31.3103      -31.3102      -31.3102   0.00205  -4.7415
siesta:    3      -31.3103      -31.3081      -31.3081   0.00073  -4.7617
siesta:    4      -31.3103      -31.3105      -31.3105   0.00025  -4.7562
siesta:    5      -31.3103      -31.3105      -31.3105   0.00024  -4.7562
siesta:    6      -31.3103      -31.3105      -31.3105   0.00024  -4.7563
siesta:    7      -31.3103      -31.3105      -31.3105   0.00023  -4.7563
siesta:    8      -31.3103      -31.3105      -31.3105   0.00022  -4.7564
siesta:    9      -31.3103      -31.3105      -31.3105   0.00022  -4.7564
siesta:   10      -31.3103      -31.3105      -31.3105   0.00022  -4.7565
siesta:   11      -31.3103      -31.3105      -31.3105   0.00021  -4.7565
siesta:   12      -31.3103      -31.3105      -31.3105   0.00021  -4.7566
siesta:   13      -31.3103      -31.3105      -31.3105   0.00020  -4.7566
siesta:   14      -31.3103      -31.3105      -31.3105   0.00020  -4.7567
siesta:   15      -31.3103      -31.3105      -31.3105   0.00019  -4.7567
siesta:   16      -31.3103      -31.3105      -31.3105   0.00019  -4.7567
siesta:   17      -31.3103      -31.3105      -31.3105   0.00018  -4.7568
siesta:   18      -31.3103      -31.3105      -31.3105   0.00018  -4.7568
siesta:   19      -31.3103      -31.3105      -31.3105   0.00018  -4.7568
siesta:   20      -31.3103      -31.3105      -31.3105   0.00017  -4.7569
siesta:   21      -31.3103      -31.3105      -31.3105   0.00017  -4.7569
siesta:   22      -31.3103      -31.3105      -31.3105   0.00016  -4.7570
siesta:   23      -31.3103      -31.3105      -31.3105   0.00016  -4.7570
siesta:   24      -31.3103      -31.3105      -31.3105   0.00016  -4.7570
siesta:   25      -31.3103      -31.3105      -31.3105   0.00015  -4.7571
siesta:   26      -31.3103      -31.3105      -31.3105   0.00015  -4.7571
siesta:   27      -31.3103      -31.3104      -31.3104   0.00015  -4.7571
siesta:   28      -31.3103      -31.3104      -31.3104   0.00014  -4.7571
siesta:   29      -31.3103      -31.3104      -31.3104   0.00014  -4.7572
siesta:   30      -31.3103      -31.3104      -31.3104   0.00014  -4.7572
siesta:   31      -31.3103      -31.3104      -31.3104   0.00013  -4.7572
siesta:   32      -31.3103      -31.3104      -31.3104   0.00013  -4.7573
siesta:   33      -31.3103      -31.3104      -31.3104   0.00013  -4.7573
siesta:   34      -31.3103      -31.3104      -31.3104   0.00013  -4.7573
siesta:   35      -31.3103      -31.3104      -31.3104   0.00012  -4.7573
siesta:   36      -31.3103      -31.3104      -31.3104   0.00012  -4.7574
siesta:   37      -31.3103      -31.3104      -31.3104   0.00012  -4.7574
siesta:   38      -31.3103      -31.3104      -31.3104   0.00012  -4.7574
siesta:   39      -31.3103      -31.3104      -31.3104   0.00011  -4.7574
siesta:   40      -31.3103      -31.3104      -31.3104   0.00011  -4.7575
siesta:   41      -31.3103      -31.3104      -31.3104   0.00011  -4.7575
siesta:   42      -31.3103      -31.3104      -31.3104   0.00011  -4.7575
siesta:   43      -31.3103      -31.3104      -31.3104   0.00010  -4.7575
siesta:   44      -31.3103      -31.3104      -31.3104   0.00010  -4.7575
siesta:   45      -31.3103      -31.3104      -31.3104   0.00010  -4.7576
grdsam: Grid-cell sampling, point   0
grdsam: Grid-cell sampling, point   1
grdsam: Grid-cell sampling, point   2
grdsam: Grid-cell sampling, point   3

siesta: E_KS(eV) =              -31.3104

siesta: Atomic forces (eV/Ang):
     1    0.009632    0.008676    1.226740
     2   -0.009659   -0.008705   -1.226750
----------------------------------------
 Tot   -0.000027   -0.000029   -0.000010
----------------------------------------
 Max    1.226750
 Res    0.708301    sqrt( Sum f_i^2 / 3N )
----------------------------------------
 Max    1.226750    constrained
 
mulliken: Atomic and Orbital Populations:

Species: H                   
Atom  Qatom  Qorb
               1s      1s      2py     2pz     2px     
   1  1.000   0.912   0.074   0.000   0.014   0.000
   2  1.000   0.912   0.074   0.000   0.014   0.000

mulliken: Qtot =    2.000
 
* Maximum dynamic memory allocated =   251 MB

siesta:                 ==============================
                            Begin CG move =      2
                        ==============================

outcoor: Atomic coordinates (Ang):                          
    3.25353201    5.72009504   18.92650888   1  H          1
    3.25911563    5.72512607   19.63615980   1  H          2

siesta: iscf   Eharris(eV)      E_KS(eV)   FreeEng(eV)     dDmax   Ef(eV)
siesta:    1      -31.3065      -31.2743      -31.2743   0.02034  -5.2662
siesta:    2      -31.3035      -31.3031      -31.3031   0.00283  -5.0032
siesta:    3      -31.3035      -31.3001      -31.3001   0.00086  -5.0348
siesta:    4      -31.3035      -31.3038      -31.3038   0.00040  -5.0263
siesta:    5      -31.3035      -31.3036      -31.3036   0.00001  -5.0304
grdsam: Grid-cell sampling, point   0
grdsam: Grid-cell sampling, point   1
grdsam: Grid-cell sampling, point   2
grdsam: Grid-cell sampling, point   3

siesta: E_KS(eV) =              -31.3036

siesta: Atomic forces (eV/Ang):
     1   -0.013412   -0.012089   -1.701794
     2    0.013412    0.012086    1.701761
----------------------------------------
 Tot   -0.000001   -0.000002   -0.000033
----------------------------------------
 Max    1.701794
 Res    0.982577    sqrt( Sum f_i^2 / 3N )
----------------------------------------
 Max    1.701761    constrained
 
mulliken: Atomic and Orbital Populations:

Species: H                   
Atom  Qatom  Qorb
               1s      1s      2py     2pz     2px     
   1  1.000   0.893   0.093   0.000   0.014   0.000
   2  1.000   0.893   0.093   0.000   0.014   0.000

mulliken: Qtot =    2.000
 
* Maximum dynamic memory allocated =   251 MB

siesta:                 ==============================
                            Begin CG move =      3
                        ==============================

outcoor: Atomic coordinates (Ang):                          
    3.25353201    5.72009504   18.92650888   1  H          1
    3.25948092    5.72545517   19.68264790   1  H          2

siesta: iscf   Eharris(eV)      E_KS(eV)   FreeEng(eV)     dDmax   Ef(eV)
siesta:    1      -31.3362      -31.3252      -31.3252   0.01199  -4.7399
siesta:    2      -31.3353      -31.3352      -31.3352   0.00153  -4.8855
siesta:    3      -31.3353      -31.3342      -31.3342   0.00052  -4.8695
siesta:    4      -31.3353      -31.3351      -31.3351   0.00012  -4.8705
siesta:    5      -31.3353      -31.3351      -31.3351   0.00012  -4.8705
siesta:    6      -31.3353      -31.3352      -31.3352   0.00011  -4.8706
siesta:    7      -31.3353      -31.3352      -31.3352   0.00011  -4.8706
siesta:    8      -31.3353      -31.3352      -31.3352   0.00011  -4.8706
siesta:    9      -31.3353      -31.3352      -31.3352   0.00011  -4.8706
siesta:   10      -31.3353      -31.3352      -31.3352   0.00010  -4.8707
siesta:   11      -31.3353      -31.3352      -31.3352   0.00010  -4.8707
siesta:   12      -31.3353      -31.3352      -31.3352   0.00010  -4.8707
grdsam: Grid-cell sampling, point   0
grdsam: Grid-cell sampling, point   1
grdsam: Grid-cell sampling, point   2
grdsam: Grid-cell sampling, point   3

siesta: E_KS(eV) =              -31.3352

siesta: Atomic forces (eV/Ang):
     1    0.001736    0.001561    0.223221
     2   -0.001718   -0.001543   -0.223139
----------------------------------------
 Tot    0.000018    0.000018    0.000082
----------------------------------------
 Max    0.223221
 Res    0.128860    sqrt( Sum f_i^2 / 3N )
----------------------------------------
 Max    0.223139    constrained
 
mulliken: Atomic and Orbital Populations:

Species: H                   
Atom  Qatom  Qorb
               1s      1s      2py     2pz     2px     
   1  1.000   0.904   0.082   0.000   0.014   0.000
   2  1.000   0.904   0.082   0.000   0.014   0.000

mulliken: Qtot =    2.000

cgvc: Finished line minimization    1.  Mean atomic displacement =    0.1069
 
* Maximum dynamic memory allocated =   251 MB

siesta:                 ==============================
                            Begin CG move =      4
                        ==============================

outcoor: Atomic coordinates (Ang):                          
    3.25353201    5.72009504   18.92650888   1  H          1
    3.25886393    5.72490090   19.60264790   1  H          2

siesta: iscf   Eharris(eV)      E_KS(eV)   FreeEng(eV)     dDmax   Ef(eV)
siesta:    1      -31.2198      -31.1858      -31.1858   0.02063   1.1555
siesta:    2      -31.2163      -31.2158      -31.2158   0.00314   1.4388
siesta:    3      -31.2162      -31.2124      -31.2124   0.00090   1.4018
siesta:    4      -31.2162      -31.2166      -31.2166   0.00045   1.4116
siesta:    5      -31.2162      -31.2164      -31.2164   0.00001   1.4066
grdsam: Grid-cell sampling, point   0
grdsam: Grid-cell sampling, point   1
grdsam: Grid-cell sampling, point   2
grdsam: Grid-cell sampling, point   3

siesta: E_KS(eV) =              -31.2164

siesta: Atomic forces (eV/Ang):
     1   -0.028258   -0.025474   -3.580473
     2    0.028217    0.025430    3.580548
----------------------------------------
 Tot   -0.000042   -0.000044    0.000075
----------------------------------------
 Max    3.580548
 Res    2.067325    sqrt( Sum f_i^2 / 3N )
----------------------------------------
 Max    3.580548    constrained
 
mulliken: Atomic and Orbital Populations:

Species: H                   
Atom  Qatom  Qorb
               1s      1s      2py     2pz     2px     
   1  1.000   0.885   0.101   0.000   0.015   0.000
   2  1.000   0.885   0.101   0.000   0.015   0.000

mulliken: Qtot =    2.000
 
* Maximum dynamic memory allocated =   251 MB

siesta:                 ==============================
                            Begin CG move =      5
                        ==============================

outcoor: Atomic coordinates (Ang):                          
    3.25353201    5.72009504   18.92650888   1  H          1
    3.25944473    5.72542265   19.67795481   1  H          2

siesta: iscf   Eharris(eV)      E_KS(eV)   FreeEng(eV)     dDmax   Ef(eV)
siesta:    1      -31.3385      -31.3092      -31.3092   0.01946  -4.6715
siesta:    2      -31.3359      -31.3356      -31.3356   0.00255  -4.9107
siesta:    3      -31.3359      -31.3330      -31.3330   0.00086  -4.8837
siesta:    4      -31.3359      -31.3355      -31.3355   0.00033  -4.8840
siesta:    5      -31.3359      -31.3360      -31.3360   0.00001  -4.8878
grdsam: Grid-cell sampling, point   0
grdsam: Grid-cell sampling, point   1
grdsam: Grid-cell sampling, point   2
grdsam: Grid-cell sampling, point   3

siesta: E_KS(eV) =              -31.3360

siesta: Atomic forces (eV/Ang):
     1    0.000412    0.000368    0.054918
     2   -0.000400   -0.000358   -0.054831
----------------------------------------
 Tot    0.000012    0.000009    0.000087
----------------------------------------
 Max    0.054918
 Res    0.031683    sqrt( Sum f_i^2 / 3N )
----------------------------------------
 Max    0.054831    constrained
 
mulliken: Atomic and Orbital Populations:

Species: H                   
Atom  Qatom  Qorb
               1s      1s      2py     2pz     2px     
   1  1.000   0.903   0.083   0.000   0.014   0.000
   2  1.000   0.903   0.083   0.000   0.014   0.000

mulliken: Qtot =    2.000

cgvc: Finished line minimization    2.  Mean atomic displacement =    0.0063
 
* Maximum dynamic memory allocated =   251 MB

siesta:                 ==============================
                            Begin CG move =      6
                        ==============================

outcoor: Atomic coordinates (Ang):                          
    3.25353201    5.72009504   18.92650888   1  H          1
    3.25941005    5.72539158   19.67326169   1  H          2

siesta: iscf   Eharris(eV)      E_KS(eV)   FreeEng(eV)     dDmax   Ef(eV)
siesta:    1      -31.3358      -31.3357      -31.3357   0.00119  -4.9171
siesta:    2      -31.3358      -31.3358      -31.3358   0.00015  -4.9024
siesta:    3      -31.3358      -31.3358      -31.3358   0.00005  -4.9041
grdsam: Grid-cell sampling, point   0
grdsam: Grid-cell sampling, point   1
grdsam: Grid-cell sampling, point   2
grdsam: Grid-cell sampling, point   3

siesta: E_KS(eV) =              -31.3357

siesta: Atomic forces (eV/Ang):
     1   -0.000928   -0.000840   -0.115360
     2    0.000927    0.000836    0.115424
----------------------------------------
 Tot   -0.000002   -0.000003    0.000064
----------------------------------------
 Max    0.115424
 Res    0.066626    sqrt( Sum f_i^2 / 3N )
----------------------------------------
 Max    0.115424    constrained
 
mulliken: Atomic and Orbital Populations:

Species: H                   
Atom  Qatom  Qorb
               1s      1s      2py     2pz     2px     
   1  1.000   0.902   0.084   0.000   0.014   0.000
   2  1.000   0.902   0.084   0.000   0.014   0.000

mulliken: Qtot =    2.000
 
* Maximum dynamic memory allocated =   251 MB

siesta:                 ==============================
                            Begin CG move =      7
                        ==============================

outcoor: Atomic coordinates (Ang):                          
    3.25353201    5.72009504   18.92650888   1  H          1
    3.25943356    5.72541265   19.67644339   1  H          2

siesta: iscf   Eharris(eV)      E_KS(eV)   FreeEng(eV)     dDmax   Ef(eV)
siesta:    1      -31.3359      -31.3359      -31.3359   0.00082  -4.8840
siesta:    2      -31.3359      -31.3359      -31.3359   0.00010  -4.8939
siesta:    3      -31.3359      -31.3359      -31.3359   0.00003  -4.8928
grdsam: Grid-cell sampling, point   0
grdsam: Grid-cell sampling, point   1
grdsam: Grid-cell sampling, point   2
grdsam: Grid-cell sampling, point   3

siesta: E_KS(eV) =              -31.3359

siesta: Atomic forces (eV/Ang):
     1   -0.000014   -0.000016    0.000808
     2    0.000021    0.000021   -0.000726
----------------------------------------
 Tot    0.000008    0.000006    0.000082
----------------------------------------
 Max    0.000808
 Res    0.000444    sqrt( Sum f_i^2 / 3N )
----------------------------------------
 Max    0.000726    constrained
 
mulliken: Atomic and Orbital Populations:

Species: H                   
Atom  Qatom  Qorb
               1s      1s      2py     2pz     2px     
   1  1.000   0.903   0.083   0.000   0.014   0.000
   2  1.000   0.903   0.083   0.000   0.014   0.000

mulliken: Qtot =    2.000

outcoor: Relaxed atomic coordinates (Ang):                  
    3.25353201    5.72009504   18.92650888   1  H          1
    3.25943356    5.72541265   19.67644339   1  H          2

siesta: Eigenvalues (eV):
  ik is    eps
   1  1 -11.08   1.51   4.21   4.21   9.78  10.89  10.89  17.66  43.45  89.89
siesta: Fermi energy =      -4.892835 eV

siesta: Program's energy decomposition (eV):
siesta:-Eions   =     -26.074526
siesta: Ena     =       4.296173
siesta: Ekin    =      26.391726
siesta: Enl     =     -17.163067
siesta: DEna    =      -1.460017
siesta: DUscf   =       0.252125
siesta: DUext   =       0.000000
siesta: Exc     =     -17.578344
siesta: eta*DQ  =       0.000000
siesta: Emadel  =       0.000000
siesta: Ekinion =       0.000000
siesta: Eharris =     -31.335938
siesta: Eso     =       0.000000
siesta: Etot    =     -31.335931
siesta: FreeEng =     -31.335931

siesta: Final energy (eV):
siesta:       Kinetic =      26.391726
siesta:       Hartree =      35.543784
siesta:    Ext. field =       0.000000
siesta:   Exch.-corr. =     -17.578344
siesta:  Ion-electron =     -97.074468
siesta:       Ion-ion =      21.381372
siesta:       Ekinion =       0.000000
siesta:         Total =     -31.335931

siesta: Stress tensor (static) (eV/Ang**3):
siesta:     0.000000    0.000000    0.000000
siesta:     0.000000    0.000000    0.000000
siesta:     0.000000    0.000000    0.000000

siesta: Cell volume =       3044.391638 Ang**3

siesta: Pressure (static):
siesta:                Solid            Molecule  Units
siesta:           0.00000000          0.00000000  Ry/Bohr**3
siesta:          -0.00000005          0.00000001  eV/Ang**3
siesta:          -0.00008002          0.00002089  kBar

siesta: Total spin polarization (Qup-Qdown) =    0.000000
siesta: Spin vector =    0.000000    0.000000    0.000000
siesta: No SpinPolK block detected...

siesta: Electric dipole (a.u.)  =    0.000000    0.000000    0.000000
siesta: Electric dipole (Debye) =    0.000000    0.000000    0.000000
 
* Maximum dynamic memory allocated : Node    0 =   243 MB
* Maximum dynamic memory allocated : Node    1 =   242 MB
* Maximum dynamic memory allocated : Node    2 =   251 MB
* Maximum dynamic memory allocated : Node    3 =   251 MB
* Maximum memory occured during redistribXZ                   

timer: CPU execution times:
timer:  Routine       Calls   Time/call    Tot.time        %
timer:  siesta            1    2622.846    2622.846   100.00
timer:  Setup             1       6.630       6.630     0.25
timer:  bands             1       0.000       0.000     0.00
timer:  writewave         1       0.004       0.004     0.00
timer:  KSV_init          1       0.000       0.000     0.00
timer:  IterMD            8     321.115    2568.919    97.94
timer:  hsparse           9       0.000       0.000     0.00
timer:  overfsm          16       0.005       0.088     0.00
timer:  IterSCF          91      28.155    2562.095    97.68
timer:  kinefsm          16       0.002       0.031     0.00
timer:  nlefsm           16       0.050       0.805     0.03
timer:  DHSCF           116      22.468    2606.293    99.37
timer:  DHSCF1            1       7.683       7.683     0.29
timer:  DHSCF2           33      11.812     389.803    14.86
timer:  REORD          1462       0.056      82.499     3.15
timer:  POISON          149       9.093    1354.893    51.66
timer:  DHSCF3          116      18.583    2155.686    82.19
timer:  rhoofd          116       0.174      20.221     0.77
timer:  CELLXC          116       5.409     627.437    23.92
timer:  vmat             91       0.139      12.619     0.48
timer:  diagon           83       0.021       1.767     0.07
timer:  rdiag            83       0.015       1.273     0.05
timer:  DHSCF4           32       1.638      52.411     2.00
timer:  dfscf            32       1.333      42.663     1.63
  
>> End of run:   7-NOV-2013  16:06:22
