 DBCSR| CPU Multiplication driver                                           XSMM
 DBCSR| Multrec recursion limit                                              512
 DBCSR| Multiplication stack size                                           1000
 DBCSR| Maximum elements for images                                    UNLIMITED
 DBCSR| Multiplicative factor virtual images                                   1
 DBCSR| Use multiplication densification                                       T
 DBCSR| Multiplication size stacks                                             3
 DBCSR| Use memory pool for CPU allocation                                     F
 DBCSR| Number of 3D layers                                               SINGLE
 DBCSR| Use MPI memory allocation                                              F
 DBCSR| Use RMA algorithm                                                      F
 DBCSR| Use Communication thread                                               T
 DBCSR| Communication thread load                                             87
 DBCSR| MPI: My node id                                                        0
 DBCSR| MPI: Number of nodes                                                 512
 DBCSR| OMP: Current number of threads                                         1
 DBCSR| OMP: Max number of threads                                             1
 DBCSR| Split modifier for TAS multiplication algorithm                  1.0E+00


  **** **** ******  **  PROGRAM STARTED AT               2024-01-09 17:08:49.924
 ***** ** ***  *** **   PROGRAM STARTED ON                           hx1-c04-1-1
 **    ****   ******    PROGRAM STARTED BY                                cahart
 ***** **    ** ** **   PROGRAM PROCESS ID                               2432115
  **** **  *******  **  PROGRAM STARTED IN /gpfs/home/cahart/transport/melamine/
                                           au_from-h2/leads/leads-sz_kpoints-1-1
                                           -20

 CP2K| version string:                 CP2K version 2022.1 (Development Version)
 CP2K| source code revision number:                                  git:5518aa6
 CP2K| cp2kflags: omp libint fftw3 libxc parallel mpi3 scalapack xsmm plumed2   
 CP2K| is freely available from                            https://www.cp2k.org/
 CP2K| Program compiled at                          Thu 21 Sep 19:20:17 BST 2023
 CP2K| Program compiled on                                       hx1-c12-login-1
 CP2K| Program compiled for                                                local
 CP2K| Data directory path    /gpfs/easybuild/prod/software/CP2K/2022.1-foss-202
 CP2K| Input file name                                              1_bulkLR.inp

 GLOBAL| Force Environment number                                              1
 GLOBAL| Basis set file name                                        BASIS_MOLOPT
 GLOBAL| Potential file name                                      GTH_POTENTIALS
 GLOBAL| MM Potential file name                                     MM_POTENTIAL
 GLOBAL| Coordinate file name                                           bulk.xyz
 GLOBAL| Method name                                                        CP2K
 GLOBAL| Project name                                                       bulk
 GLOBAL| Run type                                                         ENERGY
 GLOBAL| FFT library                                                       FFTW3
 GLOBAL| Diagonalization library                                       ScaLAPACK
 GLOBAL| Orthonormality check for eigenvectors                          DISABLED
 GLOBAL| Matrix multiplication library                                 ScaLAPACK
 GLOBAL| All-to-all communication in single precision                          F
 GLOBAL| FFTs using library dependent lengths                                  T
 GLOBAL| Grid backend                                                       AUTO
 GLOBAL| Global print level                                               MEDIUM
 GLOBAL| MPI I/O enabled                                                       T
 GLOBAL| Total number of message passing processes                           512
 GLOBAL| Number of threads for this process                                    1
 GLOBAL| This output is from process                                           0
 GLOBAL| Stack size for threads created by OpenMP (OMP_STACKSIZE)        default
 GLOBAL| CPU model name             Intel(R) Xeon(R) Platinum 8358 CPU @ 2.60GHz
 GLOBAL| CPUID                                                              1003

 MEMORY| system memory details [Kb]
 MEMORY|                        rank 0           min           max       average
 MEMORY| MemTotal            527652792     527652792     527652796     527652792
 MEMORY| MemFree             509742268     507080516     510698716     509656947
 MEMORY| Buffers                  5492          5388          5492          5479
 MEMORY| Cached                2116708       1597688       2116708       2043190
 MEMORY| Slab                  1624372       1366268       1624372       1579195
 MEMORY| SReclaimable           690044        474444        692380        660676
 MEMORY| MemLikelyFree       512554512     509883956     512820104     512366292


 *** Fundamental physical constants (SI units) ***

 *** Literature: B. J. Mohr and B. N. Taylor,
 ***             CODATA recommended values of the fundamental physical
 ***             constants: 2006, Web Version 5.1
 ***             http://physics.nist.gov/constants

 Speed of light in vacuum [m/s]                             2.99792458000000E+08
 Magnetic constant or permeability of vacuum [N/A**2]       1.25663706143592E-06
 Electric constant or permittivity of vacuum [F/m]          8.85418781762039E-12
 Planck constant (h) [J*s]                                  6.62606896000000E-34
 Planck constant (h-bar) [J*s]                              1.05457162825177E-34
 Elementary charge [C]                                      1.60217648700000E-19
 Electron mass [kg]                                         9.10938215000000E-31
 Electron g factor [ ]                                     -2.00231930436220E+00
 Proton mass [kg]                                           1.67262163700000E-27
 Fine-structure constant                                    7.29735253760000E-03
 Rydberg constant [1/m]                                     1.09737315685270E+07
 Avogadro constant [1/mol]                                  6.02214179000000E+23
 Boltzmann constant [J/K]                                   1.38065040000000E-23
 Atomic mass unit [kg]                                      1.66053878200000E-27
 Bohr radius [m]                                            5.29177208590000E-11

 *** Conversion factors ***

 [u] -> [a.u.]                                              1.82288848426455E+03
 [Angstrom] -> [Bohr] = [a.u.]                              1.88972613288564E+00
 [a.u.] = [Bohr] -> [Angstrom]                              5.29177208590000E-01
 [a.u.] -> [s]                                              2.41888432650478E-17
 [a.u.] -> [fs]                                             2.41888432650478E-02
 [a.u.] -> [J]                                              4.35974393937059E-18
 [a.u.] -> [N]                                              8.23872205491840E-08
 [a.u.] -> [K]                                              3.15774647902944E+05
 [a.u.] -> [kJ/mol]                                         2.62549961709828E+03
 [a.u.] -> [kcal/mol]                                       6.27509468713739E+02
 [a.u.] -> [Pa]                                             2.94210107994716E+13
 [a.u.] -> [bar]                                            2.94210107994716E+08
 [a.u.] -> [atm]                                            2.90362800883016E+08
 [a.u.] -> [eV]                                             2.72113838565563E+01
 [a.u.] -> [Hz]                                             6.57968392072181E+15
 [a.u.] -> [1/cm] (wave numbers)                            2.19474631370540E+05
 [a.u./Bohr**2] -> [1/cm]                                   5.14048714338585E+03
 

 CELL_TOP| Volume [angstrom^3]:                                      1080.814340
 CELL_TOP| Vector a [angstrom    14.582     0.000     0.000   |a| =    14.582000
 CELL_TOP| Vector b [angstrom     0.000     8.866     0.000   |b| =     8.866000
 CELL_TOP| Vector c [angstrom     0.000     0.000     8.360   |c| =     8.360000
 CELL_TOP| Angle (b,c), alpha [degree]:                                90.000000
 CELL_TOP| Angle (a,c), beta  [degree]:                                90.000000
 CELL_TOP| Angle (a,b), gamma [degree]:                                90.000000
 CELL_TOP| Numerically orthorhombic:                                         YES
 CELL_TOP| Periodicity                                                       XYZ

 GENERATE|  Preliminary Number of Bonds generated:                             0
 GENERATE|  Achieved consistency in connectivity generation.

 CELL| Volume [angstrom^3]:                                          1080.814340
 CELL| Vector a [angstrom]:      14.582     0.000     0.000   |a| =    14.582000
 CELL| Vector b [angstrom]:       0.000     8.866     0.000   |b| =     8.866000
 CELL| Vector c [angstrom]:       0.000     0.000     8.360   |c| =     8.360000
 CELL| Angle (b,c), alpha [degree]:                                    90.000000
 CELL| Angle (a,c), beta  [degree]:                                    90.000000
 CELL| Angle (a,b), gamma [degree]:                                    90.000000
 CELL| Numerically orthorhombic:                                             YES
 CELL| Periodicity                                                           XYZ

 CELL_REF| Volume [angstrom^3]:                                      1080.814340
 CELL_REF| Vector a [angstrom    14.582     0.000     0.000   |a| =    14.582000
 CELL_REF| Vector b [angstrom     0.000     8.866     0.000   |b| =     8.866000
 CELL_REF| Vector c [angstrom     0.000     0.000     8.360   |c| =     8.360000
 CELL_REF| Angle (b,c), alpha [degree]:                                90.000000
 CELL_REF| Angle (a,c), beta  [degree]:                                90.000000
 CELL_REF| Angle (a,b), gamma [degree]:                                90.000000
 CELL_REF| Numerically orthorhombic:                                         YES
 CELL_REF| Periodicity                                                       XYZ

 *** WARNING in cryssym.F:165 :: Symmetry library SPGLIB not available ***


 *******************************************************************************
                                    Kpoints
 *******************************************************************************
 BRILLOUIN| K-point scheme                                        Monkhorst-Pack
 BRILLOUIN| K-Point grid                                             1    1   20
 BRILLOUIN| Accuracy in Symmetry determination                      0.100000E-07
 BRILLOUIN| K-Point point group symmetrization                               OFF
 BRILLOUIN| Wavefunction type                                            COMPLEX
 BRILLOUIN| Use full k-point grid     
 BRILLOUIN| List of Kpoints [2 Pi/Bohr]                                       20
 BRILLOUIN| Number           Weight            X              Y              Z
 BRILLOUIN|     1           0.05000        0.00000        0.00000       -0.47500
 BRILLOUIN|     2           0.05000        0.00000        0.00000       -0.42500
 BRILLOUIN|     3           0.05000        0.00000        0.00000       -0.37500
 BRILLOUIN|     4           0.05000        0.00000        0.00000       -0.32500
 BRILLOUIN|     5           0.05000        0.00000        0.00000       -0.27500
 BRILLOUIN|     6           0.05000        0.00000        0.00000       -0.22500
 BRILLOUIN|     7           0.05000        0.00000        0.00000       -0.17500
 BRILLOUIN|     8           0.05000        0.00000        0.00000       -0.12500
 BRILLOUIN|     9           0.05000        0.00000        0.00000       -0.07500
 BRILLOUIN|    10           0.05000        0.00000        0.00000       -0.02500
 BRILLOUIN|    11           0.05000        0.00000        0.00000        0.02500
 BRILLOUIN|    12           0.05000        0.00000        0.00000        0.07500
 BRILLOUIN|    13           0.05000        0.00000        0.00000        0.12500
 BRILLOUIN|    14           0.05000        0.00000        0.00000        0.17500
 BRILLOUIN|    15           0.05000        0.00000        0.00000        0.22500
 BRILLOUIN|    16           0.05000        0.00000        0.00000        0.27500
 BRILLOUIN|    17           0.05000        0.00000        0.00000        0.32500
 BRILLOUIN|    18           0.05000        0.00000        0.00000        0.37500
 BRILLOUIN|    19           0.05000        0.00000        0.00000        0.42500
 BRILLOUIN|    20           0.05000        0.00000        0.00000        0.47500
 *******************************************************************************

 *******************************************************************************
 *******************************************************************************
 **                                                                           **
 **     #####                         ##              ##                      **
 **    ##   ##            ##          ##              ##                      **
 **   ##     ##                       ##            ######                    **
 **   ##     ##  ##   ##  ##   #####  ##  ##   ####   ##    #####    #####    **
 **   ##     ##  ##   ##  ##  ##      ## ##   ##      ##   ##   ##  ##   ##   **
 **   ##  ## ##  ##   ##  ##  ##      ####     ###    ##   ######   ######    **
 **    ##  ###   ##   ##  ##  ##      ## ##      ##   ##   ##       ##        **
 **     #######   #####   ##   #####  ##  ##  ####    ##    #####   ##        **
 **           ##                                                    ##        **
 **                                                                           **
 **                                                ... make the atoms dance   **
 **                                                                           **
 **            Copyright (C) by CP2K developers group (2000-2022)             **
 **                      J. Chem. Phys. 152, 194103 (2020)                    **
 **                                                                           **
 *******************************************************************************

 DFT| Spin restricted Kohn-Sham (RKS) calculation                            RKS
 DFT| Multiplicity                                                             1
 DFT| Number of spin states                                                    1
 DFT| Charge                                                                   0
 DFT| Self-interaction correction (SIC)                                       NO
 DFT| Cutoffs: density                                              1.000000E-10
 DFT|          gradient                                             1.000000E-10
 DFT|          tau                                                  1.000000E-10
 DFT|          cutoff_smoothing_range                               0.000000E+00
 DFT| XC density smoothing                                                  NONE
 DFT| XC derivatives                                                          PW

 FUNCTIONAL| PBE:
 FUNCTIONAL| J.P.Perdew, K.Burke, M.Ernzerhof, Phys. Rev. Letter, vol. 77, n 18,
 FUNCTIONAL|  pp. 3865-3868, (1996){spin unpolarized}                           


 QS| Method:                                                                 GPW
 QS| Density plane wave grid type                        NON-SPHERICAL FULLSPACE
 QS| Number of grid levels:                                                    4
 QS| Density cutoff [a.u.]:                                                300.0
 QS| Multi grid cutoff [a.u.]: 1) grid level                               300.0
 QS|                           2) grid level                               100.0
 QS|                           3) grid level                                33.3
 QS|                           4) grid level                                11.1
 QS| Grid level progression factor:                                          3.0
 QS| Relative density cutoff [a.u.]:                                        30.0
 QS| Interaction thresholds: eps_pgf_orb:                                1.0E-05
 QS|                         eps_filter_matrix:                          0.0E+00
 QS|                         eps_core_charge:                            1.0E-12
 QS|                         eps_rho_gspace:                             1.0E-10
 QS|                         eps_rho_rspace:                             1.0E-10
 QS|                         eps_gvg_rspace:                             1.0E-05
 QS|                         eps_ppl:                                    1.0E-02
 QS|                         eps_ppnl:                                   1.0E-07


 ATOMIC KIND INFORMATION

  1. Atomic kind: Au_bulk                               Number of atoms:      60

     Orbital Basis Set                                     SZV-MOLOPT-SR-GTH-q11

       Number of orbital shell sets:                                           1
       Number of orbital shells:                                               3
       Number of primitive Cartesian functions:                                5
       Number of Cartesian basis functions:                                   10
       Number of spherical basis functions:                                    9
       Norm type:                                                              2

       Normalised Cartesian orbitals:

                        Set   Shell   Orbital            Exponent    Coefficient

                          1       1    2s                2.950008       0.074626
                                                         1.563057      -0.007898
                                                         0.666664      -0.297688
                                                         0.251083       0.136809
                                                         0.081714       0.088198

                          1       2    3px               2.950008       0.148824
                                                         1.563057       0.025430
                                                         0.666664      -0.123003
                                                         0.251083       0.033648
                                                         0.081714       0.059008
                          1       2    3py               2.950008       0.148824
                                                         1.563057       0.025430
                                                         0.666664      -0.123003
                                                         0.251083       0.033648
                                                         0.081714       0.059008
                          1       2    3pz               2.950008       0.148824
                                                         1.563057       0.025430
                                                         0.666664      -0.123003
                                                         0.251083       0.033648
                                                         0.081714       0.059008

                          1       3    4dx2              2.950008      -0.139595
                                                         1.563057       1.319655
                                                         0.666664       0.377081
                                                         0.251083       0.046872
                                                         0.081714       0.001393
                          1       3    4dxy              2.950008      -0.241786
                                                         1.563057       2.285709
                                                         0.666664       0.653124
                                                         0.251083       0.081185
                                                         0.081714       0.002412
                          1       3    4dxz              2.950008      -0.241786
                                                         1.563057       2.285709
                                                         0.666664       0.653124
                                                         0.251083       0.081185
                                                         0.081714       0.002412
                          1       3    4dy2              2.950008      -0.139595
                                                         1.563057       1.319655
                                                         0.666664       0.377081
                                                         0.251083       0.046872
                                                         0.081714       0.001393
                          1       3    4dyz              2.950008      -0.241786
                                                         1.563057       2.285709
                                                         0.666664       0.653124
                                                         0.251083       0.081185
                                                         0.081714       0.002412
                          1       3    4dz2              2.950008      -0.139595
                                                         1.563057       1.319655
                                                         0.666664       0.377081
                                                         0.251083       0.046872
                                                         0.081714       0.001393

       Atomic covalent radius [Angstrom]:                                  1.340

       Atomic van der Waals radius [Angstrom]:                             1.660

     GTH Potential information for                                   GTH-PBE-q11

       Description:                       Goedecker-Teter-Hutter pseudopotential
                                           Goedecker et al., PRB 54, 1703 (1996)
                                          Hartwigsen et al., PRB 58, 3641 (1998)
                                                      Krack, TCA 114, 145 (2005)

       Gaussian exponent of the core charge distribution:               1.436369
       Electronic configuration (s p d ...):                           1   0  10

       Parameters of the local part of the GTH pseudopotential:

                          rloc        C1          C2          C3          C4
                        0.590000   10.517179

       Parameters of the non-local part of the GTH pseudopotential:

                   l      r(l)      h(i,j,l)

                   0    0.543847    5.786811   -2.250680
                                   -2.250680    2.905615
                   1    0.609173    4.284049   -4.071285
                                   -4.071285    4.817210
                   2    0.437309   -7.403281    3.010193
                                    3.010193   -3.413238


 MOLECULE KIND INFORMATION


 All atoms are their own molecule, skipping detailed information


 TOTAL NUMBERS AND MAXIMUM NUMBERS

  Total number of            - Atomic kinds:                                   1
                             - Atoms:                                         60
                             - Shell sets:                                    60
                             - Shells:                                       180
                             - Primitive Cartesian functions:                300
                             - Cartesian basis functions:                    600
                             - Spherical basis functions:                    540

  Maximum angular momentum of- Orbital basis functions:                        2
                             - Local part of the GTH pseudopotential:          0
                             - Non-local part of the GTH pseudopotential:      4


 MODULE QUICKSTEP: ATOMIC COORDINATES IN ANGSTROM

   Atom Kind Element         X             Y             Z       Z(eff)     Mass
      1    1 Au   79      0.000000      0.000000      0.000000  11.0000 196.9666
      2    1 Au   79      0.000000      2.955000      0.000000  11.0000 196.9666
      3    1 Au   79      0.000000      5.911000      0.000000  11.0000 196.9666
      4    1 Au   79      2.956000      0.000000      0.000000  11.0000 196.9666
      5    1 Au   79      2.956000      2.955000      0.000000  11.0000 196.9666
      6    1 Au   79      2.956000      5.911000      0.000000  11.0000 196.9666
      7    1 Au   79      5.912000      0.000000      0.000000  11.0000 196.9666
      8    1 Au   79      5.912000      2.955000      0.000000  11.0000 196.9666
      9    1 Au   79      5.912000      5.911000      0.000000  11.0000 196.9666
     10    1 Au   79      8.670000      0.000000      0.000000  11.0000 196.9666
     11    1 Au   79      8.670000      2.955000      0.000000  11.0000 196.9666
     12    1 Au   79      8.670000      5.911000      0.000000  11.0000 196.9666
     13    1 Au   79     11.626000      0.000000      0.000000  11.0000 196.9666
     14    1 Au   79     11.626000      2.955000      0.000000  11.0000 196.9666
     15    1 Au   79     11.626000      5.911000      0.000000  11.0000 196.9666
     16    1 Au   79      1.478000      1.478000      2.090000  11.0000 196.9666
     17    1 Au   79      1.478000      4.433000      2.090000  11.0000 196.9666
     18    1 Au   79      1.478000      7.389000      2.090000  11.0000 196.9666
     19    1 Au   79      4.434000      1.478000      2.090000  11.0000 196.9666
     20    1 Au   79      4.434000      4.433000      2.090000  11.0000 196.9666
     21    1 Au   79      4.434000      7.389000      2.090000  11.0000 196.9666
     22    1 Au   79      7.192000      1.478000      2.090000  11.0000 196.9666
     23    1 Au   79      7.192000      4.433000      2.090000  11.0000 196.9666
     24    1 Au   79      7.192000      7.389000      2.090000  11.0000 196.9666
     25    1 Au   79     10.148000      1.478000      2.090000  11.0000 196.9666
     26    1 Au   79     10.148000      4.433000      2.090000  11.0000 196.9666
     27    1 Au   79     10.148000      7.389000      2.090000  11.0000 196.9666
     28    1 Au   79     13.104000      1.478000      2.090000  11.0000 196.9666
     29    1 Au   79     13.104000      4.433000      2.090000  11.0000 196.9666
     30    1 Au   79     13.104000      7.389000      2.090000  11.0000 196.9666
     31    1 Au   79      0.000000      0.000000      4.180000  11.0000 196.9666
     32    1 Au   79      0.000000      2.955000      4.180000  11.0000 196.9666
     33    1 Au   79      0.000000      5.911000      4.180000  11.0000 196.9666
     34    1 Au   79      2.956000      0.000000      4.180000  11.0000 196.9666
     35    1 Au   79      2.956000      2.955000      4.180000  11.0000 196.9666
     36    1 Au   79      2.956000      5.911000      4.180000  11.0000 196.9666
     37    1 Au   79      5.912000      0.000000      4.180000  11.0000 196.9666
     38    1 Au   79      5.912000      2.955000      4.180000  11.0000 196.9666
     39    1 Au   79      5.912000      5.911000      4.180000  11.0000 196.9666
     40    1 Au   79      8.670000      0.000000      4.180000  11.0000 196.9666
     41    1 Au   79      8.670000      2.955000      4.180000  11.0000 196.9666
     42    1 Au   79      8.670000      5.911000      4.180000  11.0000 196.9666
     43    1 Au   79     11.626000      0.000000      4.180000  11.0000 196.9666
     44    1 Au   79     11.626000      2.955000      4.180000  11.0000 196.9666
     45    1 Au   79     11.626000      5.911000      4.180000  11.0000 196.9666
     46    1 Au   79      1.478000      1.478000      6.270000  11.0000 196.9666
     47    1 Au   79      1.478000      4.433000      6.270000  11.0000 196.9666
     48    1 Au   79      1.478000      7.389000      6.270000  11.0000 196.9666
     49    1 Au   79      4.434000      1.478000      6.270000  11.0000 196.9666
     50    1 Au   79      4.434000      4.433000      6.270000  11.0000 196.9666
     51    1 Au   79      4.434000      7.389000      6.270000  11.0000 196.9666
     52    1 Au   79      7.192000      1.478000      6.270000  11.0000 196.9666
     53    1 Au   79      7.192000      4.433000      6.270000  11.0000 196.9666
     54    1 Au   79      7.192000      7.389000      6.270000  11.0000 196.9666
     55    1 Au   79     10.148000      1.478000      6.270000  11.0000 196.9666
     56    1 Au   79     10.148000      4.433000      6.270000  11.0000 196.9666
     57    1 Au   79     10.148000      7.389000      6.270000  11.0000 196.9666
     58    1 Au   79     13.104000      1.478000      6.270000  11.0000 196.9666
     59    1 Au   79     13.104000      4.433000      6.270000  11.0000 196.9666
     60    1 Au   79     13.104000      7.389000      6.270000  11.0000 196.9666



 SCF PARAMETERS         Density guess:                                   RESTART
                        --------------------------------------------------------
                        max_scf:                                             500
                        max_scf_history:                                       0
                        max_diis:                                              4
                        --------------------------------------------------------
                        eps_scf:                                        1.00E-06
                        eps_scf_history:                                0.00E+00
                        eps_diis:                                       1.00E-01
                        eps_eigval:                                     1.00E-05
                        --------------------------------------------------------
                        level_shift [a.u.]:                             0.000000
                        added MOs                                       100    0
                        --------------------------------------------------------
                        Mixing method:                            BROYDEN_MIXING
                                                charge density mixing in g-space
                        --------------------------------------------------------
                        Smear method:                                FERMI_DIRAC
                        Electronic temperature [K]:                        300.0
                        Electronic temperature [a.u.]:                  9.50E-04
                        Accuracy threshold:                             1.00E-10
                        --------------------------------------------------------
                        No outer SCF

 PW_GRID| Information for grid number                                          1
 PW_GRID| Grid distributed over                                   512 processors
 PW_GRID| Real space group dimensions                                    16   32
 PW_GRID| the grid is blocked:                                               YES
 PW_GRID| Cutoff [a.u.]                                                    300.0
 PW_GRID| spherical cutoff:                                                   NO
 PW_GRID|   Bounds   1           -108     107                Points:         216
 PW_GRID|   Bounds   2            -66      65                Points:         132
 PW_GRID|   Bounds   3            -63      62                Points:         126
 PW_GRID| Volume element (a.u.^3)  0.2030E-02     Volume (a.u.^3)      7293.6968
 PW_GRID| Grid span                                                    FULLSPACE
 PW_GRID|   Distribution                         Average         Max         Min
 PW_GRID|   G-Vectors                             7016.6        7776        5184
 PW_GRID|   G-Rays                                  32.5          36          24
 PW_GRID|   Real Space Points                     7016.6        7776        5184

 PW_GRID| Information for grid number                                          2
 PW_GRID| Number of the reference grid                                         1
 PW_GRID| Grid distributed over                                   512 processors
 PW_GRID| Real space group dimensions                                    16   32
 PW_GRID| the grid is blocked:                                                NO
 PW_GRID| Cutoff [a.u.]                                                    100.0
 PW_GRID| spherical cutoff:                                                   NO
 PW_GRID|   Bounds   1            -63      62                Points:         126
 PW_GRID|   Bounds   2            -37      37                Points:          75
 PW_GRID|   Bounds   3            -36      35                Points:          72
 PW_GRID| Volume element (a.u.^3)  0.1072E-01     Volume (a.u.^3)      7293.6968
 PW_GRID| Grid span                                                    FULLSPACE
 PW_GRID|   Distribution                         Average         Max         Min
 PW_GRID|   G-Vectors                             1328.9        4536           0
 PW_GRID|   G-Rays                                  10.5          36           0
 PW_GRID|   Real Space Points                     1328.9        1728        1008

 PW_GRID| Information for grid number                                          3
 PW_GRID| Number of the reference grid                                         1
 PW_GRID| Grid distributed over                                   512 processors
 PW_GRID| Real space group dimensions                                    16   32
 PW_GRID| the grid is blocked:                                                NO
 PW_GRID| Cutoff [a.u.]                                                     33.3
 PW_GRID| spherical cutoff:                                                   NO
 PW_GRID|   Bounds   1            -36      35                Points:          72
 PW_GRID|   Bounds   2            -22      21                Points:          44
 PW_GRID|   Bounds   3            -21      20                Points:          42
 PW_GRID| Volume element (a.u.^3)  0.5482E-01     Volume (a.u.^3)      7293.6968
 PW_GRID| Grid span                                                    FULLSPACE
 PW_GRID|   Distribution                         Average         Max         Min
 PW_GRID|   G-Vectors                              259.9        2592           0
 PW_GRID|   G-Rays                                   3.6          36           0
 PW_GRID|   Real Space Points                      259.9         420         168

 PW_GRID| Information for grid number                                          4
 PW_GRID| Number of the reference grid                                         1
 PW_GRID| Grid distributed over                                   512 processors
 PW_GRID| Real space group dimensions                                    16   32
 PW_GRID| the grid is blocked:                                                NO
 PW_GRID| Cutoff [a.u.]                                                     11.1
 PW_GRID| spherical cutoff:                                                   NO
 PW_GRID|   Bounds   1            -21      20                Points:          42
 PW_GRID|   Bounds   2            -12      12                Points:          25
 PW_GRID|   Bounds   3            -12      11                Points:          24
 PW_GRID| Volume element (a.u.^3)  0.2894         Volume (a.u.^3)      7293.6968
 PW_GRID| Grid span                                                    FULLSPACE
 PW_GRID|   Distribution                         Average         Max         Min
 PW_GRID|   G-Vectors                               49.2        1344           0
 PW_GRID|   G-Rays                                   1.2          32           0
 PW_GRID|   Real Space Points                       49.2          72           0

 POISSON| Solver                                                        PERIODIC
 POISSON| Periodicity                                                        XYZ

 RS_GRID| Information for grid number                                          1
 RS_GRID|   Bounds   1           -108     107                Points:         216
 RS_GRID|   Bounds   2            -66      65                Points:         132
 RS_GRID|   Bounds   3            -63      62                Points:         126
 RS_GRID| Real space distribution over                                  8 groups
 RS_GRID| Real space distribution along direction                              1
 RS_GRID| Border size                                                         36
 RS_GRID| Real space distribution over                                  8 groups
 RS_GRID| Real space distribution along direction                              2
 RS_GRID| Border size                                                         36
 RS_GRID| Real space distribution over                                  8 groups
 RS_GRID| Real space distribution along direction                              3
 RS_GRID| Border size                                                         36
 RS_GRID|   Distribution                         Average         Max         Min
 RS_GRID|   Planes                                  99.0          99          99
 RS_GRID|   Distribution                         Average         Max         Min
 RS_GRID|   Planes                                  88.5          89          88
 RS_GRID|   Distribution                         Average         Max         Min
 RS_GRID|   Planes                                  87.8          88          87

 RS_GRID| Information for grid number                                          2
 RS_GRID|   Bounds   1            -63      62                Points:         126
 RS_GRID|   Bounds   2            -37      37                Points:          75
 RS_GRID|   Bounds   3            -36      35                Points:          72
 RS_GRID| Real space distribution over                                  8 groups
 RS_GRID| Real space distribution along direction                              1
 RS_GRID| Border size                                                         24
 RS_GRID| Real space distribution over                                  8 groups
 RS_GRID| Real space distribution along direction                              2
 RS_GRID| Border size                                                         24
 RS_GRID| Real space distribution over                                  8 groups
 RS_GRID| Real space distribution along direction                              3
 RS_GRID| Border size                                                         24
 RS_GRID|   Distribution                         Average         Max         Min
 RS_GRID|   Planes                                  63.8          64          63
 RS_GRID|   Distribution                         Average         Max         Min
 RS_GRID|   Planes                                  57.4          58          57
 RS_GRID|   Distribution                         Average         Max         Min
 RS_GRID|   Planes                                  57.0          57          57

 RS_GRID| Information for grid number                                          3
 RS_GRID|   Bounds   1            -36      35                Points:          72
 RS_GRID|   Bounds   2            -22      21                Points:          44
 RS_GRID|   Bounds   3            -21      20                Points:          42
 RS_GRID| Real space fully replicated
 RS_GRID| Group size                                                           1

 RS_GRID| Information for grid number                                          4
 RS_GRID|   Bounds   1            -21      20                Points:          42
 RS_GRID|   Bounds   2            -12      12                Points:          25
 RS_GRID|   Bounds   3            -12      11                Points:          24
 RS_GRID| Real space fully replicated
 RS_GRID| Group size                                                           1

 KPOINTS| Number of kpoint groups                                              4
 KPOINTS| Size of each kpoint group                                          128
 KPOINTS| Number of kpoints per group                                          5

 Number of electrons:                                                        660
 Number of occupied orbitals:                                                330
 Number of molecular orbitals:                                               430

 Number of orbital functions:                                                540
 Number of independent orbital functions:                                    540

 Extrapolation method: initial_guess

 *** WARNING in qs_initial_guess.F:310 :: User requested to restart the    ***
 *** wavefunction from the file named: bulk-RESTART_0.kp. This file does   ***
 *** not exist. Please check the existence of the file or change properly  ***
 *** the value of the keyword WFN_RESTART_FILE_NAME. Calculation continues ***
 *** using ATOMIC GUESS.                                                   ***


 Atomic guess: The first density matrix is obtained in terms of atomic orbitals
               and electronic configurations assigned to each atomic kind

 Guess for atomic kind: Au_bulk

 Electronic structure
    Total number of core electrons                                         68.00
    Total number of valence electrons                                      11.00
    Total number of electrons                                              79.00
    Multiplicity                                                   not specified
    S   [  2.00  2.00  2.00  2.00  2.00] 1.00
    P   [  6.00  6.00  6.00  6.00]
    D   [ 10.00 10.00]10.00
    F   [ 14.00]


 *******************************************************************************
                  Iteration          Convergence                     Energy [au]
 *******************************************************************************
                          1         0.00000                     -32.925420860277

 Energy components [Hartree]           Total Energy ::          -32.925420860277
                                        Band Energy ::           -1.039708645574
                                     Kinetic Energy ::           24.744064437587
                                   Potential Energy ::          -57.669485297863
                                      Virial (-V/T) ::            2.330639149576
                                        Core Energy ::          -60.089512277916
                                          XC Energy ::           -5.116883226844
                                     Coulomb Energy ::           32.280974644483
                       Total Pseudopotential Energy ::          -84.935087836392
                       Local Pseudopotential Energy ::          -67.537295193389
                    Nonlocal Pseudopotential Energy ::          -17.397792643003
                                        Confinement ::            1.015111208892

 Orbital energies  State     L     Occupation   Energy[a.u.]          Energy[eV]

                       1     0          1.000      -0.207365           -5.642685

                       1     2         10.000      -0.083234           -2.264923


 Total Electron Density at R=0:                                         0.000035
 Re-scaling the density matrix to get the right number of electrons
                  # Electrons              Trace(P)               Scaling factor
                          660               660.000                        1.000


 SCF WAVEFUNCTION OPTIMIZATION

  Step     Update method      Time    Convergence         Total energy    Change
  ------------------------------------------------------------------------------
     1 NoMix/Diag. 0.30E+00    2.2     1.93603787     -1995.6998741226 -2.00E+03
     2 Broy./Diag. 0.30E+00    1.9     0.03236434     -2033.3819760671 -3.77E+01
     3 Broy./Diag. 0.30E+00    2.4     0.03304569     -2006.3348853290  2.70E+01
     4 Broy./Diag. 0.30E+00    2.1     0.00166917     -1995.2221395046  1.11E+01
     5 Broy./Diag. 0.30E+00    2.4     0.00081666     -1994.7316764954  4.90E-01
     6 Broy./Diag. 0.30E+00    2.0     0.00017743     -1994.7019468690  2.97E-02
     7 Broy./Diag. 0.30E+00    1.9     0.00007666     -1994.7045087425 -2.56E-03
     8 Broy./Diag. 0.30E+00    1.9     0.00005851     -1994.7044617093  4.70E-05
     9 Broy./Diag. 0.30E+00    2.0     0.00000569     -1994.7045919155 -1.30E-04
    10 Broy./Diag. 0.30E+00    2.2     0.00000371     -1994.7048088574 -2.17E-04
    11 Broy./Diag. 0.30E+00    2.1     0.00000191     -1994.7048010232  7.83E-06
    12 Broy./Diag. 0.30E+00    2.1     0.00000020     -1994.7047927820  8.24E-06

  *** SCF run converged in    12 steps ***


  Electronic density on regular grids:       -660.0000000002       -0.0000000002
  Core density on regular grids:              659.9999998917       -0.0000001083
  Total charge density on r-space grids:       -0.0000001085
  Total charge density g-space grids:          -0.0000001085

  Overlap energy of the core charge distribution:               0.00000031822273
  Self energy of the core charge distribution:              -3471.20031911585738
  Core Hamiltonian energy:                                   1109.82716174502957
  Hartree energy:                                             682.58816200297520
  Exchange-correlation energy:                               -315.91856469874244
  Electronic entropic energy:                                  -0.00123303462863
  Fermi energy:                                                 0.34492924529608

  Total energy:                                             -1994.70479278204311

 The electron density is written in cube file format to the file:

 bulk-ELECTRON_DENSITY-1_0.cube

 !-----------------------------------------------------------------------------!
                     Mulliken Population Analysis

 #  Atom  Element  Kind  Atomic population                           Net charge
       1     Au       1         11.000736                             -0.000736
       2     Au       1         11.000938                             -0.000938
       3     Au       1         11.001167                             -0.001167
       4     Au       1         11.016567                             -0.016567
       5     Au       1         11.016779                             -0.016779
       6     Au       1         11.016989                             -0.016989
       7     Au       1         10.966126                              0.033874
       8     Au       1         10.966296                              0.033704
       9     Au       1         10.966609                              0.033391
      10     Au       1         11.004617                             -0.004617
      11     Au       1         11.004803                             -0.004803
      12     Au       1         11.005003                             -0.005003
      13     Au       1         11.010909                             -0.010909
      14     Au       1         11.011116                             -0.011116
      15     Au       1         11.011342                             -0.011342
      16     Au       1         11.010909                             -0.010909
      17     Au       1         11.011341                             -0.011341
      18     Au       1         11.011117                             -0.011117
      19     Au       1         11.004620                             -0.004620
      20     Au       1         11.005003                             -0.005003
      21     Au       1         11.004804                             -0.004804
      22     Au       1         10.966125                              0.033875
      23     Au       1         10.966610                              0.033390
      24     Au       1         10.966296                              0.033704
      25     Au       1         11.016564                             -0.016564
      26     Au       1         11.016987                             -0.016987
      27     Au       1         11.016778                             -0.016778
      28     Au       1         11.000736                             -0.000736
      29     Au       1         11.001166                             -0.001166
      30     Au       1         11.000938                             -0.000938
      31     Au       1         11.000736                             -0.000736
      32     Au       1         11.000938                             -0.000938
      33     Au       1         11.001166                             -0.001166
      34     Au       1         11.016566                             -0.016566
      35     Au       1         11.016781                             -0.016781
      36     Au       1         11.016989                             -0.016989
      37     Au       1         10.966126                              0.033874
      38     Au       1         10.966298                              0.033702
      39     Au       1         10.966611                              0.033389
      40     Au       1         11.004619                             -0.004619
      41     Au       1         11.004804                             -0.004804
      42     Au       1         11.005003                             -0.005003
      43     Au       1         11.010908                             -0.010908
      44     Au       1         11.011117                             -0.011117
      45     Au       1         11.011341                             -0.011341
      46     Au       1         11.010908                             -0.010908
      47     Au       1         11.011342                             -0.011342
      48     Au       1         11.011116                             -0.011116
      49     Au       1         11.004620                             -0.004620
      50     Au       1         11.005005                             -0.005005
      51     Au       1         11.004807                             -0.004807
      52     Au       1         10.966126                              0.033874
      53     Au       1         10.966611                              0.033389
      54     Au       1         10.966296                              0.033704
      55     Au       1         11.016565                             -0.016565
      56     Au       1         11.016989                             -0.016989
      57     Au       1         11.016778                             -0.016778
      58     Au       1         11.000736                             -0.000736
      59     Au       1         11.001166                             -0.001166
      60     Au       1         11.000938                             -0.000938
 # Total charge                            660.000000                 -0.000000

 !-----------------------------------------------------------------------------!

 BULKTRANSP| E_FERMI [a.u.] =                                   3.4492924530E-01
 BULKTRANSP| HartreeLeadsBottom [a.u.] =                       -4.0625109316E-01

 ENERGY| Total FORCE_EVAL ( QS ) energy [a.u.]:            -1994.704792782043114

 -------------------------------------------------------------------------------
 -                                                                             -
 -                                DBCSR STATISTICS                             -
 -                                                                             -
 -------------------------------------------------------------------------------
 COUNTER                                    TOTAL       BLAS       SMM       ACC
 flops inhomo. stacks                           0       0.0%      0.0%      0.0%
 flops total                         0.000000E+00       0.0%      0.0%      0.0%
 flops max/rank                      0.000000E+00       0.0%      0.0%      0.0%
 matmuls inhomo. stacks                         0       0.0%      0.0%      0.0%
 matmuls total                                  0       0.0%      0.0%      0.0%
 number of processed stacks                     0       0.0%      0.0%      0.0%
 average stack size                                     0.0       0.0       0.0
 marketing flops                     0.000000E+00
 -------------------------------------------------------------------------------
 -                                                                             -
 -                      DBCSR MESSAGE PASSING PERFORMANCE                      -
 -                                                                             -
 -------------------------------------------------------------------------------
 ROUTINE             CALLS      AVE VOLUME [Bytes]
 MP_Bcast                1                     12.
 MP_Allreduce         1388                      8.
 MP_Alltoall         20644                 716491.
 -------------------------------------------------------------------------------

 -------------------------------------------------------------------------------
 -                                                                             -
 -                                DBM STATISTICS                               -
 -                                                                             -
 -------------------------------------------------------------------------------
    M  x    N  x    K                                          COUNT     PERCENT
 -------------------------------------------------------------------------------

 -------------------------------------------------------------------------------
 -                                                                             -
 -                                GRID STATISTICS                              -
 -                                                                             -
 -------------------------------------------------------------------------------
 LP    KERNEL             BACKEND                              COUNT     PERCENT
 4     collocate ortho    REF                                 772044      38.47%
 4     integrate ortho    REF                                 712656      35.51%
 0     collocate general  REF                                 276480      13.78%
 0     integrate general  REF                                 245760      12.25%
 -------------------------------------------------------------------------------

 MEMORY| Estimated peak process memory [MiB]                                 359

 -------------------------------------------------------------------------------
 ----                             MULTIGRID INFO                            ----
 -------------------------------------------------------------------------------
 count for grid        1:          93180          cutoff [a.u.]          300.00
 count for grid        2:         250164          cutoff [a.u.]          100.00
 count for grid        3:         112944          cutoff [a.u.]           33.33
 count for grid        4:          94620          cutoff [a.u.]           11.11
 total gridlevel count  :         550908

 -------------------------------------------------------------------------------
 -                                                                             -
 -                         MESSAGE PASSING PERFORMANCE                         -
 -                                                                             -
 -------------------------------------------------------------------------------

 ROUTINE             CALLS      AVE VOLUME [Bytes]
 MP_Group                5
 MP_Bcast             9455                  26364.
 MP_Allreduce         1242                   1275.
 MP_Sync               154
 MP_Alltoall           409              517867471.
 MP_ISendRecv        25550                   1968.
 MP_Wait             33743
 MP_ISend            12995                  17966.
 MP_IRecv            19253                  15819.
 MP_Recv              1767                  73440.
 MP_Write_All            2                  92904.
 -------------------------------------------------------------------------------


 -------------------------------------------------------------------------------
 -                                                                             -
 -                           R E F E R E N C E S                               -
 -                                                                             -
 -------------------------------------------------------------------------------
 
 CP2K version 2022.1 (Development Version), the CP2K developers group (2022).
 CP2K is freely available from https://www.cp2k.org/ .

 Kuehne,Thomas D.; Iannuzzi,Marcella; Del Ben,Mauro;
 Rybkin,Vladimir V.; Seewald,Patrick; Stein,Frederick; Laino,Teodoro;
 Khaliullin,Rustam Z.; Schuett,Ole; Schiffmann,Florian; Golze,Dorothea;
 Wilhelm,Jan; Chulkov,Sergey; Bani-Hashemian,Mohammad Hossein;
 Weber,Valery; Borstnik,Urban; Taillefumier,Mathieu;
 Jakobovits,Alice Shoshana; Lazzaro,Alfio; Pabst,Hans; Mueller,Tiziano;
 Schade,Robert; Guidon,Manuel; Andermatt,Samuel; Holmberg,Nico;
 Schenter,Gregory K.; Hehn,Anna; Bussy,Augustin; Belleflamme,Fabian;
 Tabacchi,Gloria; Gloess,Andreas; Lass,Michael; Bethune,Iain;
 Mundy,Christopher J.; Plessl,Christian; Watkins,Matt;
 VandeVondele,Joost; Krack,Matthias; Hutter,Juerg. 
 The Journal of Chemical Physics, 152 (19), (2020). 
 CP2K: An electronic structure and molecular dynamics software package -
 Quickstep: Efficient and accurate electronic structure calculations.
 https://doi.org/10.1063/5.0007045

 Schuett, Ole; Messmer, Peter; Hutter, Juerg; VandeVondele, Joost. 
 Electronic Structure Calculations on Graphics Processing Units, John
 Wiley & Sons, Ltd, 173-190 (2016). 
 GPU-Accelerated Sparse Matrix-Matrix Multiplication for
 Linear Scaling Density Functional Theory.
 https://doi.org/10.1002/9781118670712.ch8

 Heinecke, A; Henry, G; Hutchinson, M; Pabst, H. 
 Proceedings of Intl. Supercomputing Conference, 981-991 (2016). 
 LIBXSMM: Accelerating Small Matrix Multiplications
 by Runtime Code Generation.
 https://doi.org/10.1109/SC.2016.83

 Borstnik, U; VandeVondele, J; Weber, V; Hutter, J. 
 PARALLEL COMPUTING, 40 (5-6), 47-58 (2014). 
 Sparse matrix multiplication: The distributed block-compressed sparse
 row library.
 https://doi.org/10.1016/j.parco.2014.03.012

 Hutter, J; Iannuzzi, M; Schiffmann, F; VandeVondele, J. 
 WIREs Comput Mol Sci., 4 (1), 15-25 (2014). 
 CP2K: atomistic simulations of condensed matter systems.
 https://doi.org/10.1002/wcms.1159

 VandeVondele, J; Hutter, J. 
 JOURNAL OF CHEMICAL PHYSICS, 127 (11), 114105 (2007). 
 Gaussian basis sets for accurate calculations on molecular systems in
 gas and condensed phases.
 https://doi.org/10.1063/1.2770708

 Krack, M. 
 THEORETICAL CHEMISTRY ACCOUNTS, 114 (1-3), 145-152 (2005). 
 Pseudopotentials for H to Kr optimized for gradient-corrected
 exchange-correlation functionals.
 https://doi.org/10.1007/s00214-005-0655-y

 VandeVondele, J; Krack, M; Mohamed, F; Parrinello, M; Chassaing, T;
 Hutter, J. COMPUTER PHYSICS COMMUNICATIONS, 167 (2), 103-128 (2005). 
 QUICKSTEP: Fast and accurate density functional calculations using a
 mixed Gaussian and plane waves approach.
 https://doi.org/10.1016/j.cpc.2004.12.014

 Frigo, M; Johnson, SG. 
 PROCEEDINGS OF THE IEEE, 93 (2), 216-231 (2005). 
 The design and implementation of FFTW3.
 https://doi.org/10.1109/JPROC.2004.840301

 Hartwigsen, C; Goedecker, S; Hutter, J. 
 PHYSICAL REVIEW B, 58 (7), 3641-3662 (1998). 
 Relativistic separable dual-space Gaussian pseudopotentials from H to Rn.
 https://doi.org/10.1103/PhysRevB.58.3641

 Lippert, G; Hutter, J; Parrinello, M. 
 MOLECULAR PHYSICS, 92 (3), 477-487 (1997). 
 A hybrid Gaussian and plane wave density functional scheme.
 https://doi.org/10.1080/002689797170220

 Perdew, JP; Burke, K; Ernzerhof, M. 
 PHYSICAL REVIEW LETTERS, 77 (18), 3865-3868 (1996). 
 Generalized gradient approximation made simple.
 https://doi.org/10.1103/PhysRevLett.77.3865

 Goedecker, S; Teter, M; Hutter, J. 
 PHYSICAL REVIEW B, 54 (3), 1703-1710 (1996). 
 Separable dual-space Gaussian pseudopotentials.
 https://doi.org/10.1103/PhysRevB.54.1703


 -------------------------------------------------------------------------------
 -                                                                             -
 -                                T I M I N G                                  -
 -                                                                             -
 -------------------------------------------------------------------------------
 SUBROUTINE                       CALLS  ASD         SELF TIME        TOTAL TIME
                                MAXIMUM       AVERAGE  MAXIMUM  AVERAGE  MAXIMUM
 CP2K                                 1  1.0    0.021    0.032   38.627   38.627
 qs_energies                          1  2.0    0.001    0.001   28.310   38.525
 scf_env_do_scf                       1  3.0    0.000    0.000   25.863   25.865
 scf_env_do_scf_inner_loop           12  4.0    0.001    0.002   25.863   25.864
 qs_scf_new_mos_kp                   12  5.0    0.000    0.000   23.864   23.864
 do_general_diag_kp                  12  6.0    0.005    0.006   23.863   23.864
 run_smeagol_bulktrans                1  3.0    0.023   11.516    1.676   11.891
 mp_waitall_1                     32471 11.1    1.521   11.751    1.521   11.751
 mp_sum_i                            12  6.8   10.216   11.671   10.216   11.671
 restraint_control                    1  2.0    0.000    0.000   10.215   11.671
 convert_dbcsr_to_distributed_s       4  4.0    0.000    0.067    1.433   11.642
 copy_dbcsr_to_fm                  1017  6.9    0.009    0.009   10.977   10.982
 dbcsr_desymmetrize_deep           1977  7.5    0.037    0.040   10.016   10.032
 mp_alltoall_d11v                 10567  9.4    8.980    9.000    8.980    9.000
 mp_alltoall_i11v                  6588  9.0    8.644    8.651    8.644    8.651
 dbcsr_complete_redistribute       1537  8.2    0.056    0.060    8.490    8.494
 cp_cfm_geeig                        60  7.0    0.001    0.001    5.226    5.347
 hybrid_alltoall_any               1977  8.5    0.008    0.009    5.008    5.018
 cp_cfm_heevd                        60  8.0    4.764    4.904    4.764    4.904
 kpoint_density_transform            13  6.8    0.002    0.002    3.025    3.066
 copy_fm_to_dbcsr                   520  7.8    0.001    0.001    2.832    2.836
 write_kpoints_restart               12  5.0    0.001    0.003    0.782    0.784
 -------------------------------------------------------------------------------

 The number of warnings for this run is : 2
 
 -------------------------------------------------------------------------------
  **** **** ******  **  PROGRAM ENDED AT                 2024-01-09 17:09:30.378
 ***** ** ***  *** **   PROGRAM RAN ON                               hx1-c04-1-1
 **    ****   ******    PROGRAM RAN BY                                    cahart
 ***** **    ** ** **   PROGRAM PROCESS ID                               2432115
  **** **  *******  **  PROGRAM STOPPED IN /gpfs/home/cahart/transport/melamine/
                                           au_from-h2/leads/leads-sz_kpoints-1-1
                                           -20
