SIESTA 1.3.7  -- [1.3f1 release] (04 Feb 2004)
Architecture  : mpif90
Compiler flags:  -O3 -check bounds -fp-model strict
PARALLEL version

* Running on   64 nodes in parallel
>> Start of run:  17-JAN-2024  17:28:45

                           ***********************       
                           *  WELCOME TO SIESTA  *       
                           ***********************       

reinit: Reading from standard input
************************** Dump of input data file ****************************
SystemName                   IV          # Descriptive name of the system
SystemLabel                     IV               # Short name for naming files
NumberOfAtoms    183
NumberOfSpecies                 7               # Number of species
PAO.BasisType                   split
%block ChemicalSpeciesLabel
1 79 Au_bulk
2 7 N
3 6  C
4 1  H
5 79 Au
6 79 Au_surf
7 79 Au_tip
%endblock ChemicalSpeciesLabel
%block PAO.BasisSizes
C DZP
H DZP
N DZP
Au_surf DZP
Au_tip DZP
%endblock PAO.BasisSizes
%block PAO.Basis
  Au_bulk  2
n=6  0  1
6.500
1.00
n=5  2  1
5.850
1.00
  Au  2
n=6  0  1
6.500
1.00
n=5  2  1
5.850
1.00
%endblock PAO.Basis
LatticeConstant 1.000 Ang
%block LatticeVectors
   14.582     0.000   0.000        1
  0.000    8.866     0.000   1
  0.000   0.000    33.532  1
%endblock LatticeVectors
AtomicCoordinatesFormat Ang
%block AtomicCoordinatesAndAtomicSpecies
0.0 0.0 0.0 1 Au_bulk
0.0 2.955 0.0 1 Au_bulk
0.0 5.911 0.0 1 Au_bulk
2.956 0.0 0.0 1 Au_bulk
2.956 2.955 0.0 1 Au_bulk
2.956 5.911 0.0 1 Au_bulk
5.912 0.0 0.0 1 Au_bulk
5.912 2.955 0.0 1 Au_bulk
5.912 5.911 0.0 1 Au_bulk
8.67 0.0 0.0 1 Au_bulk
8.67 2.955 0.0 1 Au_bulk
8.67 5.911 0.0 1 Au_bulk
11.626 0.0 0.0 1 Au_bulk
11.626 2.955 0.0 1 Au_bulk
11.626 5.911 0.0 1 Au_bulk
1.478 1.478 2.09 1 Au_bulk
1.478 4.433 2.09 1 Au_bulk
1.478 7.389 2.09 1 Au_bulk
4.434 1.478 2.09 1 Au_bulk
4.434 4.433 2.09 1 Au_bulk
4.434 7.389 2.09 1 Au_bulk
7.192 1.478 2.09 1 Au_bulk
7.192 4.433 2.09 1 Au_bulk
7.192 7.389 2.09 1 Au_bulk
10.148 1.478 2.09 1 Au_bulk
10.148 4.433 2.09 1 Au_bulk
10.148 7.389 2.09 1 Au_bulk
13.104 1.478 2.09 1 Au_bulk
13.104 4.433 2.09 1 Au_bulk
13.104 7.389 2.09 1 Au_bulk
0.0 0.0 4.18 1 Au_bulk
0.0 2.955 4.18 1 Au_bulk
0.0 5.911 4.18 1 Au_bulk
2.956 0.0 4.18 1 Au_bulk
2.956 2.955 4.18 1 Au_bulk
2.956 5.911 4.18 1 Au_bulk
5.912 0.0 4.18 1 Au_bulk
5.912 2.955 4.18 1 Au_bulk
5.912 5.911 4.18 1 Au_bulk
8.67 0.0 4.18 1 Au_bulk
8.67 2.955 4.18 1 Au_bulk
8.67 5.911 4.18 1 Au_bulk
11.626 0.0 4.18 1 Au_bulk
11.626 2.955 4.18 1 Au_bulk
11.626 5.911 4.18 1 Au_bulk
1.478 1.478 6.27 1 Au_bulk
1.478 4.433 6.27 1 Au_bulk
1.478 7.389 6.27 1 Au_bulk
4.434 1.478 6.27 1 Au_bulk
4.434 4.433 6.27 1 Au_bulk
4.434 7.389 6.27 1 Au_bulk
7.192 1.478 6.27 1 Au_bulk
7.192 4.433 6.27 1 Au_bulk
7.192 7.389 6.27 1 Au_bulk
10.148 1.478 6.27 1 Au_bulk
10.148 4.433 6.27 1 Au_bulk
10.148 7.389 6.27 1 Au_bulk
13.104 1.478 6.27 1 Au_bulk
13.104 4.433 6.27 1 Au_bulk
13.104 7.389 6.27 1 Au_bulk
0.0 0.0 8.36 5 Au
0.0 2.955 8.36 5 Au
0.0 5.911 8.36 5 Au
2.956 0.0 8.36 5 Au
2.956 2.955 8.36 5 Au
2.956 5.911 8.36 5 Au
5.912 0.0 8.36 5 Au
5.912 2.955 8.36 5 Au
5.912 5.911 8.36 5 Au
8.67 0.0 8.36 5 Au
8.67 2.955 8.36 5 Au
8.67 5.911 8.36 5 Au
11.626 0.0 8.36 5 Au
11.626 2.955 8.36 5 Au
11.626 5.911 8.36 5 Au
1.478 1.478 10.45 6 Au_surf
1.478 4.433 10.45 6 Au_surf
1.478 7.389 10.45 6 Au_surf
4.434 1.478 10.45 6 Au_surf
4.434 4.433 10.45 6 Au_surf
4.434 7.389 10.45 6 Au_surf
7.192 1.478 10.45 6 Au_surf
7.192 4.433 10.45 6 Au_surf
7.192 7.389 10.45 6 Au_surf
10.148 1.478 10.45 6 Au_surf
10.148 4.433 10.45 6 Au_surf
10.148 7.389 10.45 6 Au_surf
13.104 1.478 10.45 6 Au_surf
13.104 4.433 10.45 6 Au_surf
13.104 7.389 10.45 6 Au_surf
4.8554 5.9119 12.0318 2 N
9.528 5.9137 12.034 2 N
7.192 5.934 12.04 2 N
4.075 5.9049 12.6968 4 H
10.294 5.9062 12.7165 4 H
8.375 5.913 12.7607 3 C
6.01 5.9121 12.7658 3 C
8.4047 5.8894 14.0941 2 N
5.9789 5.8883 14.0942 2 N
7.1943 5.8799 14.7011 3 C
7.1912 5.8521 16.0506 2 N
6.3086 5.8616 16.5484 4 H
8.0709 5.8621 16.5536 4 H
7.312 5.934 19.043 7 Au_tip
5.813 4.433 20.992 7 Au_tip
5.813 7.434 20.992 7 Au_tip
8.813 4.434 20.992 7 Au_tip
8.813 7.434 20.992 7 Au_tip
1.478 1.478 23.082 5 Au
1.478 4.433 23.082 5 Au
1.478 7.389 23.082 5 Au
4.434 1.478 23.082 5 Au
4.434 4.433 23.082 5 Au
4.434 7.389 23.082 5 Au
7.192 1.478 23.082 5 Au
7.192 4.433 23.082 5 Au
7.192 7.389 23.082 5 Au
10.148 1.478 23.082 5 Au
10.148 4.433 23.082 5 Au
10.148 7.389 23.082 5 Au
13.104 1.478 23.082 5 Au
13.104 4.433 23.082 5 Au
13.104 7.389 23.082 5 Au
0.0 0.0 25.172 1 Au_bulk
0.0 2.955 25.172 1 Au_bulk
0.0 5.911 25.172 1 Au_bulk
2.956 0.0 25.172 1 Au_bulk
2.956 2.955 25.172 1 Au_bulk
2.956 5.911 25.172 1 Au_bulk
5.912 0.0 25.172 1 Au_bulk
5.912 2.955 25.172 1 Au_bulk
5.912 5.911 25.172 1 Au_bulk
8.67 0.0 25.172 1 Au_bulk
8.67 2.955 25.172 1 Au_bulk
8.67 5.911 25.172 1 Au_bulk
11.626 0.0 25.172 1 Au_bulk
11.626 2.955 25.172 1 Au_bulk
11.626 5.911 25.172 1 Au_bulk
1.478 1.478 27.262 1 Au_bulk
1.478 4.433 27.262 1 Au_bulk
1.478 7.389 27.262 1 Au_bulk
4.434 1.478 27.262 1 Au_bulk
4.434 4.433 27.262 1 Au_bulk
4.434 7.389 27.262 1 Au_bulk
7.192 1.478 27.262 1 Au_bulk
7.192 4.433 27.262 1 Au_bulk
7.192 7.389 27.262 1 Au_bulk
10.148 1.478 27.262 1 Au_bulk
10.148 4.433 27.262 1 Au_bulk
10.148 7.389 27.262 1 Au_bulk
13.104 1.478 27.262 1 Au_bulk
13.104 4.433 27.262 1 Au_bulk
13.104 7.389 27.262 1 Au_bulk
0.0 0.0 29.352 1 Au_bulk
0.0 2.955 29.352 1 Au_bulk
0.0 5.911 29.352 1 Au_bulk
2.956 0.0 29.352 1 Au_bulk
2.956 2.955 29.352 1 Au_bulk
2.956 5.911 29.352 1 Au_bulk
5.912 0.0 29.352 1 Au_bulk
5.912 2.955 29.352 1 Au_bulk
5.912 5.911 29.352 1 Au_bulk
8.67 0.0 29.352 1 Au_bulk
8.67 2.955 29.352 1 Au_bulk
8.67 5.911 29.352 1 Au_bulk
11.626 0.0 29.352 1 Au_bulk
11.626 2.955 29.352 1 Au_bulk
11.626 5.911 29.352 1 Au_bulk
1.478 1.478 31.442 1 Au_bulk
1.478 4.433 31.442 1 Au_bulk
1.478 7.389 31.442 1 Au_bulk
4.434 1.478 31.442 1 Au_bulk
4.434 4.433 31.442 1 Au_bulk
4.434 7.389 31.442 1 Au_bulk
7.192 1.478 31.442 1 Au_bulk
7.192 4.433 31.442 1 Au_bulk
7.192 7.389 31.442 1 Au_bulk
10.148 1.478 31.442 1 Au_bulk
10.148 4.433 31.442 1 Au_bulk
10.148 7.389 31.442 1 Au_bulk
13.104 1.478 31.442 1 Au_bulk
13.104 4.433 31.442 1 Au_bulk
13.104 7.389 31.442 1 Au_bulk
%endblock AtomicCoordinatesAndAtomicSpecies 	
%block kgrid_Monkhorst_Pack
  2   0   0     0.0
  0   4   0     0.0
  0   0   1     0.0
%endblock kgrid_Monkhorst_Pack
xc.functional		LDA		# 'LDA', 'GGA'
xc.authors 	 		CA		# 'CA'='PZ', 'PW92', 'PBE'
SpinPolarized			F		# 'T', 'F'		
#FixSpin           F
#TotalSpin        0.0
NonCollinearSpin		F		# 'T', 'F'
MeshCutoff 	 		    200 Ry		# Equivalent plane wave cutoff for the grid
MaxSCFIterations		500
DM.MixingWeight			0.1
DM.NumberPulay			4	# Pulay convergency accelerator
DM.MixSCF1			    T
MixHamiltonian      T
DM.PulayOnFile			F		# Store in memory ('F') or in files ('T')
#DM.NumberKick         30
#DM.KickMixingWeight   0.1
DM.Tolerance 		1.0E-4
NeglNonOverlapInt		F		# 'F'=do not neglect
SolutionMethod			diagon
ElectronicTemperature		300 K		# Default value
DM.UseSaveDM 			T
#MD.UseSaveXV			T
#MD.UseSaveCG			T
WriteForces      T
WriteCoorXmol			T		# Write Atoms coordinates
SaveElectrostaticPotential      T
#SaveHS				T		# Save the Hamiltonian and Overlap matrices
SaveRho				T		# Save the valence pseudocharge density
#SaveDeltaRho			T
#WriteDenchar			T		# Write Denchar output
WriteMullikenPop		0 #write mulliken population of aromic and orbital charges
#-----
#smeagol
#-----
# Perform a transport calculation
EMTransport              T
# Set number of energy points for integrals
NEnergReal               64
# Set bias range
VInitial             -1 eV
VFinal                1 eV
NIVPoints                4
# General variables
Delta                    1e-4
EnergLowestBound    -100.0 eV
# Print transmission coefficient
TrCoefficients           F
InitTransmRange      -10.0 eV
FinalTransmRange      10.0 eV
NTransmPoints            800
TRC.EMDOS                T
TRC.LeadsDOS             T
# Matching of Hartree potential with the leads
HartreeLeadsBottom  -15.36721897 eV
%block SaveBiasSteps
 0 1 2 3
%endblock SaveBiasSteps
************************** End of input data file *****************************

reinit: -----------------------------------------------------------------------
reinit: System Name: IV                                                         
reinit: -----------------------------------------------------------------------
reinit: System Label: IV                  
reinit: -----------------------------------------------------------------------

initatom: Reading input for the pseudopotentials and atomic orbitals ----------
 Species number:            1  Label: Au_bulk Atomic number:          79
 Species number:            2  Label: N Atomic number:           7
 Species number:            3  Label: C Atomic number:           6
 Species number:            4  Label: H Atomic number:           1
 Species number:            5  Label: Au Atomic number:          79
 Species number:            6  Label: Au_surf Atomic number:          79
 Species number:            7  Label: Au_tip Atomic number:          79
Ground state valence configuration:   6s01  5d10
Reading pseudopotential information in formatted form from Au_bulk.psf
Ground state valence configuration:   2s02  2p03
Reading pseudopotential information in formatted form from N.psf
Ground state valence configuration:   2s02  2p02
Reading pseudopotential information in formatted form from C.psf
Ground state valence configuration:   1s01
Reading pseudopotential information in formatted form from H.psf
Ground state valence configuration:   6s01  5d10
Reading pseudopotential information in formatted form from Au.psf
Ground state valence configuration:   6s01  5d10
Reading pseudopotential information in formatted form from Au_surf.psf
Ground state valence configuration:   6s01  5d10
Reading pseudopotential information in formatted form from Au_tip.psf
resizes: Read basis size for species C = dzp                 
resizes: Read basis size for species H = dzp                 
resizes: Read basis size for species N = dzp                 
resizes: Read basis size for species Au_surf = dzp                 
resizes: Read basis size for species Au_tip = dzp                 
For Au_bulk, standard SIESTA heuristics set lmxkb to 3
 (one more than the basis l, including polarization orbitals).
Use PS.lmax or PS.KBprojectors blocks to override.
 Warning: Empty PAO shell. l =           1
 Will have a KB projector anyway...
For N, standard SIESTA heuristics set lmxkb to 3
 (one more than the basis l, including polarization orbitals).
Use PS.lmax or PS.KBprojectors blocks to override.
For C, standard SIESTA heuristics set lmxkb to 3
 (one more than the basis l, including polarization orbitals).
Use PS.lmax or PS.KBprojectors blocks to override.
For H, standard SIESTA heuristics set lmxkb to 2
 (one more than the basis l, including polarization orbitals).
Use PS.lmax or PS.KBprojectors blocks to override.
For Au, standard SIESTA heuristics set lmxkb to 3
 (one more than the basis l, including polarization orbitals).
Use PS.lmax or PS.KBprojectors blocks to override.
 Warning: Empty PAO shell. l =           1
 Will have a KB projector anyway...
For Au_surf, standard SIESTA heuristics set lmxkb to 3
 (one more than the basis l, including polarization orbitals).
Use PS.lmax or PS.KBprojectors blocks to override.
For Au_tip, standard SIESTA heuristics set lmxkb to 3
 (one more than the basis l, including polarization orbitals).
Use PS.lmax or PS.KBprojectors blocks to override.

<basis_specs>
===============================================================================
Au_bulk              Z=  79    Mass=  196.97        Charge=  0.0000    
Lmxo=2 Lmxkb=3     BasisType=split      Semic=F
L=0  Nsemic=0  Cnfigmx=6
          n=1  nzeta=1  polorb=0
               vcte:    0.0000    
               rinn:    0.0000    
                rcs:    6.5000    
            lambdas:    1.0000    
L=1  Nsemic=0  Cnfigmx=6
L=2  Nsemic=0  Cnfigmx=5
          n=1  nzeta=1  polorb=0
               vcte:    0.0000    
               rinn:    0.0000    
                rcs:    5.8500    
            lambdas:    1.0000    
-------------------------------------------------------------------------------
L=0  Nkbl=1  erefs: 0.17977+309
L=1  Nkbl=1  erefs: 0.17977+309
L=2  Nkbl=1  erefs: 0.17977+309
L=3  Nkbl=1  erefs: 0.17977+309
===============================================================================
</basis_specs>

atom: Called for Au  (Z =  79)

read_vps: Pseudopotential generation method:
read_vps: ATM3      Troullier-Martins                       

read_vps: Pseudopotential generated from a relativistic atomic calculation
read_vps: There are spin-orbit pseudopotentials available

read_vps: Valence configuration (pseudopotential and basis set generation):
6s( 1.00) rc: 2.18
6p( 0.00) rc: 2.47
5d(10.00) rc: 1.79
5f( 0.00) rc: 2.00
Total valence charge:   11.00000

read_vps: Pseudopotential includes a core correction:
read_vps: Pseudo-core for xc-correction
comcore: Pseudo-core radius Rcore=  4.027091

xc_check: Exchange-correlation functional:
xc_check: Ceperley-Alder
V l=0 = -2*Zval/r beyond r=  2.9833
V l=1 = -2*Zval/r beyond r=  2.9833
V l=2 = -2*Zval/r beyond r=  2.9833
V l=3 = -2*Zval/r beyond r=  2.9833
All V_l potentials equal beyond r=  2.4425
This should be close to max(r_c) in ps generation
All pots = -2*Zval/r beyond r=  2.9833

VLOCAL1: 99.0% of the norm of Vloc inside      7.276 Ry
VLOCAL1: 99.9% of the norm of Vloc inside     16.582 Ry
atom: Maximum radius for 4*pi*r*r*local-pseudopot. charge    2.94627
atom: Maximum radius for r*vlocal+2*Zval:    2.60007
GHOST: No ghost state for L =  0
GHOST: No ghost state for L =  1
GHOST: No ghost state for L =  2
GHOST: No ghost state for L =  3

KBgen: Kleinman-Bylander projectors: 
   l= 0   rc=  3.175745   el= -0.445638   Ekb=  5.072790   kbcos=  0.276607
   l= 1   rc=  3.256140   el= -0.066324   Ekb=  2.703235   kbcos=  0.227171
   l= 2   rc=  3.020861   el= -0.526103   Ekb= -4.704026   kbcos= -0.643795
   l= 3   rc=  3.466145   el=  0.003438   Ekb= -2.516122   kbcos= -0.010529

KBgen: Total number of  Kleinman-Bylander projectors:   16
atom: -------------------------------------------------------------------------

atom: SANKEY-TYPE ORBITALS:

SPLIT: Orbitals with angular momentum L= 0

SPLIT: Basis orbitals for state 6s

   izeta = 1
                 lambda =    1.000000
                     rc =    6.557093
                 energy =   -0.435455
                kinetic =    0.389259
    potential(screened) =   -0.824714
       potential(ionic) =   -8.467175

SPLIT: Orbitals with angular momentum L= 2

SPLIT: Basis orbitals for state 5d

   izeta = 1
                 lambda =    1.000000
                     rc =    5.933100
                 energy =   -0.524775
                kinetic =    4.913203
    potential(screened) =   -5.437978
       potential(ionic) =  -15.883506
atom: Total number of Sankey-type orbitals:  6

atm_pop: Valence configuration(local Pseudopot. screening):
 6s( 1.00)                                                            
 6p( 0.00)                                                            
 5d(10.00)                                                            
Vna: chval, zval:   11.00000  11.00000

Vna:  Cut-off radius for the neutral-atom potential:   6.557093

atom: _________________________________________________________________________

<basis_specs>
===============================================================================
N                    Z=   7    Mass=  14.010        Charge=  0.0000    
Lmxo=1 Lmxkb=3     BasisType=split      Semic=F
L=0  Nsemic=0  Cnfigmx=2
          n=1  nzeta=2  polorb=0
               vcte:    0.0000    
               rinn:    0.0000    
                rcs:    0.0000      0.0000    
            lambdas:    1.0000      1.0000    
L=1  Nsemic=0  Cnfigmx=2
          n=1  nzeta=2  polorb=1
               vcte:    0.0000    
               rinn:    0.0000    
                rcs:    0.0000      0.0000    
            lambdas:    1.0000      1.0000    
-------------------------------------------------------------------------------
L=0  Nkbl=1  erefs: 0.17977+309
L=1  Nkbl=1  erefs: 0.17977+309
L=2  Nkbl=1  erefs: 0.17977+309
L=3  Nkbl=1  erefs: 0.17977+309
===============================================================================
</basis_specs>

atom: Called for N   (Z =   7)

read_vps: Pseudopotential generation method:
read_vps: ATM 3.2.2 Troullier-Martins                       

read_vps: Pseudopotential generated from a relativistic atomic calculation
read_vps: There are spin-orbit pseudopotentials available

read_vps: Valence configuration (pseudopotential and basis set generation):
2s( 2.00) rc: 1.14
2p( 3.00) rc: 1.14
3d( 0.00) rc: 1.14
4f( 0.00) rc: 1.14
Total valence charge:    5.00000

xc_check: Exchange-correlation functional:
xc_check: Ceperley-Alder
xc_check: WARNING: Pseudopotential generated with
xc_check: WARNING: GGA Perdew, Burke & Ernzerhof 1996 functional
V l=0 = -2*Zval/r beyond r=  1.2729
V l=1 = -2*Zval/r beyond r=  1.2889
V l=2 = -2*Zval/r beyond r=  1.2889
V l=3 = -2*Zval/r beyond r=  1.2889
All V_l potentials equal beyond r=  1.1233
This should be close to max(r_c) in ps generation
All pots = -2*Zval/r beyond r=  1.2889

VLOCAL1: 99.0% of the norm of Vloc inside     34.401 Ry
VLOCAL1: 99.9% of the norm of Vloc inside     78.401 Ry
atom: Maximum radius for 4*pi*r*r*local-pseudopot. charge    1.35504
atom: Maximum radius for r*vlocal+2*Zval:    1.18092
GHOST: No ghost state for L =  0
GHOST: No ghost state for L =  1
GHOST: No ghost state for L =  2
GHOST: No ghost state for L =  3

KBgen: Kleinman-Bylander projectors: 
   l= 0   rc=  1.460600   el= -1.344997   Ekb=  9.638631   kbcos=  0.297171
   l= 1   rc=  1.478977   el= -0.504850   Ekb= -6.415575   kbcos= -0.317314
   l= 2   rc=  1.634559   el=  0.002346   Ekb= -1.678090   kbcos= -0.003674
   l= 3   rc=  2.072839   el=  0.003449   Ekb= -0.793018   kbcos= -0.000316

KBgen: Total number of  Kleinman-Bylander projectors:   16
atom: -------------------------------------------------------------------------

atom: SANKEY-TYPE ORBITALS:
atom: Selected multiple-zeta basis: split     

SPLIT: Orbitals with angular momentum L= 0

SPLIT: Basis orbitals for state 2s

SPLIT: PAO cut-off radius determinated from an
SPLIT: energy shift=  0.020000 Ry

   izeta = 1
                 lambda =    1.000000
                     rc =    3.683980
                 energy =   -1.326370
                kinetic =    1.254647
    potential(screened) =   -2.581017
       potential(ionic) =   -8.161681

   izeta = 2
                 rmatch =    2.905100
              splitnorm =    0.150000
                 energy =   -1.124590
                kinetic =    1.923672
    potential(screened) =   -3.048262
       potential(ionic) =   -9.027318

SPLIT: Orbitals with angular momentum L= 1

SPLIT: Basis orbitals for state 2p

SPLIT: PAO cut-off radius determinated from an
SPLIT: energy shift=  0.020000 Ry

   izeta = 1
                 lambda =    1.000000
                     rc =    4.388595
                 energy =   -0.485851
                kinetic =    3.640453
    potential(screened) =   -4.126303
       potential(ionic) =   -9.541041

   izeta = 2
                 rmatch =    2.978652
              splitnorm =    0.150000
                 energy =   -0.267686
                kinetic =    5.503850
    potential(screened) =   -5.771536
       potential(ionic) =  -11.823923

POLgen: Perturbative polarization orbital with L=  2

POLgen: Polarization orbital for state 2p

   izeta = 1
                     rc =    4.388595
                 energy =    1.749403
                kinetic =    3.466240
    potential(screened) =   -1.716837
       potential(ionic) =   -6.139475
atom: Total number of Sankey-type orbitals: 13

atm_pop: Valence configuration(local Pseudopot. screening):
 2s( 2.00)                                                            
 2p( 3.00)                                                            
Vna: chval, zval:    5.00000   5.00000

Vna:  Cut-off radius for the neutral-atom potential:   4.388595

atom: _________________________________________________________________________

<basis_specs>
===============================================================================
C                    Z=   6    Mass=  12.010        Charge=  0.0000    
Lmxo=1 Lmxkb=3     BasisType=split      Semic=F
L=0  Nsemic=0  Cnfigmx=2
          n=1  nzeta=2  polorb=0
               vcte:    0.0000    
               rinn:    0.0000    
                rcs:    0.0000      0.0000    
            lambdas:    1.0000      1.0000    
L=1  Nsemic=0  Cnfigmx=2
          n=1  nzeta=2  polorb=1
               vcte:    0.0000    
               rinn:    0.0000    
                rcs:    0.0000      0.0000    
            lambdas:    1.0000      1.0000    
-------------------------------------------------------------------------------
L=0  Nkbl=1  erefs: 0.17977+309
L=1  Nkbl=1  erefs: 0.17977+309
L=2  Nkbl=1  erefs: 0.17977+309
L=3  Nkbl=1  erefs: 0.17977+309
===============================================================================
</basis_specs>

atom: Called for C   (Z =   6)

read_vps: Pseudopotential generation method:
read_vps: ATM3      Troullier-Martins                       

read_vps: Valence configuration (pseudopotential and basis set generation):
2s( 2.00) rc: 1.25
2p( 2.00) rc: 1.25
3d( 0.00) rc: 1.25
4f( 0.00) rc: 1.25
read_vps: Spin-orbit interaction is not included in this calculation
Total valence charge:    4.00000

xc_check: Exchange-correlation functional:
xc_check: Ceperley-Alder
V l=0 = -2*Zval/r beyond r=  1.3951
V l=1 = -2*Zval/r beyond r=  1.3777
V l=2 = -2*Zval/r beyond r=  1.3777
V l=3 = -2*Zval/r beyond r=  1.3777
All V_l potentials equal beyond r=  1.2311
This should be close to max(r_c) in ps generation
All pots = -2*Zval/r beyond r=  1.3951

VLOCAL1: 99.0% of the norm of Vloc inside     28.641 Ry
VLOCAL1: 99.9% of the norm of Vloc inside     65.273 Ry
atom: Maximum radius for 4*pi*r*r*local-pseudopot. charge    1.48507
atom: Maximum radius for r*vlocal+2*Zval:    1.27815
GHOST: No ghost state for L =  0
GHOST: No ghost state for L =  1
GHOST: No ghost state for L =  2
GHOST: No ghost state for L =  3

KBgen: Kleinman-Bylander projectors: 
   l= 0   rc=  1.600766   el= -1.001946   Ekb=  7.816946   kbcos=  0.279978
   l= 1   rc=  1.620907   el= -0.398597   Ekb= -4.829535   kbcos= -0.287433
   l= 2   rc=  1.836783   el=  0.002326   Ekb= -1.327964   kbcos= -0.005365
   l= 3   rc=  1.979871   el=  0.003420   Ekb= -0.522285   kbcos= -0.000569

KBgen: Total number of  Kleinman-Bylander projectors:   16
atom: -------------------------------------------------------------------------

atom: SANKEY-TYPE ORBITALS:
atom: Selected multiple-zeta basis: split     

SPLIT: Orbitals with angular momentum L= 0

SPLIT: Basis orbitals for state 2s

SPLIT: PAO cut-off radius determinated from an
SPLIT: energy shift=  0.020000 Ry

   izeta = 1
                 lambda =    1.000000
                     rc =    4.191849
                 energy =   -0.983900
                kinetic =    0.918801
    potential(screened) =   -1.902702
       potential(ionic) =   -5.506899

   izeta = 2
                 rmatch =    3.431921
              splitnorm =    0.150000
                 energy =   -0.849361
                kinetic =    1.377262
    potential(screened) =   -2.226623
       potential(ionic) =   -6.060758

SPLIT: Orbitals with angular momentum L= 1

SPLIT: Basis orbitals for state 2p

SPLIT: PAO cut-off radius determinated from an
SPLIT: energy shift=  0.020000 Ry

   izeta = 1
                 lambda =    1.000000
                     rc =    4.870301
                 energy =   -0.379088
                kinetic =    2.614064
    potential(screened) =   -2.993152
       potential(ionic) =   -6.506293

   izeta = 2
                 rmatch =    3.475094
              splitnorm =    0.150000
                 energy =   -0.215528
                kinetic =    3.940460
    potential(screened) =   -4.155988
       potential(ionic) =   -8.054000

POLgen: Perturbative polarization orbital with L=  2

POLgen: Polarization orbital for state 2p

   izeta = 1
                     rc =    4.870301
                 energy =    1.279486
                kinetic =    2.608016
    potential(screened) =   -1.328529
       potential(ionic) =   -4.267494
atom: Total number of Sankey-type orbitals: 13

atm_pop: Valence configuration(local Pseudopot. screening):
 2s( 2.00)                                                            
 2p( 2.00)                                                            
Vna: chval, zval:    4.00000   4.00000

Vna:  Cut-off radius for the neutral-atom potential:   4.870301

atom: _________________________________________________________________________

<basis_specs>
===============================================================================
H                    Z=   1    Mass=  1.0100        Charge=  0.0000    
Lmxo=0 Lmxkb=2     BasisType=split      Semic=F
L=0  Nsemic=0  Cnfigmx=1
          n=1  nzeta=2  polorb=1
               vcte:    0.0000    
               rinn:    0.0000    
                rcs:    0.0000      0.0000    
            lambdas:    1.0000      1.0000    
-------------------------------------------------------------------------------
L=0  Nkbl=1  erefs: 0.17977+309
L=1  Nkbl=1  erefs: 0.17977+309
L=2  Nkbl=1  erefs: 0.17977+309
===============================================================================
</basis_specs>

atom: Called for H   (Z =   1)

read_vps: Pseudopotential generation method:
read_vps: ATM3      Troullier-Martins                       

read_vps: Valence configuration (pseudopotential and basis set generation):
1s( 1.00) rc: 1.25
2p( 0.00) rc: 1.25
3d( 0.00) rc: 1.25
read_vps: Spin-orbit interaction is not included in this calculation
Total valence charge:    1.00000

xc_check: Exchange-correlation functional:
xc_check: Ceperley-Alder
V l=0 = -2*Zval/r beyond r=  1.2343
V l=1 = -2*Zval/r beyond r=  1.2189
V l=2 = -2*Zval/r beyond r=  1.2189
All V_l potentials equal beyond r=  1.2343
This should be close to max(r_c) in ps generation
All pots = -2*Zval/r beyond r=  1.2343

VLOCAL1: 99.0% of the norm of Vloc inside     28.493 Ry
VLOCAL1: 99.9% of the norm of Vloc inside     64.935 Ry
atom: Maximum radius for 4*pi*r*r*local-pseudopot. charge    1.45251
atom: Maximum radius for r*vlocal+2*Zval:    1.21892
GHOST: No ghost state for L =  0
GHOST: No ghost state for L =  1
GHOST: No ghost state for L =  2

KBgen: Kleinman-Bylander projectors: 
   l= 0   rc=  1.364359   el= -0.467325   Ekb= -2.005361   kbcos= -0.336422
   l= 1   rc=  1.434438   el=  0.001430   Ekb= -0.501708   kbcos= -0.021697
   l= 2   rc=  1.470814   el=  0.002365   Ekb= -0.190555   kbcos= -0.002281

KBgen: Total number of  Kleinman-Bylander projectors:    9
atom: -------------------------------------------------------------------------

atom: SANKEY-TYPE ORBITALS:
atom: Selected multiple-zeta basis: split     

SPLIT: Orbitals with angular momentum L= 0

SPLIT: Basis orbitals for state 1s

SPLIT: PAO cut-off radius determinated from an
SPLIT: energy shift=  0.020000 Ry

   izeta = 1
                 lambda =    1.000000
                     rc =    4.828263
                 energy =   -0.449375
                kinetic =    0.929372
    potential(screened) =   -1.378747
       potential(ionic) =   -1.915047

   izeta = 2
                 rmatch =    3.854947
              splitnorm =    0.150000
                 energy =   -0.335649
                kinetic =    1.505971
    potential(screened) =   -1.841620
       potential(ionic) =   -2.413776

POLgen: Perturbative polarization orbital with L=  1

POLgen: Polarization orbital for state 1s

   izeta = 1
                     rc =    4.828263
                 energy =    0.706972
                kinetic =    1.396397
    potential(screened) =   -0.689424
       potential(ionic) =   -1.169792
atom: Total number of Sankey-type orbitals:  5

atm_pop: Valence configuration(local Pseudopot. screening):
 1s( 1.00)                                                            
Vna: chval, zval:    1.00000   1.00000

Vna:  Cut-off radius for the neutral-atom potential:   4.828263

atom: _________________________________________________________________________

<basis_specs>
===============================================================================
Au                   Z=  79    Mass=  196.97        Charge=  0.0000    
Lmxo=2 Lmxkb=3     BasisType=split      Semic=F
L=0  Nsemic=0  Cnfigmx=6
          n=1  nzeta=1  polorb=0
               vcte:    0.0000    
               rinn:    0.0000    
                rcs:    6.5000    
            lambdas:    1.0000    
L=1  Nsemic=0  Cnfigmx=6
L=2  Nsemic=0  Cnfigmx=5
          n=1  nzeta=1  polorb=0
               vcte:    0.0000    
               rinn:    0.0000    
                rcs:    5.8500    
            lambdas:    1.0000    
-------------------------------------------------------------------------------
L=0  Nkbl=1  erefs: 0.17977+309
L=1  Nkbl=1  erefs: 0.17977+309
L=2  Nkbl=1  erefs: 0.17977+309
L=3  Nkbl=1  erefs: 0.17977+309
===============================================================================
</basis_specs>

atom: Called for Au  (Z =  79)

read_vps: Pseudopotential generation method:
read_vps: ATM3      Troullier-Martins                       

read_vps: Pseudopotential generated from a relativistic atomic calculation
read_vps: There are spin-orbit pseudopotentials available

read_vps: Valence configuration (pseudopotential and basis set generation):
6s( 1.00) rc: 2.18
6p( 0.00) rc: 2.47
5d(10.00) rc: 1.79
5f( 0.00) rc: 2.00
Total valence charge:   11.00000

read_vps: Pseudopotential includes a core correction:
read_vps: Pseudo-core for xc-correction
comcore: Pseudo-core radius Rcore=  4.027091

xc_check: Exchange-correlation functional:
xc_check: Ceperley-Alder
V l=0 = -2*Zval/r beyond r=  2.9833
V l=1 = -2*Zval/r beyond r=  2.9833
V l=2 = -2*Zval/r beyond r=  2.9833
V l=3 = -2*Zval/r beyond r=  2.9833
All V_l potentials equal beyond r=  2.4425
This should be close to max(r_c) in ps generation
All pots = -2*Zval/r beyond r=  2.9833

VLOCAL1: 99.0% of the norm of Vloc inside      7.276 Ry
VLOCAL1: 99.9% of the norm of Vloc inside     16.582 Ry
atom: Maximum radius for 4*pi*r*r*local-pseudopot. charge    2.94627
atom: Maximum radius for r*vlocal+2*Zval:    2.60007
GHOST: No ghost state for L =  0
GHOST: No ghost state for L =  1
GHOST: No ghost state for L =  2
GHOST: No ghost state for L =  3

KBgen: Kleinman-Bylander projectors: 
   l= 0   rc=  3.175745   el= -0.445638   Ekb=  5.072790   kbcos=  0.276607
   l= 1   rc=  3.256140   el= -0.066324   Ekb=  2.703235   kbcos=  0.227171
   l= 2   rc=  3.020861   el= -0.526103   Ekb= -4.704026   kbcos= -0.643795
   l= 3   rc=  3.466145   el=  0.003438   Ekb= -2.516122   kbcos= -0.010529

KBgen: Total number of  Kleinman-Bylander projectors:   16
atom: -------------------------------------------------------------------------

atom: SANKEY-TYPE ORBITALS:

SPLIT: Orbitals with angular momentum L= 0

SPLIT: Basis orbitals for state 6s

   izeta = 1
                 lambda =    1.000000
                     rc =    6.557093
                 energy =   -0.435455
                kinetic =    0.389259
    potential(screened) =   -0.824714
       potential(ionic) =   -8.467175

SPLIT: Orbitals with angular momentum L= 2

SPLIT: Basis orbitals for state 5d

   izeta = 1
                 lambda =    1.000000
                     rc =    5.933100
                 energy =   -0.524775
                kinetic =    4.913203
    potential(screened) =   -5.437978
       potential(ionic) =  -15.883506
atom: Total number of Sankey-type orbitals:  6

atm_pop: Valence configuration(local Pseudopot. screening):
 6s( 1.00)                                                            
 6p( 0.00)                                                            
 5d(10.00)                                                            
Vna: chval, zval:   11.00000  11.00000

Vna:  Cut-off radius for the neutral-atom potential:   6.557093

atom: _________________________________________________________________________

<basis_specs>
===============================================================================
Au_surf              Z=  79    Mass=  196.97        Charge=  0.0000    
Lmxo=2 Lmxkb=3     BasisType=split      Semic=F
L=0  Nsemic=0  Cnfigmx=6
          n=1  nzeta=2  polorb=1
               vcte:    0.0000    
               rinn:    0.0000    
                rcs:    0.0000      0.0000    
            lambdas:    1.0000      1.0000    
L=1  Nsemic=0  Cnfigmx=6
L=2  Nsemic=0  Cnfigmx=5
          n=1  nzeta=2  polorb=0
               vcte:    0.0000    
               rinn:    0.0000    
                rcs:    0.0000      0.0000    
            lambdas:    1.0000      1.0000    
-------------------------------------------------------------------------------
L=0  Nkbl=1  erefs: 0.17977+309
L=1  Nkbl=1  erefs: 0.17977+309
L=2  Nkbl=1  erefs: 0.17977+309
L=3  Nkbl=1  erefs: 0.17977+309
===============================================================================
</basis_specs>

atom: Called for Au  (Z =  79)

read_vps: Pseudopotential generation method:
read_vps: ATM3      Troullier-Martins                       

read_vps: Pseudopotential generated from a relativistic atomic calculation
read_vps: There are spin-orbit pseudopotentials available

read_vps: Valence configuration (pseudopotential and basis set generation):
6s( 1.00) rc: 2.18
6p( 0.00) rc: 2.47
5d(10.00) rc: 1.79
5f( 0.00) rc: 2.00
Total valence charge:   11.00000

read_vps: Pseudopotential includes a core correction:
read_vps: Pseudo-core for xc-correction
comcore: Pseudo-core radius Rcore=  4.027091

xc_check: Exchange-correlation functional:
xc_check: Ceperley-Alder
V l=0 = -2*Zval/r beyond r=  2.9833
V l=1 = -2*Zval/r beyond r=  2.9833
V l=2 = -2*Zval/r beyond r=  2.9833
V l=3 = -2*Zval/r beyond r=  2.9833
All V_l potentials equal beyond r=  2.4425
This should be close to max(r_c) in ps generation
All pots = -2*Zval/r beyond r=  2.9833

VLOCAL1: 99.0% of the norm of Vloc inside      7.276 Ry
VLOCAL1: 99.9% of the norm of Vloc inside     16.582 Ry
atom: Maximum radius for 4*pi*r*r*local-pseudopot. charge    2.94627
atom: Maximum radius for r*vlocal+2*Zval:    2.60007
GHOST: No ghost state for L =  0
GHOST: No ghost state for L =  1
GHOST: No ghost state for L =  2
GHOST: No ghost state for L =  3

KBgen: Kleinman-Bylander projectors: 
   l= 0   rc=  3.175745   el= -0.445638   Ekb=  5.072790   kbcos=  0.276607
   l= 1   rc=  3.256140   el= -0.066324   Ekb=  2.703235   kbcos=  0.227171
   l= 2   rc=  3.020861   el= -0.526103   Ekb= -4.704026   kbcos= -0.643795
   l= 3   rc=  3.466145   el=  0.003438   Ekb= -2.516122   kbcos= -0.010529

KBgen: Total number of  Kleinman-Bylander projectors:   16
atom: -------------------------------------------------------------------------

atom: SANKEY-TYPE ORBITALS:
atom: Selected multiple-zeta basis: split     

SPLIT: Orbitals with angular momentum L= 0

SPLIT: Basis orbitals for state 6s

SPLIT: PAO cut-off radius determinated from an
SPLIT: energy shift=  0.020000 Ry

   izeta = 1
                 lambda =    1.000000
                     rc =    6.083298
                 energy =   -0.427281
                kinetic =    0.413324
    potential(screened) =   -0.840605
       potential(ionic) =   -8.569369

   izeta = 2
                 rmatch =    5.643738
              splitnorm =    0.150000
                 energy =   -0.356838
                kinetic =    0.642757
    potential(screened) =   -0.999595
       potential(ionic) =   -9.161462

SPLIT: Orbitals with angular momentum L= 2

SPLIT: Basis orbitals for state 5d

SPLIT: PAO cut-off radius determinated from an
SPLIT: energy shift=  0.020000 Ry

   izeta = 1
                 lambda =    1.000000
                     rc =    4.286818
                 energy =   -0.507846
                kinetic =    5.140097
    potential(screened) =   -5.647943
       potential(ionic) =  -16.260097

   izeta = 2
                 rmatch =    2.802581
              splitnorm =    0.150000
                 energy =   -0.214101
                kinetic =    7.126928
    potential(screened) =   -7.341029
       potential(ionic) =  -18.741832

POLgen: Perturbative polarization orbital with L=  1

POLgen: Polarization orbital for state 6s

   izeta = 1
                     rc =    6.083298
                 energy =   -0.072727
                kinetic =    0.732634
    potential(screened) =   -0.805360
       potential(ionic) =   -8.142092
atom: Total number of Sankey-type orbitals: 15

atm_pop: Valence configuration(local Pseudopot. screening):
 6s( 1.00)                                                            
 6p( 0.00)                                                            
 5d(10.00)                                                            
Vna: chval, zval:   11.00000  11.00000

Vna:  Cut-off radius for the neutral-atom potential:   6.083298

atom: _________________________________________________________________________

<basis_specs>
===============================================================================
Au_tip               Z=  79    Mass=  196.97        Charge=  0.0000    
Lmxo=2 Lmxkb=3     BasisType=split      Semic=F
L=0  Nsemic=0  Cnfigmx=6
          n=1  nzeta=2  polorb=1
               vcte:    0.0000    
               rinn:    0.0000    
                rcs:    0.0000      0.0000    
            lambdas:    1.0000      1.0000    
L=1  Nsemic=0  Cnfigmx=6
L=2  Nsemic=0  Cnfigmx=5
          n=1  nzeta=2  polorb=0
               vcte:    0.0000    
               rinn:    0.0000    
                rcs:    0.0000      0.0000    
            lambdas:    1.0000      1.0000    
-------------------------------------------------------------------------------
L=0  Nkbl=1  erefs: 0.17977+309
L=1  Nkbl=1  erefs: 0.17977+309
L=2  Nkbl=1  erefs: 0.17977+309
L=3  Nkbl=1  erefs: 0.17977+309
===============================================================================
</basis_specs>

atom: Called for Au  (Z =  79)

read_vps: Pseudopotential generation method:
read_vps: ATM3      Troullier-Martins                       

read_vps: Pseudopotential generated from a relativistic atomic calculation
read_vps: There are spin-orbit pseudopotentials available

read_vps: Valence configuration (pseudopotential and basis set generation):
6s( 1.00) rc: 2.18
6p( 0.00) rc: 2.47
5d(10.00) rc: 1.79
5f( 0.00) rc: 2.00
Total valence charge:   11.00000

read_vps: Pseudopotential includes a core correction:
read_vps: Pseudo-core for xc-correction
comcore: Pseudo-core radius Rcore=  4.027091

xc_check: Exchange-correlation functional:
xc_check: Ceperley-Alder
V l=0 = -2*Zval/r beyond r=  2.9833
V l=1 = -2*Zval/r beyond r=  2.9833
V l=2 = -2*Zval/r beyond r=  2.9833
V l=3 = -2*Zval/r beyond r=  2.9833
All V_l potentials equal beyond r=  2.4425
This should be close to max(r_c) in ps generation
All pots = -2*Zval/r beyond r=  2.9833

VLOCAL1: 99.0% of the norm of Vloc inside      7.276 Ry
VLOCAL1: 99.9% of the norm of Vloc inside     16.582 Ry
atom: Maximum radius for 4*pi*r*r*local-pseudopot. charge    2.94627
atom: Maximum radius for r*vlocal+2*Zval:    2.60007
GHOST: No ghost state for L =  0
GHOST: No ghost state for L =  1
GHOST: No ghost state for L =  2
GHOST: No ghost state for L =  3

KBgen: Kleinman-Bylander projectors: 
   l= 0   rc=  3.175745   el= -0.445638   Ekb=  5.072790   kbcos=  0.276607
   l= 1   rc=  3.256140   el= -0.066324   Ekb=  2.703235   kbcos=  0.227171
   l= 2   rc=  3.020861   el= -0.526103   Ekb= -4.704026   kbcos= -0.643795
   l= 3   rc=  3.466145   el=  0.003438   Ekb= -2.516122   kbcos= -0.010529

KBgen: Total number of  Kleinman-Bylander projectors:   16
atom: -------------------------------------------------------------------------

atom: SANKEY-TYPE ORBITALS:
atom: Selected multiple-zeta basis: split     

SPLIT: Orbitals with angular momentum L= 0

SPLIT: Basis orbitals for state 6s

SPLIT: PAO cut-off radius determinated from an
SPLIT: energy shift=  0.020000 Ry

   izeta = 1
                 lambda =    1.000000
                     rc =    6.083298
                 energy =   -0.427281
                kinetic =    0.413324
    potential(screened) =   -0.840605
       potential(ionic) =   -8.569369

   izeta = 2
                 rmatch =    5.643738
              splitnorm =    0.150000
                 energy =   -0.356838
                kinetic =    0.642757
    potential(screened) =   -0.999595
       potential(ionic) =   -9.161462

SPLIT: Orbitals with angular momentum L= 2

SPLIT: Basis orbitals for state 5d

SPLIT: PAO cut-off radius determinated from an
SPLIT: energy shift=  0.020000 Ry

   izeta = 1
                 lambda =    1.000000
                     rc =    4.286818
                 energy =   -0.507846
                kinetic =    5.140097
    potential(screened) =   -5.647943
       potential(ionic) =  -16.260097

   izeta = 2
                 rmatch =    2.802581
              splitnorm =    0.150000
                 energy =   -0.214101
                kinetic =    7.126928
    potential(screened) =   -7.341029
       potential(ionic) =  -18.741832

POLgen: Perturbative polarization orbital with L=  1

POLgen: Polarization orbital for state 6s

   izeta = 1
                     rc =    6.083298
                 energy =   -0.072727
                kinetic =    0.732634
    potential(screened) =   -0.805360
       potential(ionic) =   -8.142092
atom: Total number of Sankey-type orbitals: 15

atm_pop: Valence configuration(local Pseudopot. screening):
 6s( 1.00)                                                            
 6p( 0.00)                                                            
 5d(10.00)                                                            
Vna: chval, zval:   11.00000  11.00000

Vna:  Cut-off radius for the neutral-atom potential:   6.083298

atom: _________________________________________________________________________

prinput: Basis input ----------------------------------------------------------

PAO.BasisType split     

%block ChemicalSpeciesLabel
    1   79 Au_bulk                 # Species index, atomic number, species label
    2    7 N                       # Species index, atomic number, species label
    3    6 C                       # Species index, atomic number, species label
    4    1 H                       # Species index, atomic number, species label
    5   79 Au                      # Species index, atomic number, species label
    6   79 Au_surf                 # Species index, atomic number, species label
    7   79 Au_tip                  # Species index, atomic number, species label
%endblock ChemicalSpeciesLabel

%block PAO.Basis                 # Define Basis set
Au_bulk     2                    # Species label, number of l-shells
 n=6   0   1                         # n, l, Nzeta 
   6.557   
   1.000   
 n=5   2   1                         # n, l, Nzeta 
   5.933   
   1.000   
N           2                    # Species label, number of l-shells
 n=2   0   2                         # n, l, Nzeta 
   3.684      2.905   
   1.000      1.000   
 n=2   1   2 P   1                   # n, l, Nzeta, Polarization, NzetaPol
   4.389      2.979   
   1.000      1.000   
C           2                    # Species label, number of l-shells
 n=2   0   2                         # n, l, Nzeta 
   4.192      3.432   
   1.000      1.000   
 n=2   1   2 P   1                   # n, l, Nzeta, Polarization, NzetaPol
   4.870      3.475   
   1.000      1.000   
H           1                    # Species label, number of l-shells
 n=1   0   2 P   1                   # n, l, Nzeta, Polarization, NzetaPol
   4.828      3.855   
   1.000      1.000   
Au          2                    # Species label, number of l-shells
 n=6   0   1                         # n, l, Nzeta 
   6.557   
   1.000   
 n=5   2   1                         # n, l, Nzeta 
   5.933   
   1.000   
Au_surf     2                    # Species label, number of l-shells
 n=6   0   2 P   1                   # n, l, Nzeta, Polarization, NzetaPol
   6.083      5.644   
   1.000      1.000   
 n=5   2   2                         # n, l, Nzeta 
   4.287      2.803   
   1.000      1.000   
Au_tip      2                    # Species label, number of l-shells
 n=6   0   2 P   1                   # n, l, Nzeta, Polarization, NzetaPol
   6.083      5.644   
   1.000      1.000   
 n=5   2   2                         # n, l, Nzeta 
   4.287      2.803   
   1.000      1.000   
%endblock PAO.Basis

prinput: ----------------------------------------------------------------------


siesta: ******************** Simulation parameters ****************************
siesta:
siesta: The following are some of the parameters of the simulation.
siesta: A complete list of the parameters used, including defect values,
siesta: can be found in file out.fdf
siesta:
coor:   Atomic-coordinates input format  =     Cartesian coordinates
coor:                                          (in Angstroms)
redata: Number of spin components        =     1
redata: SpinOrbit                        =     0
redata: Long output                      =     F
redata: Number of Atomic Species         =     7
redata: Charge density info will appear in .RHO file
redata: Write Mulliken Pop.              =     NO
redata: Write Hamilton Pop.              =     NO
redata: Mesh Cutoff                      =   200.0000  Ry
redata: Net charge of the system         =     0.0000 |e|
redata: Max. number of SCF Iter          =   500
redata: One Pulay mixing every           =     4 iterations
redata: Mix DM in first SCF step ?       =     T
redata: Write Pulay info on disk?        =     F
redata: New DM Mixing Weight             =     0.1000
redata: No kicks to SCF
redata: DM Mixing Weight for Kicks       =     0.5000
redata: DM Tolerance for SCF             =     0.000100
redata: Use continuation files for DM    =     T
redata: Neglect nonoverlap interactions  =     F
redata: Method of Calculation            =     Diagonalization
redata: Divide and Conquer               =     F
redata: Electronic Temperature           =     0.0019  Ry
redata: Fix the spin of the system       =     F
redata: Dynamics option                  =     CG coord. optimization
redata: Variable cell                    =     F
redata: Use continuation files for CG    =     F
redata: Maximum number of CG moves       =     0
redata: Max atomic displ per move        =     0.2000  Bohr
redata: Force tolerance                  =     0.0016  Ry/Bohr
redata: ***********************************************************************

siesta: Atomic coordinates (Bohr) and species
siesta:      0.00000   0.00000   0.00000  1        1
siesta:      0.00000   5.58414   0.00000  1        2
siesta:      0.00000  11.17018   0.00000  1        3
siesta:      5.58603   0.00000   0.00000  1        4
siesta:      5.58603   5.58414   0.00000  1        5
siesta:      5.58603  11.17018   0.00000  1        6
siesta:     11.17207   0.00000   0.00000  1        7
siesta:     11.17207   5.58414   0.00000  1        8
siesta:     11.17207  11.17018   0.00000  1        9
siesta:     16.38393   0.00000   0.00000  1       10
siesta:     16.38393   5.58414   0.00000  1       11
siesta:     16.38393  11.17018   0.00000  1       12
siesta:     21.96996   0.00000   0.00000  1       13
siesta:     21.96996   5.58414   0.00000  1       14
siesta:     21.96996  11.17018   0.00000  1       15
siesta:      2.79302   2.79302   3.94953  1       16
siesta:      2.79302   8.37716   3.94953  1       17
siesta:      2.79302  13.96319   3.94953  1       18
siesta:      8.37905   2.79302   3.94953  1       19
siesta:      8.37905   8.37716   3.94953  1       20
siesta:      8.37905  13.96319   3.94953  1       21
siesta:     13.59092   2.79302   3.94953  1       22
siesta:     13.59092   8.37716   3.94953  1       23
siesta:     13.59092  13.96319   3.94953  1       24
siesta:     19.17695   2.79302   3.94953  1       25
siesta:     19.17695   8.37716   3.94953  1       26
siesta:     19.17695  13.96319   3.94953  1       27
siesta:     24.76298   2.79302   3.94953  1       28
siesta:     24.76298   8.37716   3.94953  1       29
siesta:     24.76298  13.96319   3.94953  1       30
siesta:      0.00000   0.00000   7.89906  1       31
siesta:      0.00000   5.58414   7.89906  1       32
siesta:      0.00000  11.17018   7.89906  1       33
siesta:      5.58603   0.00000   7.89906  1       34
siesta:      5.58603   5.58414   7.89906  1       35
siesta:      5.58603  11.17018   7.89906  1       36
siesta:     11.17207   0.00000   7.89906  1       37
siesta:     11.17207   5.58414   7.89906  1       38
siesta:     11.17207  11.17018   7.89906  1       39
siesta:     16.38393   0.00000   7.89906  1       40
siesta:     16.38393   5.58414   7.89906  1       41
siesta:     16.38393  11.17018   7.89906  1       42
siesta:     21.96996   0.00000   7.89906  1       43
siesta:     21.96996   5.58414   7.89906  1       44
siesta:     21.96996  11.17018   7.89906  1       45
siesta:      2.79302   2.79302  11.84859  1       46
siesta:      2.79302   8.37716  11.84859  1       47
siesta:      2.79302  13.96319  11.84859  1       48
siesta:      8.37905   2.79302  11.84859  1       49
siesta:      8.37905   8.37716  11.84859  1       50
siesta:      8.37905  13.96319  11.84859  1       51
siesta:     13.59092   2.79302  11.84859  1       52
siesta:     13.59092   8.37716  11.84859  1       53
siesta:     13.59092  13.96319  11.84859  1       54
siesta:     19.17695   2.79302  11.84859  1       55
siesta:     19.17695   8.37716  11.84859  1       56
siesta:     19.17695  13.96319  11.84859  1       57
siesta:     24.76298   2.79302  11.84859  1       58
siesta:     24.76298   8.37716  11.84859  1       59
siesta:     24.76298  13.96319  11.84859  1       60
siesta:      0.00000   0.00000  15.79812  5       61
siesta:      0.00000   5.58414  15.79812  5       62
siesta:      0.00000  11.17018  15.79812  5       63
siesta:      5.58603   0.00000  15.79812  5       64
siesta:      5.58603   5.58414  15.79812  5       65
siesta:      5.58603  11.17018  15.79812  5       66
siesta:     11.17207   0.00000  15.79812  5       67
siesta:     11.17207   5.58414  15.79812  5       68
siesta:     11.17207  11.17018  15.79812  5       69
siesta:     16.38393   0.00000  15.79812  5       70
siesta:     16.38393   5.58414  15.79812  5       71
siesta:     16.38393  11.17018  15.79812  5       72
siesta:     21.96996   0.00000  15.79812  5       73
siesta:     21.96996   5.58414  15.79812  5       74
siesta:     21.96996  11.17018  15.79812  5       75
siesta:      2.79302   2.79302  19.74765  6       76
siesta:      2.79302   8.37716  19.74765  6       77
siesta:      2.79302  13.96319  19.74765  6       78
siesta:      8.37905   2.79302  19.74765  6       79
siesta:      8.37905   8.37716  19.74765  6       80
siesta:      8.37905  13.96319  19.74765  6       81
siesta:     13.59092   2.79302  19.74765  6       82
siesta:     13.59092   8.37716  19.74765  6       83
siesta:     13.59092  13.96319  19.74765  6       84
siesta:     19.17695   2.79302  19.74765  6       85
siesta:     19.17695   8.37716  19.74765  6       86
siesta:     19.17695  13.96319  19.74765  6       87
siesta:     24.76298   2.79302  19.74765  6       88
siesta:     24.76298   8.37716  19.74765  6       89
siesta:     24.76298  13.96319  19.74765  6       90
siesta:      9.17538  11.17188  22.73682  2       91
siesta:     18.00532  11.17528  22.74097  2       92
siesta:     13.59092  11.21364  22.75231  2       93
siesta:      7.70064  11.15865  23.99348  4       94
siesta:     19.45285  11.16110  24.03071  4       95
siesta:     15.82646  11.17396  24.11424  3       96
siesta:     11.35726  11.17225  24.12388  3       97
siesta:     15.88259  11.12936  26.63400  2       98
siesta:     11.29849  11.12728  26.63419  2       99
siesta:     13.59526  11.11141  27.78106  3      100
siesta:     13.58940  11.05887  30.33125  2      101
siesta:     11.92153  11.07682  31.27196  4      102
siesta:     15.25180  11.07777  31.28178  4      103
siesta:     13.81768  11.21364  35.98607  7      104
siesta:     10.98498   8.37716  39.66915  7      105
siesta:     10.98498  14.04823  39.66915  7      106
siesta:     16.65416   8.37905  39.66915  7      107
siesta:     16.65416  14.04823  39.66915  7      108
siesta:      2.79302   2.79302  43.61868  5      109
siesta:      2.79302   8.37716  43.61868  5      110
siesta:      2.79302  13.96319  43.61868  5      111
siesta:      8.37905   2.79302  43.61868  5      112
siesta:      8.37905   8.37716  43.61868  5      113
siesta:      8.37905  13.96319  43.61868  5      114
siesta:     13.59092   2.79302  43.61868  5      115
siesta:     13.59092   8.37716  43.61868  5      116
siesta:     13.59092  13.96319  43.61868  5      117
siesta:     19.17695   2.79302  43.61868  5      118
siesta:     19.17695   8.37716  43.61868  5      119
siesta:     19.17695  13.96319  43.61868  5      120
siesta:     24.76298   2.79302  43.61868  5      121
siesta:     24.76298   8.37716  43.61868  5      122
siesta:     24.76298  13.96319  43.61868  5      123
siesta:      0.00000   0.00000  47.56820  1      124
siesta:      0.00000   5.58414  47.56820  1      125
siesta:      0.00000  11.17018  47.56820  1      126
siesta:      5.58603   0.00000  47.56820  1      127
siesta:      5.58603   5.58414  47.56820  1      128
siesta:      5.58603  11.17018  47.56820  1      129
siesta:     11.17207   0.00000  47.56820  1      130
siesta:     11.17207   5.58414  47.56820  1      131
siesta:     11.17207  11.17018  47.56820  1      132
siesta:     16.38393   0.00000  47.56820  1      133
siesta:     16.38393   5.58414  47.56820  1      134
siesta:     16.38393  11.17018  47.56820  1      135
siesta:     21.96996   0.00000  47.56820  1      136
siesta:     21.96996   5.58414  47.56820  1      137
siesta:     21.96996  11.17018  47.56820  1      138
siesta:      2.79302   2.79302  51.51773  1      139
siesta:      2.79302   8.37716  51.51773  1      140
siesta:      2.79302  13.96319  51.51773  1      141
siesta:      8.37905   2.79302  51.51773  1      142
siesta:      8.37905   8.37716  51.51773  1      143
siesta:      8.37905  13.96319  51.51773  1      144
siesta:     13.59092   2.79302  51.51773  1      145
siesta:     13.59092   8.37716  51.51773  1      146
siesta:     13.59092  13.96319  51.51773  1      147
siesta:     19.17695   2.79302  51.51773  1      148
siesta:     19.17695   8.37716  51.51773  1      149
siesta:     19.17695  13.96319  51.51773  1      150
siesta:     24.76298   2.79302  51.51773  1      151
siesta:     24.76298   8.37716  51.51773  1      152
siesta:     24.76298  13.96319  51.51773  1      153
siesta:      0.00000   0.00000  55.46726  1      154
siesta:      0.00000   5.58414  55.46726  1      155
siesta:      0.00000  11.17018  55.46726  1      156
siesta:      5.58603   0.00000  55.46726  1      157
siesta:      5.58603   5.58414  55.46726  1      158
siesta:      5.58603  11.17018  55.46726  1      159
siesta:     11.17207   0.00000  55.46726  1      160
siesta:     11.17207   5.58414  55.46726  1      161
siesta:     11.17207  11.17018  55.46726  1      162
siesta:     16.38393   0.00000  55.46726  1      163
siesta:     16.38393   5.58414  55.46726  1      164
siesta:     16.38393  11.17018  55.46726  1      165
siesta:     21.96996   0.00000  55.46726  1      166
siesta:     21.96996   5.58414  55.46726  1      167
siesta:     21.96996  11.17018  55.46726  1      168
siesta:      2.79302   2.79302  59.41679  1      169
siesta:      2.79302   8.37716  59.41679  1      170
siesta:      2.79302  13.96319  59.41679  1      171
siesta:      8.37905   2.79302  59.41679  1      172
siesta:      8.37905   8.37716  59.41679  1      173
siesta:      8.37905  13.96319  59.41679  1      174
siesta:     13.59092   2.79302  59.41679  1      175
siesta:     13.59092   8.37716  59.41679  1      176
siesta:     13.59092  13.96319  59.41679  1      177
siesta:     19.17695   2.79302  59.41679  1      178
siesta:     19.17695   8.37716  59.41679  1      179
siesta:     19.17695  13.96319  59.41679  1      180
siesta:     24.76298   2.79302  59.41679  1      181
siesta:     24.76298   8.37716  59.41679  1      182
siesta:     24.76298  13.96319  59.41679  1      183

initatomlists: Number of atoms, orbitals, and projectors:    183  1337  2900

siesta: System type = bulk      
 Nodes, Orbitals          64        1337
 blocksizedefault           8

* ProcessorY, Blocksize:    8   8


siesta: k-grid: Number of k-points =     6
siesta: k-grid: Cutoff             =    14.582 Ang
siesta: k-grid: Supercell and displacements
siesta: k-grid:    2   0   0      0.000
siesta: k-grid:    0   4   0      0.000
siesta: k-grid:    0   0   1      0.000
siesta: overlap:  rmaxh   veclen  direction
siesta: overlap:  20.0465 27.5560   1
siesta: overlap:  rmaxh   veclen  direction
siesta: overlap:  20.0465 16.7543   2
siesta: overlap:  rmaxh   veclen  direction
siesta: overlap:  20.0465 63.3663   3
 label:           1 Au_bulk                        1 s      
 label:           2 Au_bulk                        1 dxy    
 label:           3 Au_bulk                        1 dyz    
 label:           4 Au_bulk                        1 dz2    
 label:           5 Au_bulk                        1 dxz    
 label:           6 Au_bulk                        1 dx2-y2 
 label:           7 Au_bulk                        2 s      
 label:           8 Au_bulk                        2 dxy    
 label:           9 Au_bulk                        2 dyz    
 label:          10 Au_bulk                        2 dz2    
 label:          11 Au_bulk                        2 dxz    
 label:          12 Au_bulk                        2 dx2-y2 
 label:          13 Au_bulk                        3 s      
 label:          14 Au_bulk                        3 dxy    
 label:          15 Au_bulk                        3 dyz    
 label:          16 Au_bulk                        3 dz2    
 label:          17 Au_bulk                        3 dxz    
 label:          18 Au_bulk                        3 dx2-y2 
 label:          19 Au_bulk                        4 s      
 label:          20 Au_bulk                        4 dxy    
 label:          21 Au_bulk                        4 dyz    
 label:          22 Au_bulk                        4 dz2    
 label:          23 Au_bulk                        4 dxz    
 label:          24 Au_bulk                        4 dx2-y2 
 label:          25 Au_bulk                        5 s      
 label:          26 Au_bulk                        5 dxy    
 label:          27 Au_bulk                        5 dyz    
 label:          28 Au_bulk                        5 dz2    
 label:          29 Au_bulk                        5 dxz    
 label:          30 Au_bulk                        5 dx2-y2 
 label:          31 Au_bulk                        6 s      
 label:          32 Au_bulk                        6 dxy    
 label:          33 Au_bulk                        6 dyz    
 label:          34 Au_bulk                        6 dz2    
 label:          35 Au_bulk                        6 dxz    
 label:          36 Au_bulk                        6 dx2-y2 
 label:          37 Au_bulk                        7 s      
 label:          38 Au_bulk                        7 dxy    
 label:          39 Au_bulk                        7 dyz    
 label:          40 Au_bulk                        7 dz2    
 label:          41 Au_bulk                        7 dxz    
 label:          42 Au_bulk                        7 dx2-y2 
 label:          43 Au_bulk                        8 s      
 label:          44 Au_bulk                        8 dxy    
 label:          45 Au_bulk                        8 dyz    
 label:          46 Au_bulk                        8 dz2    
 label:          47 Au_bulk                        8 dxz    
 label:          48 Au_bulk                        8 dx2-y2 
 label:          49 Au_bulk                        9 s      
 label:          50 Au_bulk                        9 dxy    
 label:          51 Au_bulk                        9 dyz    
 label:          52 Au_bulk                        9 dz2    
 label:          53 Au_bulk                        9 dxz    
 label:          54 Au_bulk                        9 dx2-y2 
 label:          55 Au_bulk                       10 s      
 label:          56 Au_bulk                       10 dxy    
 label:          57 Au_bulk                       10 dyz    
 label:          58 Au_bulk                       10 dz2    
 label:          59 Au_bulk                       10 dxz    
 label:          60 Au_bulk                       10 dx2-y2 
 label:          61 Au_bulk                       11 s      
 label:          62 Au_bulk                       11 dxy    
 label:          63 Au_bulk                       11 dyz    
 label:          64 Au_bulk                       11 dz2    
 label:          65 Au_bulk                       11 dxz    
 label:          66 Au_bulk                       11 dx2-y2 
 label:          67 Au_bulk                       12 s      
 label:          68 Au_bulk                       12 dxy    
 label:          69 Au_bulk                       12 dyz    
 label:          70 Au_bulk                       12 dz2    
 label:          71 Au_bulk                       12 dxz    
 label:          72 Au_bulk                       12 dx2-y2 
 label:          73 Au_bulk                       13 s      
 label:          74 Au_bulk                       13 dxy    
 label:          75 Au_bulk                       13 dyz    
 label:          76 Au_bulk                       13 dz2    
 label:          77 Au_bulk                       13 dxz    
 label:          78 Au_bulk                       13 dx2-y2 
 label:          79 Au_bulk                       14 s      
 label:          80 Au_bulk                       14 dxy    
 label:          81 Au_bulk                       14 dyz    
 label:          82 Au_bulk                       14 dz2    
 label:          83 Au_bulk                       14 dxz    
 label:          84 Au_bulk                       14 dx2-y2 
 label:          85 Au_bulk                       15 s      
 label:          86 Au_bulk                       15 dxy    
 label:          87 Au_bulk                       15 dyz    
 label:          88 Au_bulk                       15 dz2    
 label:          89 Au_bulk                       15 dxz    
 label:          90 Au_bulk                       15 dx2-y2 
 label:          91 Au_bulk                       16 s      
 label:          92 Au_bulk                       16 dxy    
 label:          93 Au_bulk                       16 dyz    
 label:          94 Au_bulk                       16 dz2    
 label:          95 Au_bulk                       16 dxz    
 label:          96 Au_bulk                       16 dx2-y2 
 label:          97 Au_bulk                       17 s      
 label:          98 Au_bulk                       17 dxy    
 label:          99 Au_bulk                       17 dyz    
 label:         100 Au_bulk                       17 dz2    
 label:         101 Au_bulk                       17 dxz    
 label:         102 Au_bulk                       17 dx2-y2 
 label:         103 Au_bulk                       18 s      
 label:         104 Au_bulk                       18 dxy    
 label:         105 Au_bulk                       18 dyz    
 label:         106 Au_bulk                       18 dz2    
 label:         107 Au_bulk                       18 dxz    
 label:         108 Au_bulk                       18 dx2-y2 
 label:         109 Au_bulk                       19 s      
 label:         110 Au_bulk                       19 dxy    
 label:         111 Au_bulk                       19 dyz    
 label:         112 Au_bulk                       19 dz2    
 label:         113 Au_bulk                       19 dxz    
 label:         114 Au_bulk                       19 dx2-y2 
 label:         115 Au_bulk                       20 s      
 label:         116 Au_bulk                       20 dxy    
 label:         117 Au_bulk                       20 dyz    
 label:         118 Au_bulk                       20 dz2    
 label:         119 Au_bulk                       20 dxz    
 label:         120 Au_bulk                       20 dx2-y2 
 label:         121 Au_bulk                       21 s      
 label:         122 Au_bulk                       21 dxy    
 label:         123 Au_bulk                       21 dyz    
 label:         124 Au_bulk                       21 dz2    
 label:         125 Au_bulk                       21 dxz    
 label:         126 Au_bulk                       21 dx2-y2 
 label:         127 Au_bulk                       22 s      
 label:         128 Au_bulk                       22 dxy    
 label:         129 Au_bulk                       22 dyz    
 label:         130 Au_bulk                       22 dz2    
 label:         131 Au_bulk                       22 dxz    
 label:         132 Au_bulk                       22 dx2-y2 
 label:         133 Au_bulk                       23 s      
 label:         134 Au_bulk                       23 dxy    
 label:         135 Au_bulk                       23 dyz    
 label:         136 Au_bulk                       23 dz2    
 label:         137 Au_bulk                       23 dxz    
 label:         138 Au_bulk                       23 dx2-y2 
 label:         139 Au_bulk                       24 s      
 label:         140 Au_bulk                       24 dxy    
 label:         141 Au_bulk                       24 dyz    
 label:         142 Au_bulk                       24 dz2    
 label:         143 Au_bulk                       24 dxz    
 label:         144 Au_bulk                       24 dx2-y2 
 label:         145 Au_bulk                       25 s      
 label:         146 Au_bulk                       25 dxy    
 label:         147 Au_bulk                       25 dyz    
 label:         148 Au_bulk                       25 dz2    
 label:         149 Au_bulk                       25 dxz    
 label:         150 Au_bulk                       25 dx2-y2 
 label:         151 Au_bulk                       26 s      
 label:         152 Au_bulk                       26 dxy    
 label:         153 Au_bulk                       26 dyz    
 label:         154 Au_bulk                       26 dz2    
 label:         155 Au_bulk                       26 dxz    
 label:         156 Au_bulk                       26 dx2-y2 
 label:         157 Au_bulk                       27 s      
 label:         158 Au_bulk                       27 dxy    
 label:         159 Au_bulk                       27 dyz    
 label:         160 Au_bulk                       27 dz2    
 label:         161 Au_bulk                       27 dxz    
 label:         162 Au_bulk                       27 dx2-y2 
 label:         163 Au_bulk                       28 s      
 label:         164 Au_bulk                       28 dxy    
 label:         165 Au_bulk                       28 dyz    
 label:         166 Au_bulk                       28 dz2    
 label:         167 Au_bulk                       28 dxz    
 label:         168 Au_bulk                       28 dx2-y2 
 label:         169 Au_bulk                       29 s      
 label:         170 Au_bulk                       29 dxy    
 label:         171 Au_bulk                       29 dyz    
 label:         172 Au_bulk                       29 dz2    
 label:         173 Au_bulk                       29 dxz    
 label:         174 Au_bulk                       29 dx2-y2 
 label:         175 Au_bulk                       30 s      
 label:         176 Au_bulk                       30 dxy    
 label:         177 Au_bulk                       30 dyz    
 label:         178 Au_bulk                       30 dz2    
 label:         179 Au_bulk                       30 dxz    
 label:         180 Au_bulk                       30 dx2-y2 
 label:         181 Au_bulk                       31 s      
 label:         182 Au_bulk                       31 dxy    
 label:         183 Au_bulk                       31 dyz    
 label:         184 Au_bulk                       31 dz2    
 label:         185 Au_bulk                       31 dxz    
 label:         186 Au_bulk                       31 dx2-y2 
 label:         187 Au_bulk                       32 s      
 label:         188 Au_bulk                       32 dxy    
 label:         189 Au_bulk                       32 dyz    
 label:         190 Au_bulk                       32 dz2    
 label:         191 Au_bulk                       32 dxz    
 label:         192 Au_bulk                       32 dx2-y2 
 label:         193 Au_bulk                       33 s      
 label:         194 Au_bulk                       33 dxy    
 label:         195 Au_bulk                       33 dyz    
 label:         196 Au_bulk                       33 dz2    
 label:         197 Au_bulk                       33 dxz    
 label:         198 Au_bulk                       33 dx2-y2 
 label:         199 Au_bulk                       34 s      
 label:         200 Au_bulk                       34 dxy    
 label:         201 Au_bulk                       34 dyz    
 label:         202 Au_bulk                       34 dz2    
 label:         203 Au_bulk                       34 dxz    
 label:         204 Au_bulk                       34 dx2-y2 
 label:         205 Au_bulk                       35 s      
 label:         206 Au_bulk                       35 dxy    
 label:         207 Au_bulk                       35 dyz    
 label:         208 Au_bulk                       35 dz2    
 label:         209 Au_bulk                       35 dxz    
 label:         210 Au_bulk                       35 dx2-y2 
 label:         211 Au_bulk                       36 s      
 label:         212 Au_bulk                       36 dxy    
 label:         213 Au_bulk                       36 dyz    
 label:         214 Au_bulk                       36 dz2    
 label:         215 Au_bulk                       36 dxz    
 label:         216 Au_bulk                       36 dx2-y2 
 label:         217 Au_bulk                       37 s      
 label:         218 Au_bulk                       37 dxy    
 label:         219 Au_bulk                       37 dyz    
 label:         220 Au_bulk                       37 dz2    
 label:         221 Au_bulk                       37 dxz    
 label:         222 Au_bulk                       37 dx2-y2 
 label:         223 Au_bulk                       38 s      
 label:         224 Au_bulk                       38 dxy    
 label:         225 Au_bulk                       38 dyz    
 label:         226 Au_bulk                       38 dz2    
 label:         227 Au_bulk                       38 dxz    
 label:         228 Au_bulk                       38 dx2-y2 
 label:         229 Au_bulk                       39 s      
 label:         230 Au_bulk                       39 dxy    
 label:         231 Au_bulk                       39 dyz    
 label:         232 Au_bulk                       39 dz2    
 label:         233 Au_bulk                       39 dxz    
 label:         234 Au_bulk                       39 dx2-y2 
 label:         235 Au_bulk                       40 s      
 label:         236 Au_bulk                       40 dxy    
 label:         237 Au_bulk                       40 dyz    
 label:         238 Au_bulk                       40 dz2    
 label:         239 Au_bulk                       40 dxz    
 label:         240 Au_bulk                       40 dx2-y2 
 label:         241 Au_bulk                       41 s      
 label:         242 Au_bulk                       41 dxy    
 label:         243 Au_bulk                       41 dyz    
 label:         244 Au_bulk                       41 dz2    
 label:         245 Au_bulk                       41 dxz    
 label:         246 Au_bulk                       41 dx2-y2 
 label:         247 Au_bulk                       42 s      
 label:         248 Au_bulk                       42 dxy    
 label:         249 Au_bulk                       42 dyz    
 label:         250 Au_bulk                       42 dz2    
 label:         251 Au_bulk                       42 dxz    
 label:         252 Au_bulk                       42 dx2-y2 
 label:         253 Au_bulk                       43 s      
 label:         254 Au_bulk                       43 dxy    
 label:         255 Au_bulk                       43 dyz    
 label:         256 Au_bulk                       43 dz2    
 label:         257 Au_bulk                       43 dxz    
 label:         258 Au_bulk                       43 dx2-y2 
 label:         259 Au_bulk                       44 s      
 label:         260 Au_bulk                       44 dxy    
 label:         261 Au_bulk                       44 dyz    
 label:         262 Au_bulk                       44 dz2    
 label:         263 Au_bulk                       44 dxz    
 label:         264 Au_bulk                       44 dx2-y2 
 label:         265 Au_bulk                       45 s      
 label:         266 Au_bulk                       45 dxy    
 label:         267 Au_bulk                       45 dyz    
 label:         268 Au_bulk                       45 dz2    
 label:         269 Au_bulk                       45 dxz    
 label:         270 Au_bulk                       45 dx2-y2 
 label:         271 Au_bulk                       46 s      
 label:         272 Au_bulk                       46 dxy    
 label:         273 Au_bulk                       46 dyz    
 label:         274 Au_bulk                       46 dz2    
 label:         275 Au_bulk                       46 dxz    
 label:         276 Au_bulk                       46 dx2-y2 
 label:         277 Au_bulk                       47 s      
 label:         278 Au_bulk                       47 dxy    
 label:         279 Au_bulk                       47 dyz    
 label:         280 Au_bulk                       47 dz2    
 label:         281 Au_bulk                       47 dxz    
 label:         282 Au_bulk                       47 dx2-y2 
 label:         283 Au_bulk                       48 s      
 label:         284 Au_bulk                       48 dxy    
 label:         285 Au_bulk                       48 dyz    
 label:         286 Au_bulk                       48 dz2    
 label:         287 Au_bulk                       48 dxz    
 label:         288 Au_bulk                       48 dx2-y2 
 label:         289 Au_bulk                       49 s      
 label:         290 Au_bulk                       49 dxy    
 label:         291 Au_bulk                       49 dyz    
 label:         292 Au_bulk                       49 dz2    
 label:         293 Au_bulk                       49 dxz    
 label:         294 Au_bulk                       49 dx2-y2 
 label:         295 Au_bulk                       50 s      
 label:         296 Au_bulk                       50 dxy    
 label:         297 Au_bulk                       50 dyz    
 label:         298 Au_bulk                       50 dz2    
 label:         299 Au_bulk                       50 dxz    
 label:         300 Au_bulk                       50 dx2-y2 
 label:         301 Au_bulk                       51 s      
 label:         302 Au_bulk                       51 dxy    
 label:         303 Au_bulk                       51 dyz    
 label:         304 Au_bulk                       51 dz2    
 label:         305 Au_bulk                       51 dxz    
 label:         306 Au_bulk                       51 dx2-y2 
 label:         307 Au_bulk                       52 s      
 label:         308 Au_bulk                       52 dxy    
 label:         309 Au_bulk                       52 dyz    
 label:         310 Au_bulk                       52 dz2    
 label:         311 Au_bulk                       52 dxz    
 label:         312 Au_bulk                       52 dx2-y2 
 label:         313 Au_bulk                       53 s      
 label:         314 Au_bulk                       53 dxy    
 label:         315 Au_bulk                       53 dyz    
 label:         316 Au_bulk                       53 dz2    
 label:         317 Au_bulk                       53 dxz    
 label:         318 Au_bulk                       53 dx2-y2 
 label:         319 Au_bulk                       54 s      
 label:         320 Au_bulk                       54 dxy    
 label:         321 Au_bulk                       54 dyz    
 label:         322 Au_bulk                       54 dz2    
 label:         323 Au_bulk                       54 dxz    
 label:         324 Au_bulk                       54 dx2-y2 
 label:         325 Au_bulk                       55 s      
 label:         326 Au_bulk                       55 dxy    
 label:         327 Au_bulk                       55 dyz    
 label:         328 Au_bulk                       55 dz2    
 label:         329 Au_bulk                       55 dxz    
 label:         330 Au_bulk                       55 dx2-y2 
 label:         331 Au_bulk                       56 s      
 label:         332 Au_bulk                       56 dxy    
 label:         333 Au_bulk                       56 dyz    
 label:         334 Au_bulk                       56 dz2    
 label:         335 Au_bulk                       56 dxz    
 label:         336 Au_bulk                       56 dx2-y2 
 label:         337 Au_bulk                       57 s      
 label:         338 Au_bulk                       57 dxy    
 label:         339 Au_bulk                       57 dyz    
 label:         340 Au_bulk                       57 dz2    
 label:         341 Au_bulk                       57 dxz    
 label:         342 Au_bulk                       57 dx2-y2 
 label:         343 Au_bulk                       58 s      
 label:         344 Au_bulk                       58 dxy    
 label:         345 Au_bulk                       58 dyz    
 label:         346 Au_bulk                       58 dz2    
 label:         347 Au_bulk                       58 dxz    
 label:         348 Au_bulk                       58 dx2-y2 
 label:         349 Au_bulk                       59 s      
 label:         350 Au_bulk                       59 dxy    
 label:         351 Au_bulk                       59 dyz    
 label:         352 Au_bulk                       59 dz2    
 label:         353 Au_bulk                       59 dxz    
 label:         354 Au_bulk                       59 dx2-y2 
 label:         355 Au_bulk                       60 s      
 label:         356 Au_bulk                       60 dxy    
 label:         357 Au_bulk                       60 dyz    
 label:         358 Au_bulk                       60 dz2    
 label:         359 Au_bulk                       60 dxz    
 label:         360 Au_bulk                       60 dx2-y2 
 label:         361 Au                            61 s      
 label:         362 Au                            61 dxy    
 label:         363 Au                            61 dyz    
 label:         364 Au                            61 dz2    
 label:         365 Au                            61 dxz    
 label:         366 Au                            61 dx2-y2 
 label:         367 Au                            62 s      
 label:         368 Au                            62 dxy    
[...]
   112    0.102927    0.095281    0.072900
   113   -1.184750   -0.304227   -0.149020
   114   -0.965642    0.170735   -0.191657
   115    0.005008    0.069451   -0.520797
   116    1.142284   -0.471820   -0.030305
   117    0.873589    0.338449   -0.167653
   118   -0.545576    0.092010    0.153570
   119    0.693220   -0.334518    0.010049
   120    0.475564    0.197731   -0.032071
   121   -0.099127    0.128195    0.698713
   122    0.097703    0.012259    0.672360
   123    0.019669   -0.140778    0.706926
   124   -0.036263   -0.002515   -0.621869
   125   -0.036460   -0.095776   -0.420584
   126   -0.036088    0.099149   -0.397158
   127    0.233235   -0.222469   -0.644146
   128    0.304872    0.119585   -0.500252
   129    0.407775    0.111584   -0.515234
   130   -0.346759   -0.141310   -0.361975
   131   -0.213202    0.035991   -0.371127
   132    0.102716    0.121744   -0.294520
   133    0.243468   -0.151068   -0.350092
   134    0.110599    0.043085   -0.358402
   135   -0.260937    0.121958   -0.281159
   136   -0.261870   -0.229526   -0.620356
   137   -0.333823    0.126242   -0.476553
   138   -0.426679    0.112851   -0.489358
   139    0.104211    0.062213   -0.095130
   140    0.137324    0.000810   -0.341697
   141    0.118069   -0.054542   -0.117714
   142   -0.479142    0.088206   -0.163412
   143   -0.419940    0.007566   -0.479658
   144   -0.462840   -0.087260   -0.354023
   145    0.393963    0.118899   -0.190107
   146    0.428033   -0.005740   -0.398092
   147    0.386315   -0.106272   -0.408009
   148   -0.170499    0.087635   -0.160936
   149   -0.222644    0.011161   -0.496689
   150   -0.178694   -0.090166   -0.371028
   151   -0.045521    0.062229   -0.099220
   152   -0.079628   -0.000475   -0.345266
   153   -0.060346   -0.053286   -0.121289
   154   -0.020229    0.000219   -0.335697
   155   -0.020253    0.006189   -0.143227
   156   -0.020263   -0.005117   -0.143828
   157    0.215665    0.000084   -0.315568
   158    0.099606   -0.020387   -0.148013
   159    0.099886    0.021646   -0.148105
   160   -0.362008    0.000012   -0.262926
   161   -0.494592   -0.085721   -0.154947
   162   -0.493422    0.088366   -0.156111
   163    0.300108   -0.000284   -0.265462
   164    0.433162   -0.087226   -0.155547
   165    0.432300    0.088992   -0.156376
   166   -0.268043    0.000106   -0.315708
* Maximum dynamic memory allocated : Node   40 =    33 MB
   167   -0.151871   -0.020385   -0.147899
* Maximum dynamic memory allocated : Node   41 =    33 MB
   168   -0.152032    0.021602   -0.147802
* Maximum dynamic memory allocated : Node   42 =    34 MB
   169    0.096273   -0.052932   -0.084183
* Maximum dynamic memory allocated : Node   43 =    25 MB
   170    0.175027    0.001730   -0.164307
* Maximum dynamic memory allocated : Node   44 =    22 MB
   171    0.103777    0.065323   -0.091493
* Maximum dynamic memory allocated : Node   45 =    30 MB
   172   -0.481647    0.030959   -0.077395
* Maximum dynamic memory allocated : Node   46 =    33 MB
   173   -0.321018    0.001991   -0.152173
* Maximum dynamic memory allocated : Node   47 =    33 MB
   174   -0.463290   -0.019929   -0.080860
* Maximum dynamic memory allocated : Node   48 =    33 MB
   175    0.424384    0.134506   -0.049379
* Maximum dynamic memory allocated : Node   49 =    33 MB
   176    0.292387    0.002267   -0.126696
* Maximum dynamic memory allocated : Node   50 =    33 MB
   177    0.408175   -0.125760   -0.048171
* Maximum dynamic memory allocated : Node   51 =    24 MB
   178   -0.163139    0.030389   -0.077599
* Maximum dynamic memory allocated : Node   52 =    22 MB
   179   -0.324875    0.001809   -0.152802
* Maximum dynamic memory allocated : Node   53 =    29 MB
   180   -0.181417   -0.019104   -0.081069
* Maximum dynamic memory allocated : Node   54 =    33 MB
   181   -0.037423   -0.052935   -0.084449
* Maximum dynamic memory allocated : Node   55 =    33 MB
   182   -0.116059    0.001721   -0.164547
* Maximum dynamic memory allocated : Node   56 =    33 MB
   183   -0.044904    0.065329   -0.091755
* Maximum dynamic memory allocated : Node   57 =    33 MB
----------------------------------------
* Maximum dynamic memory allocated : Node   58 =    31 MB
 Tot   -6.785356    0.242739   -1.242721
* Maximum dynamic memory allocated : Node   59 =    20 MB
----------------------------------------
* Maximum dynamic memory allocated : Node   60 =    21 MB
 Max   17.651717
* Maximum dynamic memory allocated : Node   61 =    29 MB
 Res    2.035405    sqrt( Sum f_i^2 / 3N )
* Maximum dynamic memory allocated : Node   62 =    33 MB
----------------------------------------
* Maximum dynamic memory allocated : Node   63 =    33 MB
 Max   17.651717    constrained
 
* Maximum dynamic memory allocated =    62 MB

coxmol: Writing XMOL coordinates into file IV.xyz                  
 siesta: ERROR: PDOS implemented only with diagon

siesta: Program's energy decomposition (eV):
siesta:-Eions   = -209125.473454
siesta: Ena     =   12459.347007
siesta: Ekin    =  115424.630018
siesta: Enl     =  -43538.795367
siesta: DEna    =     363.908178
siesta: DUscf   =      21.502834
siesta: DUext   =       0.000000
siesta: Exc     =  -71510.504711
siesta: eta*DQ  =       0.000000
siesta: Emadel  =       0.000000
siesta: Ekinion =       0.000000
siesta: Eharris = -195905.385494
siesta: Eso     =       0.000000
siesta: Etot    = -195905.385493
siesta: FreeEng = -195905.385493

siesta: Final energy (eV):
siesta:       Kinetic =  115424.630018
siesta:       Hartree =  538531.887721
siesta:    Ext. field =       0.000000
siesta:   Exch.-corr. =  -71510.504711
siesta:  Ion-electron =-1167068.903629
siesta:       Ion-ion =  388717.505107
siesta:       Ekinion =       0.000000
siesta:         Total = -195905.385493

siesta: Atomic forces (eV/Ang):
siesta:    1   -0.018949    0.000471    0.110297
siesta:    2   -0.018977    0.089838    0.110013
siesta:    3   -0.018981   -0.089099    0.109894
siesta:    4    0.245048    0.000513    0.113277
siesta:    5    0.107535    0.036155    0.113038
siesta:    6    0.107594   -0.035369    0.112871
siesta:    7   -0.299869    0.001105    0.135758
siesta:    8   -0.447271   -0.083854    0.135631
siesta:    9   -0.446622    0.085342    0.135327
siesta:   10    0.237080    0.000601    0.123867
siesta:   11    0.383739   -0.084148    0.123701
siesta:   12    0.383491    0.085006    0.123465
siesta:   13   -0.296666    0.000510    0.113177
siesta:   14   -0.159351    0.036189    0.112939
siesta:   15   -0.159372   -0.035453    0.112775
siesta:   16    0.092652   -0.053026    0.120064
siesta:   17    0.171316    0.001422    0.199933
siesta:   18    0.100134    0.065781    0.127152
siesta:   19   -0.442487    0.030888    0.111222
siesta:   20   -0.282160    0.001486    0.185657
siesta:   21   -0.424316   -0.019285    0.114266
siesta:   22    0.386580    0.134519    0.094260
siesta:   23    0.254656    0.001582    0.170925
siesta:   24    0.370476   -0.124948    0.092441
siesta:   25   -0.160169    0.030324    0.110048
siesta:   26   -0.321698    0.001359    0.184949
siesta:   27   -0.178351   -0.018520    0.113167
siesta:   28   -0.038575   -0.053020    0.119821
siesta:   29   -0.117131    0.001402    0.199506
siesta:   30   -0.045995    0.065793    0.126730
siesta:   31   -0.017716   -0.004112    0.317121
siesta:   32   -0.017665    0.010384    0.124731
siesta:   33   -0.018094   -0.005075    0.123629
siesta:   34    0.212084   -0.000654    0.333387
siesta:   35    0.095576   -0.019831    0.165126
siesta:   36    0.095568    0.021669    0.171279
siesta:   37   -0.323157   -0.000589    0.283384
siesta:   38   -0.455715   -0.085555    0.173188
siesta:   39   -0.453569    0.088448    0.171697
siesta:   40    0.257684   -0.002158    0.284280
siesta:   41    0.390557   -0.085613    0.171928
siesta:   42    0.388827    0.089035    0.168754
siesta:   43   -0.263355   -0.001112    0.327764
siesta:   44   -0.146833   -0.019291    0.158979
siesta:   45   -0.146654    0.021639    0.168471
siesta:   46    0.188710    0.062164    0.633813
siesta:   47    0.019034   -0.010160    0.748874
siesta:   48   -0.001118   -0.043963    0.525082
siesta:   49   -0.319362    0.091685    0.561172
siesta:   50   -0.372666   -0.011978    0.635065
siesta:   51   -0.418593   -0.070955    0.509435
siesta:   52    0.309150    0.132921    0.689157
siesta:   53    0.368918   -0.050682    0.505548
siesta:   54    0.326818   -0.073474    0.519293
siesta:   55   -0.211246    0.090535    0.549794
siesta:   56   -0.203912   -0.019612    0.639152
siesta:   57   -0.157750   -0.061896    0.513689
siesta:   58   -0.158811    0.061823    0.631985
siesta:   59    0.036913   -0.002879    0.756399
siesta:   60    0.058172   -0.050659    0.532086
siesta:   61   -0.013800    0.019920    2.009356
siesta:   62   -0.013827   -0.119432    1.810200
siesta:   63   -0.008122    0.101011    1.827151
siesta:   64    0.277215   -0.201394    2.240723
siesta:   65    0.337198    0.093244    2.088397
siesta:   66    0.117683    0.106276    1.751070
siesta:   67   -0.380843   -0.266182    2.334792
siesta:   68   -0.264191    0.150142    2.316664
siesta:   69   -0.331715    0.107092    1.596706
siesta:   70    0.337552   -0.182821    2.076958
siesta:   71    0.218651    0.066923    2.061036
siesta:   72    0.238989    0.107882    1.406786
siesta:   73   -0.328806   -0.216875    2.228583
siesta:   74   -0.387188    0.107530    2.074651
siesta:   75   -0.183751    0.106692    1.767686
siesta:   76    0.091687    0.159675   -2.684535
siesta:   77   -0.057812    0.052091   -2.590832
siesta:   78    0.016356   -0.210061   -2.623914
siesta:   79    0.406635    0.140749   -2.678841
siesta:   80    0.618849    1.666925    1.068323
siesta:   81    0.826965   -1.817318    1.135429
siesta:   82   -0.506095    0.131037   -2.558054
siesta:   83   -0.051135    1.969334    1.477787
siesta:   84   -0.323558   -2.080977    1.727045
siesta:   85   -0.275984    0.140779   -2.797409
siesta:   86   -0.974838    1.634872    0.774867
siesta:   87   -1.204088   -1.795779    0.861272
siesta:   88   -0.068388    0.159787   -2.671163
siesta:   89    0.050870    0.044440   -2.624731
siesta:   90   -0.022295   -0.202599   -2.657395
siesta:   91    4.229466   -0.033586   10.983783
siesta:   92   -3.860534   -0.056358   11.374807
siesta:   93    0.162783   -0.511135   12.794214
siesta:   94    8.344990    0.059072   -7.227997
siesta:   95   -8.190030    0.069831   -7.251522
siesta:   96   -2.072173   -0.121130   -0.040399
siesta:   97    2.006923   -0.132244    0.058460
siesta:   98  -17.614604    0.208980  -11.270140
siesta:   99   17.651717    0.237412  -11.533465
siesta:  100    0.055342   -0.079656   -1.490834
siesta:  101   -0.056158    0.677650   -4.940541
siesta:  102   10.524019   -0.112371   -6.049353
siesta:  103  -10.378818   -0.115144   -5.952490
siesta:  104   -0.733517    0.025671    6.543668
siesta:  105    3.780394    4.196355   -1.375172
siesta:  106    3.759018   -4.096404   -1.391035
siesta:  107   -4.594615    4.226681   -0.543465
siesta:  108   -4.615636   -4.313834   -0.527487
siesta:  109    0.168289    0.127915    0.687203
siesta:  110   -0.037977    0.010265    0.661031
siesta:  111    0.040019   -0.138541    0.695105
siesta:  112    0.102927    0.095281    0.072900
siesta:  113   -1.184750   -0.304227   -0.149020
siesta:  114   -0.965642    0.170735   -0.191657
siesta:  115    0.005008    0.069451   -0.520797
siesta:  116    1.142284   -0.471820   -0.030305
siesta:  117    0.873589    0.338449   -0.167653
siesta:  118   -0.545576    0.092010    0.153570
siesta:  119    0.693220   -0.334518    0.010049
siesta:  120    0.475564    0.197731   -0.032071
siesta:  121   -0.099127    0.128195    0.698713
siesta:  122    0.097703    0.012259    0.672360
siesta:  123    0.019669   -0.140778    0.706926
siesta:  124   -0.036263   -0.002515   -0.621869
siesta:  125   -0.036460   -0.095776   -0.420584
siesta:  126   -0.036088    0.099149   -0.397158
siesta:  127    0.233235   -0.222469   -0.644146
siesta:  128    0.304872    0.119585   -0.500252
siesta:  129    0.407775    0.111584   -0.515234
siesta:  130   -0.346759   -0.141310   -0.361975
siesta:  131   -0.213202    0.035991   -0.371127
siesta:  132    0.102716    0.121744   -0.294520
siesta:  133    0.243468   -0.151068   -0.350092
siesta:  134    0.110599    0.043085   -0.358402
siesta:  135   -0.260937    0.121958   -0.281159
siesta:  136   -0.261870   -0.229526   -0.620356
siesta:  137   -0.333823    0.126242   -0.476553
siesta:  138   -0.426679    0.112851   -0.489358
siesta:  139    0.104211    0.062213   -0.095130
siesta:  140    0.137324    0.000810   -0.341697
siesta:  141    0.118069   -0.054542   -0.117714
siesta:  142   -0.479142    0.088206   -0.163412
siesta:  143   -0.419940    0.007566   -0.479658
siesta:  144   -0.462840   -0.087260   -0.354023
siesta:  145    0.393963    0.118899   -0.190107
siesta:  146    0.428033   -0.005740   -0.398092
siesta:  147    0.386315   -0.106272   -0.408009
siesta:  148   -0.170499    0.087635   -0.160936
siesta:  149   -0.222644    0.011161   -0.496689
siesta:  150   -0.178694   -0.090166   -0.371028
siesta:  151   -0.045521    0.062229   -0.099220
siesta:  152   -0.079628   -0.000475   -0.345266
siesta:  153   -0.060346   -0.053286   -0.121289
siesta:  154   -0.020229    0.000219   -0.335697
siesta:  155   -0.020253    0.006189   -0.143227
siesta:  156   -0.020263   -0.005117   -0.143828
siesta:  157    0.215665    0.000084   -0.315568
siesta:  158    0.099606   -0.020387   -0.148013
siesta:  159    0.099886    0.021646   -0.148105
siesta:  160   -0.362008    0.000012   -0.262926
siesta:  161   -0.494592   -0.085721   -0.154947
siesta:  162   -0.493422    0.088366   -0.156111
siesta:  163    0.300108   -0.000284   -0.265462
siesta:  164    0.433162   -0.087226   -0.155547
siesta:  165    0.432300    0.088992   -0.156376
siesta:  166   -0.268043    0.000106   -0.315708
siesta:  167   -0.151871   -0.020385   -0.147899
siesta:  168   -0.152032    0.021602   -0.147802
siesta:  169    0.096273   -0.052932   -0.084183
siesta:  170    0.175027    0.001730   -0.164307
siesta:  171    0.103777    0.065323   -0.091493
siesta:  172   -0.481647    0.030959   -0.077395
siesta:  173   -0.321018    0.001991   -0.152173
siesta:  174   -0.463290   -0.019929   -0.080860
siesta:  175    0.424384    0.134506   -0.049379
siesta:  176    0.292387    0.002267   -0.126696
siesta:  177    0.408175   -0.125760   -0.048171
siesta:  178   -0.163139    0.030389   -0.077599
siesta:  179   -0.324875    0.001809   -0.152802
siesta:  180   -0.181417   -0.019104   -0.081069
siesta:  181   -0.037423   -0.052935   -0.084449
siesta:  182   -0.116059    0.001721   -0.164547
siesta:  183   -0.044904    0.065329   -0.091755
siesta: ----------------------------------------
siesta:  Tot   -6.785356    0.242739   -1.242721

siesta: Stress tensor (static) (eV/Ang**3):
siesta:     0.145804    0.000020   -0.000751
siesta:     0.000022    0.125510   -0.000426
siesta:    -0.000778   -0.000424    0.135771

siesta: Cell volume =       4335.151490 Ang**3

siesta: Pressure (static):
siesta:                Solid            Molecule  Units
siesta:          -0.00147789         -0.00085136  Ry/Bohr**3
siesta:          -0.13569485         -0.07816889  eV/Ang**3
siesta:        -217.40946447       -125.24172777  kBar

siesta: Total spin polarization (Qup-Qdown) =    0.000000
siesta: Spin vector =    0.000000    0.000000    0.000000
siesta: No SpinPolK block detected...

siesta: Electric dipole (a.u.)  =    0.000000    0.000000    6.992116
siesta: Electric dipole (Debye) =    0.000000    0.000000   17.772198
 
* Maximum dynamic memory allocated : Node    0 =    62 MB
* Maximum dynamic memory allocated : Node    1 =    34 MB
* Maximum dynamic memory allocated : Node    2 =    31 MB
* Maximum dynamic memory allocated : Node    3 =    20 MB
* Maximum dynamic memory allocated : Node    4 =    20 MB
* Maximum dynamic memory allocated : Node    5 =    29 MB
* Maximum dynamic memory allocated : Node    6 =    34 MB
* Maximum dynamic memory allocated : Node    7 =    34 MB
* Maximum dynamic memory allocated : Node    8 =    33 MB
* Maximum dynamic memory allocated : Node    9 =    34 MB
* Maximum dynamic memory allocated : Node   10 =    30 MB
* Maximum dynamic memory allocated : Node   11 =    20 MB
* Maximum dynamic memory allocated : Node   12 =    20 MB
* Maximum dynamic memory allocated : Node   13 =    29 MB
* Maximum dynamic memory allocated : Node   14 =    33 MB
* Maximum dynamic memory allocated : Node   15 =    33 MB
* Maximum dynamic memory allocated : Node   16 =    34 MB
* Maximum dynamic memory allocated : Node   17 =    33 MB
* Maximum dynamic memory allocated : Node   18 =    31 MB
* Maximum dynamic memory allocated : Node   19 =    20 MB
* Maximum dynamic memory allocated : Node   20 =    21 MB
* Maximum dynamic memory allocated : Node   21 =    29 MB
* Maximum dynamic memory allocated : Node   22 =    33 MB
* Maximum dynamic memory allocated : Node   23 =    34 MB
* Maximum dynamic memory allocated : Node   24 =    34 MB
* Maximum dynamic memory allocated : Node   25 =    34 MB
* Maximum dynamic memory allocated : Node   26 =    32 MB
* Maximum dynamic memory allocated : Node   27 =    22 MB
* Maximum dynamic memory allocated : Node   28 =    22 MB
* Maximum dynamic memory allocated : Node   29 =    30 MB
* Maximum dynamic memory allocated : Node   30 =    33 MB
* Maximum dynamic memory allocated : Node   31 =    33 MB
* Maximum dynamic memory allocated : Node   32 =    33 MB
* Maximum dynamic memory allocated : Node   33 =    34 MB
* Maximum dynamic memory allocated : Node   34 =    33 MB
* Maximum dynamic memory allocated : Node   35 =    25 MB
* Maximum dynamic memory allocated : Node   36 =    23 MB
* Maximum dynamic memory allocated : Node   37 =    30 MB
* Maximum dynamic memory allocated : Node   38 =    33 MB
* Maximum dynamic memory allocated : Node   39 =    33 MB
* Maximum memory occured during matrixMtoO                    

timer: CPU execution times:
timer:  Routine       Calls   Time/call    Tot.time        %
timer:  siesta            1  125603.519  125603.519   100.00
timer:  Setup             1  273230.068  273230.068   217.53
timer:  bands             1       0.059       0.059     0.00
timer:  writewave         1       0.116       0.116     0.00
timer:  KSV_init          1       0.039       0.039     0.00
timer:  IterMD            5   24951.752  124758.762    99.33
timer:  hsparse           6      14.589      87.534     0.07
timer:  overfsm          10       5.111      51.109     0.04
timer:  IterSCF         109    1142.481  124530.387    99.15
timer:  kinefsm          10       4.737      47.370     0.04
timer:  nlefsm           10     136.279    1362.793     1.08
timer:  DHSCF           113      99.630   11258.146     8.96
timer:  DHSCF1            1       5.959       5.959     0.00
timer:  DHSCF2            1      88.844      88.844     0.07
timer:  REORD          1556       0.011      17.305     0.01
timer:  POISON          114       1.280     145.869     0.12
timer:  DHSCF3          113      95.819   10827.526     8.62
timer:  rhoofd          113      30.600    3457.855     2.75
timer:  CELLXC          113       0.467      52.808     0.04
timer:  vmat            109      39.814    4339.698     3.46
timer:  emtrans         109    1015.696  110710.881    88.14
timer:  NEGFK           654     152.808   99936.483    79.57
timer:  NEGFK_su        654      29.819   19501.511    15.53
timer:  NEGFK_imag      624      25.628   15992.014    12.73
timer:  NEGFK_real      504     104.749   52793.251    42.03
timer:  NEGFK_col       624       2.082    1299.390     1.03
timer:  DHSCF4            5      63.636     318.182     0.25
timer:  dfscf             5      54.895     274.475     0.22
timer:  CURRENT          30      22.801     684.019     0.54
  
>> End of run:  17-JAN-2024  18:02:02
