ATOMS
H             0.00000000      0.00000000     -0.00998254             0.00000004     -0.04292939     -0.70580243
H             0.00000000      0.00000000      0.73998166             0.00000004     -0.04292939     -0.70580243
