ATOMS
H             0.00000000      0.00000000     -0.00998254             0.00024528      0.70710674     -0.00003457
H             0.00000000      0.00000000      0.73998166            -0.00024528     -0.70710674      0.00003457
