ATOMS
H             0.00000000      0.00000000     -0.00998254             0.00020467     -0.00003464     -0.70710675
H             0.00000000      0.00000000      0.73998166            -0.00020467      0.00003464      0.70710675
