     113
 i =        1, E =     -3690.6392362501
 Au         1.7870000000        1.2810000000        0.0000000000
 Au         0.3090000000        2.7590000000        2.0900000000
 Au         1.7870000000        1.2810000000        4.1800000000
 Au         0.3090000000        2.7590000000        6.2700000000
 Au         4.7430000000        1.2810000000        0.0000000000
 Au         3.2650000000        2.7590000000        2.0900000000
 Au         4.7430000000        1.2810000000        4.1800000000
 Au         3.2650000000        2.7590000000        6.2700000000
 Au         7.6990000000        1.2810000000        0.0000000000
 Au         6.2210000000        2.7590000000        2.0900000000
 Au         7.6990000000        1.2810000000        4.1800000000
 Au         6.2210000000        2.7590000000        6.2700000000
 Au         1.7870000000        4.2360000000        0.0000000000
 Au         0.3090000000        5.7140000000        2.0900000000
 Au         1.7870000000        4.2360000000        4.1800000000
 Au         0.3090000000        5.7140000000        6.2700000000
 Au         4.7430000000        4.2360000000        0.0000000000
 Au         3.2650000000        5.7140000000        2.0900000000
 Au         4.7430000000        4.2360000000        4.1800000000
 Au         3.2650000000        5.7140000000        6.2700000000
 Au         7.6990000000        4.2360000000        0.0000000000
 Au         6.2210000000        5.7140000000        2.0900000000
 Au         7.6990000000        4.2360000000        4.1800000000
 Au         6.2210000000        5.7140000000        6.2700000000
 Au         1.7870000000        7.1920000000        0.0000000000
 Au         0.3090000000        8.6700000000        2.0900000000
 Au         1.7870000000        7.1920000000        4.1800000000
 Au         0.3090000000        8.6700000000        6.2700000000
 Au         4.7430000000        7.1920000000        0.0000000000
 Au         3.2650000000        8.6700000000        2.0900000000
 Au         4.7430000000        7.1920000000        4.1800000000
 Au         3.2650000000        8.6700000000        6.2700000000
 Au         7.6990000000        7.1920000000        0.0000000000
 Au         6.2210000000        8.6700000000        2.0900000000
 Au         7.6990000000        7.1920000000        4.1800000000
 Au         6.2210000000        8.6700000000        6.2700000000
 Au         1.7870000000        1.2810000000        8.3600000000
 Au         1.7870000000        4.2360000000        8.3600000000
 Au         1.7870000000        7.1920000000        8.3600000000
 Au         4.7430000000        1.2810000000        8.3600000000
 Au         4.7430000000        4.2360000000        8.3600000000
 Au         4.7430000000        7.1920000000        8.3600000000
 Au         7.6990000000        1.2810000000        8.3600000000
 Au         7.6990000000        4.2360000000        8.3600000000
 Au         7.6990000000        7.1920000000        8.3600000000
 Au         0.3090000000        2.7590000000       10.4500000000
 Au         0.3090000000        5.7140000000       10.4500000000
 Au         0.3090000000        8.6700000000       10.4500000000
 Au         3.2650000000        2.7590000000       10.4500000000
 Au         3.2650000000        5.7140000000       10.4500000000
 Au         3.2650000000        8.6700000000       10.4500000000
 Au         6.2210000000        2.7590000000       10.4500000000
 Au         6.2210000000        5.7140000000       10.4500000000
 Au         6.2210000000        8.6700000000       10.4500000000
 Au         1.7542270242        4.2027766639       12.4615099142
 Au         1.7520843299        7.2262225194       12.4610590100
 Au         4.7773767238        4.1995695805       12.4614306164
 Au         4.7804961884        7.2279219959       12.4606037231
 Au         3.2692709042        5.7172944882       14.4464908310
 Au         3.4954195836        5.9349861534       17.1349395779
  H         3.2079396911        5.6585407384       18.9253271779
  H         3.3241218120        5.7706252188       19.7944954132
 Au         3.0458820978        5.5021117361       21.5896075102
 Au         3.2580512282        5.7072854814       24.2598041295
 Au         1.7525358176        4.2009868435       26.2596414338
 Au         1.7539844769        7.2265137416       26.2607154609
 Au         4.7776554719        4.2031290432       26.2604415943
 Au         4.7761767699        7.2251710645       26.2619509460
 Au         0.3090000000        2.7590000000       28.2700000000
 Au         0.3090000000        5.7140000000       28.2700000000
 Au         0.3090000000        8.6700000000       28.2700000000
 Au         3.2650000000        2.7590000000       28.2700000000
 Au         3.2650000000        5.7140000000       28.2700000000
 Au         3.2650000000        8.6700000000       28.2700000000
 Au         6.2210000000        2.7590000000       28.2700000000
 Au         6.2210000000        5.7140000000       28.2700000000
 Au         6.2210000000        8.6700000000       28.2700000000
 Au         1.7870000000        1.2810000000       30.3600000000
 Au         0.3090000000        2.7590000000       32.4500000000
 Au         1.7870000000        1.2810000000       34.5400000000
 Au         0.3090000000        2.7590000000       36.6300000000
 Au         4.7430000000        1.2810000000       30.3600000000
 Au         3.2650000000        2.7590000000       32.4500000000
 Au         4.7430000000        1.2810000000       34.5400000000
 Au         3.2650000000        2.7590000000       36.6300000000
 Au         7.6990000000        1.2810000000       30.3600000000
 Au         6.2210000000        2.7590000000       32.4500000000
 Au         7.6990000000        1.2810000000       34.5400000000
 Au         6.2210000000        2.7590000000       36.6300000000
 Au         1.7870000000        4.2360000000       30.3600000000
 Au         0.3090000000        5.7140000000       32.4500000000
 Au         1.7870000000        4.2360000000       34.5400000000
 Au         0.3090000000        5.7140000000       36.6300000000
 Au         4.7430000000        4.2360000000       30.3600000000
 Au         3.2650000000        5.7140000000       32.4500000000
 Au         4.7430000000        4.2360000000       34.5400000000
 Au         3.2650000000        5.7140000000       36.6300000000
 Au         7.6990000000        4.2360000000       30.3600000000
 Au         6.2210000000        5.7140000000       32.4500000000
 Au         7.6990000000        4.2360000000       34.5400000000
 Au         6.2210000000        5.7140000000       36.6300000000
 Au         1.7870000000        7.1920000000       30.3600000000
 Au         0.3090000000        8.6700000000       32.4500000000
 Au         1.7870000000        7.1920000000       34.5400000000
 Au         0.3090000000        8.6700000000       36.6300000000
 Au         4.7430000000        7.1920000000       30.3600000000
 Au         3.2650000000        8.6700000000       32.4500000000
 Au         4.7430000000        7.1920000000       34.5400000000
 Au         3.2650000000        8.6700000000       36.6300000000
 Au         7.6990000000        7.1920000000       30.3600000000
 Au         6.2210000000        8.6700000000       32.4500000000
 Au         7.6990000000        7.1920000000       34.5400000000
 Au         6.2210000000        8.6700000000       36.6300000000
     113
 i =        2, E =     -3690.6384612108
 Au         1.7870000000        1.2810000000        0.0000000000
 Au         0.3090000000        2.7590000000        2.0900000000
 Au         1.7870000000        1.2810000000        4.1800000000
 Au         0.3090000000        2.7590000000        6.2700000000
 Au         4.7430000000        1.2810000000        0.0000000000
 Au         3.2650000000        2.7590000000        2.0900000000
 Au         4.7430000000        1.2810000000        4.1800000000
 Au         3.2650000000        2.7590000000        6.2700000000
 Au         7.6990000000        1.2810000000        0.0000000000
 Au         6.2210000000        2.7590000000        2.0900000000
 Au         7.6990000000        1.2810000000        4.1800000000
 Au         6.2210000000        2.7590000000        6.2700000000
 Au         1.7870000000        4.2360000000        0.0000000000
 Au         0.3090000000        5.7140000000        2.0900000000
 Au         1.7870000000        4.2360000000        4.1800000000
 Au         0.3090000000        5.7140000000        6.2700000000
 Au         4.7430000000        4.2360000000        0.0000000000
 Au         3.2650000000        5.7140000000        2.0900000000
 Au         4.7430000000        4.2360000000        4.1800000000
 Au         3.2650000000        5.7140000000        6.2700000000
 Au         7.6990000000        4.2360000000        0.0000000000
 Au         6.2210000000        5.7140000000        2.0900000000
 Au         7.6990000000        4.2360000000        4.1800000000
 Au         6.2210000000        5.7140000000        6.2700000000
 Au         1.7870000000        7.1920000000        0.0000000000
 Au         0.3090000000        8.6700000000        2.0900000000
 Au         1.7870000000        7.1920000000        4.1800000000
 Au         0.3090000000        8.6700000000        6.2700000000
 Au         4.7430000000        7.1920000000        0.0000000000
 Au         3.2650000000        8.6700000000        2.0900000000
 Au         4.7430000000        7.1920000000        4.1800000000
 Au         3.2650000000        8.6700000000        6.2700000000
 Au         7.6990000000        7.1920000000        0.0000000000
 Au         6.2210000000        8.6700000000        2.0900000000
 Au         7.6990000000        7.1920000000        4.1800000000
 Au         6.2210000000        8.6700000000        6.2700000000
 Au         1.7870000000        1.2810000000        8.3600000000
 Au         1.7870000000        4.2360000000        8.3600000000
 Au         1.7870000000        7.1920000000        8.3600000000
 Au         4.7430000000        1.2810000000        8.3600000000
 Au         4.7430000000        4.2360000000        8.3600000000
 Au         4.7430000000        7.1920000000        8.3600000000
 Au         7.6990000000        1.2810000000        8.3600000000
 Au         7.6990000000        4.2360000000        8.3600000000
 Au         7.6990000000        7.1920000000        8.3600000000
 Au         0.3090000000        2.7590000000       10.4500000000
 Au         0.3090000000        5.7140000000       10.4500000000
 Au         0.3090000000        8.6700000000       10.4500000000
 Au         3.2650000000        2.7590000000       10.4500000000
 Au         3.2650000000        5.7140000000       10.4500000000
 Au         3.2650000000        8.6700000000       10.4500000000
 Au         6.2210000000        2.7590000000       10.4500000000
 Au         6.2210000000        5.7140000000       10.4500000000
 Au         6.2210000000        8.6700000000       10.4500000000
 Au         1.7466379473        4.1956668468       12.4709812566
 Au         1.7437495217        7.2330055638       12.4704061185
 Au         4.7842461923        4.1917549210       12.4710042505
 Au         4.7881087125        7.2360430419       12.4706676929
 Au         3.2675815309        5.7157612287       14.4393119048
 Au         3.4985275236        5.9379887673       17.1326402229
  H         3.2066916697        5.6573343698       18.9252395691
  H         3.3217021641        5.7682873725       19.7920571814
 Au         3.0498154907        5.5059017462       21.5840860245
 Au         3.2549058195        5.7042990025       24.2696395393
 Au         1.7469110014        4.1957529624       26.2484241750
 Au         1.7500927776        7.2319013592       26.2506779040
 Au         4.7830752743        4.1993794402       26.2502152319
 Au         4.7799994832        7.2289997416       26.2516371237
 Au         0.3090000000        2.7590000000       28.2700000000
 Au         0.3090000000        5.7140000000       28.2700000000
 Au         0.3090000000        8.6700000000       28.2700000000
 Au         3.2650000000        2.7590000000       28.2700000000
 Au         3.2650000000        5.7140000000       28.2700000000
 Au         3.2650000000        8.6700000000       28.2700000000
 Au         6.2210000000        2.7590000000       28.2700000000
 Au         6.2210000000        5.7140000000       28.2700000000
 Au         6.2210000000        8.6700000000       28.2700000000
 Au         1.7870000000        1.2810000000       30.3600000000
 Au         0.3090000000        2.7590000000       32.4500000000
 Au         1.7870000000        1.2810000000       34.5400000000
 Au         0.3090000000        2.7590000000       36.6300000000
 Au         4.7430000000        1.2810000000       30.3600000000
 Au         3.2650000000        2.7590000000       32.4500000000
 Au         4.7430000000        1.2810000000       34.5400000000
 Au         3.2650000000        2.7590000000       36.6300000000
 Au         7.6990000000        1.2810000000       30.3600000000
 Au         6.2210000000        2.7590000000       32.4500000000
 Au         7.6990000000        1.2810000000       34.5400000000
 Au         6.2210000000        2.7590000000       36.6300000000
 Au         1.7870000000        4.2360000000       30.3600000000
 Au         0.3090000000        5.7140000000       32.4500000000
 Au         1.7870000000        4.2360000000       34.5400000000
 Au         0.3090000000        5.7140000000       36.6300000000
 Au         4.7430000000        4.2360000000       30.3600000000
 Au         3.2650000000        5.7140000000       32.4500000000
 Au         4.7430000000        4.2360000000       34.5400000000
 Au         3.2650000000        5.7140000000       36.6300000000
 Au         7.6990000000        4.2360000000       30.3600000000
 Au         6.2210000000        5.7140000000       32.4500000000
 Au         7.6990000000        4.2360000000       34.5400000000
 Au         6.2210000000        5.7140000000       36.6300000000
 Au         1.7870000000        7.1920000000       30.3600000000
 Au         0.3090000000        8.6700000000       32.4500000000
 Au         1.7870000000        7.1920000000       34.5400000000
 Au         0.3090000000        8.6700000000       36.6300000000
 Au         4.7430000000        7.1920000000       30.3600000000
 Au         3.2650000000        8.6700000000       32.4500000000
 Au         4.7430000000        7.1920000000       34.5400000000
 Au         3.2650000000        8.6700000000       36.6300000000
 Au         7.6990000000        7.1920000000       30.3600000000
 Au         6.2210000000        8.6700000000       32.4500000000
 Au         7.6990000000        7.1920000000       34.5400000000
 Au         6.2210000000        8.6700000000       36.6300000000
     113
 i =        3, E =     -3690.6384539339
 Au         1.7870000000        1.2810000000        0.0000000000
 Au         0.3090000000        2.7590000000        2.0900000000
 Au         1.7870000000        1.2810000000        4.1800000000
 Au         0.3090000000        2.7590000000        6.2700000000
 Au         4.7430000000        1.2810000000        0.0000000000
 Au         3.2650000000        2.7590000000        2.0900000000
 Au         4.7430000000        1.2810000000        4.1800000000
 Au         3.2650000000        2.7590000000        6.2700000000
 Au         7.6990000000        1.2810000000        0.0000000000
 Au         6.2210000000        2.7590000000        2.0900000000
 Au         7.6990000000        1.2810000000        4.1800000000
 Au         6.2210000000        2.7590000000        6.2700000000
 Au         1.7870000000        4.2360000000        0.0000000000
 Au         0.3090000000        5.7140000000        2.0900000000
 Au         1.7870000000        4.2360000000        4.1800000000
 Au         0.3090000000        5.7140000000        6.2700000000
 Au         4.7430000000        4.2360000000        0.0000000000
 Au         3.2650000000        5.7140000000        2.0900000000
 Au         4.7430000000        4.2360000000        4.1800000000
 Au         3.2650000000        5.7140000000        6.2700000000
 Au         7.6990000000        4.2360000000        0.0000000000
 Au         6.2210000000        5.7140000000        2.0900000000
 Au         7.6990000000        4.2360000000        4.1800000000
 Au         6.2210000000        5.7140000000        6.2700000000
 Au         1.7870000000        7.1920000000        0.0000000000
 Au         0.3090000000        8.6700000000        2.0900000000
 Au         1.7870000000        7.1920000000        4.1800000000
 Au         0.3090000000        8.6700000000        6.2700000000
 Au         4.7430000000        7.1920000000        0.0000000000
 Au         3.2650000000        8.6700000000        2.0900000000
 Au         4.7430000000        7.1920000000        4.1800000000
 Au         3.2650000000        8.6700000000        6.2700000000
 Au         7.6990000000        7.1920000000        0.0000000000
 Au         6.2210000000        8.6700000000        2.0900000000
 Au         7.6990000000        7.1920000000        4.1800000000
 Au         6.2210000000        8.6700000000        6.2700000000
 Au         1.7870000000        1.2810000000        8.3600000000
 Au         1.7870000000        4.2360000000        8.3600000000
 Au         1.7870000000        7.1920000000        8.3600000000
 Au         4.7430000000        1.2810000000        8.3600000000
 Au         4.7430000000        4.2360000000        8.3600000000
 Au         4.7430000000        7.1920000000        8.3600000000
 Au         7.6990000000        1.2810000000        8.3600000000
 Au         7.6990000000        4.2360000000        8.3600000000
 Au         7.6990000000        7.1920000000        8.3600000000
 Au         0.3090000000        2.7590000000       10.4500000000
 Au         0.3090000000        5.7140000000       10.4500000000
 Au         0.3090000000        8.6700000000       10.4500000000
 Au         3.2650000000        2.7590000000       10.4500000000
 Au         3.2650000000        5.7140000000       10.4500000000
 Au         3.2650000000        8.6700000000       10.4500000000
 Au         6.2210000000        2.7590000000       10.4500000000
 Au         6.2210000000        5.7140000000       10.4500000000
 Au         6.2210000000        8.6700000000       10.4500000000
 Au         1.7453985642        4.1945935035       12.4711114905
 Au         1.7424431871        7.2337139106       12.4706516049
 Au         4.7849566220        4.1906923966       12.4712441036
 Au         4.7889064551        7.2371074689       12.4712580370
 Au         3.2669715153        5.7152848917       14.4380065117
 Au         3.5002229818        5.9396248368       17.1282235669
  H         3.2058789781        5.6565497016       18.9221410524
  H         3.3204583232        5.7670861117       19.7911223637
 Au         3.0527577314        5.5087383044       21.5885569982
 Au         3.2526953603        5.7022085398       24.2657015529
 Au         1.7453523620        4.1943314280       26.2487843626
 Au         1.7494690903        7.2330690612       26.2509022206
 Au         4.7841977302        4.1988100127       26.2504164810
 Au         4.7803739282        7.2293875788       26.2514145554
 Au         0.3090000000        2.7590000000       28.2700000000
 Au         0.3090000000        5.7140000000       28.2700000000
 Au         0.3090000000        8.6700000000       28.2700000000
 Au         3.2650000000        2.7590000000       28.2700000000
 Au         3.2650000000        5.7140000000       28.2700000000
 Au         3.2650000000        8.6700000000       28.2700000000
 Au         6.2210000000        2.7590000000       28.2700000000
 Au         6.2210000000        5.7140000000       28.2700000000
 Au         6.2210000000        8.6700000000       28.2700000000
 Au         1.7870000000        1.2810000000       30.3600000000
 Au         0.3090000000        2.7590000000       32.4500000000
 Au         1.7870000000        1.2810000000       34.5400000000
 Au         0.3090000000        2.7590000000       36.6300000000
 Au         4.7430000000        1.2810000000       30.3600000000
 Au         3.2650000000        2.7590000000       32.4500000000
 Au         4.7430000000        1.2810000000       34.5400000000
 Au         3.2650000000        2.7590000000       36.6300000000
 Au         7.6990000000        1.2810000000       30.3600000000
 Au         6.2210000000        2.7590000000       32.4500000000
 Au         7.6990000000        1.2810000000       34.5400000000
 Au         6.2210000000        2.7590000000       36.6300000000
 Au         1.7870000000        4.2360000000       30.3600000000
 Au         0.3090000000        5.7140000000       32.4500000000
 Au         1.7870000000        4.2360000000       34.5400000000
 Au         0.3090000000        5.7140000000       36.6300000000
 Au         4.7430000000        4.2360000000       30.3600000000
 Au         3.2650000000        5.7140000000       32.4500000000
 Au         4.7430000000        4.2360000000       34.5400000000
 Au         3.2650000000        5.7140000000       36.6300000000
 Au         7.6990000000        4.2360000000       30.3600000000
 Au         6.2210000000        5.7140000000       32.4500000000
 Au         7.6990000000        4.2360000000       34.5400000000
 Au         6.2210000000        5.7140000000       36.6300000000
 Au         1.7870000000        7.1920000000       30.3600000000
 Au         0.3090000000        8.6700000000       32.4500000000
 Au         1.7870000000        7.1920000000       34.5400000000
 Au         0.3090000000        8.6700000000       36.6300000000
 Au         4.7430000000        7.1920000000       30.3600000000
 Au         3.2650000000        8.6700000000       32.4500000000
 Au         4.7430000000        7.1920000000       34.5400000000
 Au         3.2650000000        8.6700000000       36.6300000000
 Au         7.6990000000        7.1920000000       30.3600000000
 Au         6.2210000000        8.6700000000       32.4500000000
 Au         7.6990000000        7.1920000000       34.5400000000
 Au         6.2210000000        8.6700000000       36.6300000000
     113
 i =        4, E =     -3690.6384965738
 Au         1.7870000000        1.2810000000        0.0000000000
 Au         0.3090000000        2.7590000000        2.0900000000
 Au         1.7870000000        1.2810000000        4.1800000000
 Au         0.3090000000        2.7590000000        6.2700000000
 Au         4.7430000000        1.2810000000        0.0000000000
 Au         3.2650000000        2.7590000000        2.0900000000
 Au         4.7430000000        1.2810000000        4.1800000000
 Au         3.2650000000        2.7590000000        6.2700000000
 Au         7.6990000000        1.2810000000        0.0000000000
 Au         6.2210000000        2.7590000000        2.0900000000
 Au         7.6990000000        1.2810000000        4.1800000000
 Au         6.2210000000        2.7590000000        6.2700000000
 Au         1.7870000000        4.2360000000        0.0000000000
 Au         0.3090000000        5.7140000000        2.0900000000
 Au         1.7870000000        4.2360000000        4.1800000000
 Au         0.3090000000        5.7140000000        6.2700000000
 Au         4.7430000000        4.2360000000        0.0000000000
 Au         3.2650000000        5.7140000000        2.0900000000
 Au         4.7430000000        4.2360000000        4.1800000000
 Au         3.2650000000        5.7140000000        6.2700000000
 Au         7.6990000000        4.2360000000        0.0000000000
 Au         6.2210000000        5.7140000000        2.0900000000
 Au         7.6990000000        4.2360000000        4.1800000000
 Au         6.2210000000        5.7140000000        6.2700000000
 Au         1.7870000000        7.1920000000        0.0000000000
 Au         0.3090000000        8.6700000000        2.0900000000
 Au         1.7870000000        7.1920000000        4.1800000000
 Au         0.3090000000        8.6700000000        6.2700000000
 Au         4.7430000000        7.1920000000        0.0000000000
 Au         3.2650000000        8.6700000000        2.0900000000
 Au         4.7430000000        7.1920000000        4.1800000000
 Au         3.2650000000        8.6700000000        6.2700000000
 Au         7.6990000000        7.1920000000        0.0000000000
 Au         6.2210000000        8.6700000000        2.0900000000
 Au         7.6990000000        7.1920000000        4.1800000000
 Au         6.2210000000        8.6700000000        6.2700000000
 Au         1.7870000000        1.2810000000        8.3600000000
 Au         1.7870000000        4.2360000000        8.3600000000
 Au         1.7870000000        7.1920000000        8.3600000000
 Au         4.7430000000        1.2810000000        8.3600000000
 Au         4.7430000000        4.2360000000        8.3600000000
 Au         4.7430000000        7.1920000000        8.3600000000
 Au         7.6990000000        1.2810000000        8.3600000000
 Au         7.6990000000        4.2360000000        8.3600000000
 Au         7.6990000000        7.1920000000        8.3600000000
 Au         0.3090000000        2.7590000000       10.4500000000
 Au         0.3090000000        5.7140000000       10.4500000000
 Au         0.3090000000        8.6700000000       10.4500000000
 Au         3.2650000000        2.7590000000       10.4500000000
 Au         3.2650000000        5.7140000000       10.4500000000
 Au         3.2650000000        8.6700000000       10.4500000000
 Au         6.2210000000        2.7590000000       10.4500000000
 Au         6.2210000000        5.7140000000       10.4500000000
 Au         6.2210000000        8.6700000000       10.4500000000
 Au         1.7445808489        4.1939540235       12.4701895500
 Au         1.7416437292        7.2338063785       12.4698681091
 Au         4.7850228275        4.1902167758       12.4704150435
 Au         4.7889936844        7.2375475689       12.4708208379
 Au         3.2659743920        5.7145051032       14.4347474031
 Au         3.5027505115        5.9420625209       17.1244479762
  H         3.2053030260        5.6559935685       18.9185851711
  H         3.3179516577        5.7646660573       19.7880347778
 Au         3.0571903942        5.5130122454       21.5893895506
 Au         3.2498825373        5.6995566524       24.2656907720
 Au         1.7442910557        4.1934268190       26.2500229533
 Au         1.7495810369        7.2334598682       26.2517233915
 Au         4.7844967920        4.1989880595       26.2512300273
 Au         4.7798073986        7.2288453505       26.2516245839
 Au         0.3090000000        2.7590000000       28.2700000000
 Au         0.3090000000        5.7140000000       28.2700000000
 Au         0.3090000000        8.6700000000       28.2700000000
 Au         3.2650000000        2.7590000000       28.2700000000
 Au         3.2650000000        5.7140000000       28.2700000000
 Au         3.2650000000        8.6700000000       28.2700000000
 Au         6.2210000000        2.7590000000       28.2700000000
 Au         6.2210000000        5.7140000000       28.2700000000
 Au         6.2210000000        8.6700000000       28.2700000000
 Au         1.7870000000        1.2810000000       30.3600000000
 Au         0.3090000000        2.7590000000       32.4500000000
 Au         1.7870000000        1.2810000000       34.5400000000
 Au         0.3090000000        2.7590000000       36.6300000000
 Au         4.7430000000        1.2810000000       30.3600000000
 Au         3.2650000000        2.7590000000       32.4500000000
 Au         4.7430000000        1.2810000000       34.5400000000
 Au         3.2650000000        2.7590000000       36.6300000000
 Au         7.6990000000        1.2810000000       30.3600000000
 Au         6.2210000000        2.7590000000       32.4500000000
 Au         7.6990000000        1.2810000000       34.5400000000
 Au         6.2210000000        2.7590000000       36.6300000000
 Au         1.7870000000        4.2360000000       30.3600000000
 Au         0.3090000000        5.7140000000       32.4500000000
 Au         1.7870000000        4.2360000000       34.5400000000
 Au         0.3090000000        5.7140000000       36.6300000000
 Au         4.7430000000        4.2360000000       30.3600000000
 Au         3.2650000000        5.7140000000       32.4500000000
 Au         4.7430000000        4.2360000000       34.5400000000
 Au         3.2650000000        5.7140000000       36.6300000000
 Au         7.6990000000        4.2360000000       30.3600000000
 Au         6.2210000000        5.7140000000       32.4500000000
 Au         7.6990000000        4.2360000000       34.5400000000
 Au         6.2210000000        5.7140000000       36.6300000000
 Au         1.7870000000        7.1920000000       30.3600000000
 Au         0.3090000000        8.6700000000       32.4500000000
 Au         1.7870000000        7.1920000000       34.5400000000
 Au         0.3090000000        8.6700000000       36.6300000000
 Au         4.7430000000        7.1920000000       30.3600000000
 Au         3.2650000000        8.6700000000       32.4500000000
 Au         4.7430000000        7.1920000000       34.5400000000
 Au         3.2650000000        8.6700000000       36.6300000000
 Au         7.6990000000        7.1920000000       30.3600000000
 Au         6.2210000000        8.6700000000       32.4500000000
 Au         7.6990000000        7.1920000000       34.5400000000
 Au         6.2210000000        8.6700000000       36.6300000000
     113
 i =        5, E =     -3690.6386457895
 Au         1.7870000000        1.2810000000        0.0000000000
 Au         0.3090000000        2.7590000000        2.0900000000
 Au         1.7870000000        1.2810000000        4.1800000000
 Au         0.3090000000        2.7590000000        6.2700000000
 Au         4.7430000000        1.2810000000        0.0000000000