 DBCSR| CPU Multiplication driver                                           BLAS
 DBCSR| Multrec recursion limit                                              512
 DBCSR| Multiplication stack size                                           1000
 DBCSR| Maximum elements for images                                    UNLIMITED
 DBCSR| Multiplicative factor virtual images                                   1
 DBCSR| Use multiplication densification                                       T
 DBCSR| Multiplication size stacks                                             3
 DBCSR| Use memory pool for CPU allocation                                     F
 DBCSR| Number of 3D layers                                               SINGLE
 DBCSR| Use MPI memory allocation                                              F
 DBCSR| Use RMA algorithm                                                      F
 DBCSR| Use Communication thread                                               T
 DBCSR| Communication thread load                                             83
 DBCSR| MPI: My node id                                                        0
 DBCSR| MPI: Number of nodes                                                 192
 DBCSR| OMP: Current number of threads                                         2
 DBCSR| OMP: Max number of threads                                             2
 DBCSR| Split modifier for TAS multiplication algorithm                  1.0E+00


  **** **** ******  **  PROGRAM STARTED AT               2023-11-28 08:42:53.287
 ***** ** ***  *** **   PROGRAM STARTED ON                             nid006512
 **    ****   ******    PROGRAM STARTED BY                                cahart
 ***** **    ** ** **   PROGRAM PROCESS ID                                207941
  **** **  *******  **  PROGRAM STARTED IN /mnt/lustre/a2fs-work2/work/e05/e05/c
                                           ahart/postdoc/transport/cp2k-smeagol-
                                           examples/au-h2/cp2k-smeagol/geo_opt/k
                                           points-3-3-20_omp-2_ParallelOverKNum-
                                           3_contour-double_dynamic-14_2/1.9

 CP2K| version string:                 CP2K version 2022.1 (Development Version)
 CP2K| source code revision number:                                  git:3a6d0d5
 CP2K| cp2kflags: omp libint fftw3 libxc elpa parallel mpi3 scalapack mkl       
 CP2K| is freely available from                            https://www.cp2k.org/
 CP2K| Program compiled at                          Fri  3 Nov 17:12:21 GMT 2023
 CP2K| Program compiled on                                                  ln01
 CP2K| Program compiled for                                                local
 CP2K| Data directory path    /work/e05/e05/cahart/smeagol/smgl/cp2k-private-ser
 CP2K| Input file name                                                4_1.9V.inp

 GLOBAL| Force Environment number                                              1
 GLOBAL| Basis set file name                                        BASIS_MOLOPT
 GLOBAL| Potential file name                                      GTH_POTENTIALS
 GLOBAL| MM Potential file name                                     MM_POTENTIAL
 GLOBAL| Coordinate file name                                             em.xyz
 GLOBAL| Method name                                                        CP2K
 GLOBAL| Project name                                                       1.9V
 GLOBAL| Run type                                                        GEO_OPT
 GLOBAL| FFT library                                                       FFTW3
 GLOBAL| Diagonalization library                                            ELPA
 GLOBAL| Minimum number of eigenvectors for ELPA usage                        16
 GLOBAL| Orthonormality check for eigenvectors                          DISABLED
 GLOBAL| Matrix multiplication library                                 ScaLAPACK
 GLOBAL| All-to-all communication in single precision                          F
 GLOBAL| FFTs using library dependent lengths                                  T
 GLOBAL| Grid backend                                                       AUTO
 GLOBAL| Global print level                                               MEDIUM
 GLOBAL| MPI I/O enabled                                                       T
 GLOBAL| Total number of message passing processes                           192
 GLOBAL| Number of threads for this process                                    2
 GLOBAL| This output is from process                                           0
 GLOBAL| Stack size for threads created by OpenMP (OMP_STACKSIZE)        default
 GLOBAL| CPU model name                          AMD EPYC 7742 64-Core Processor
 GLOBAL| CPUID                                                              1002

 MEMORY| system memory details [Kb]
 MEMORY|                        rank 0           min           max       average
 MEMORY| MemTotal            527583076     527583076     527583076     527583076
 MEMORY| MemFree             502094804     502094560     506902280     505016396
 MEMORY| Buffers                     0             0             0             0
 MEMORY| Cached                5616028       1429072       5616028       2834272
 MEMORY| Slab                  3280492       2805224       3280492       2970248
 MEMORY| SReclaimable           138188        114116        138188        122802
 MEMORY| MemLikelyFree       507849020     507624644     508447456     507973471


 *** Fundamental physical constants (SI units) ***

 *** Literature: B. J. Mohr and B. N. Taylor,
 ***             CODATA recommended values of the fundamental physical
 ***             constants: 2006, Web Version 5.1
 ***             http://physics.nist.gov/constants

 Speed of light in vacuum [m/s]                             2.99792458000000E+08
 Magnetic constant or permeability of vacuum [N/A**2]       1.25663706143592E-06
 Electric constant or permittivity of vacuum [F/m]          8.85418781762039E-12
 Planck constant (h) [J*s]                                  6.62606896000000E-34
 Planck constant (h-bar) [J*s]                              1.05457162825177E-34
 Elementary charge [C]                                      1.60217648700000E-19
 Electron mass [kg]                                         9.10938215000000E-31
 Electron g factor [ ]                                     -2.00231930436220E+00
 Proton mass [kg]                                           1.67262163700000E-27
 Fine-structure constant                                    7.29735253760000E-03
 Rydberg constant [1/m]                                     1.09737315685270E+07
 Avogadro constant [1/mol]                                  6.02214179000000E+23
 Boltzmann constant [J/K]                                   1.38065040000000E-23
 Atomic mass unit [kg]                                      1.66053878200000E-27
 Bohr radius [m]                                            5.29177208590000E-11

 *** Conversion factors ***

 [u] -> [a.u.]                                              1.82288848426455E+03
 [Angstrom] -> [Bohr] = [a.u.]                              1.88972613288564E+00
 [a.u.] = [Bohr] -> [Angstrom]                              5.29177208590000E-01
 [a.u.] -> [s]                                              2.41888432650478E-17
 [a.u.] -> [fs]                                             2.41888432650478E-02
 [a.u.] -> [J]                                              4.35974393937059E-18
 [a.u.] -> [N]                                              8.23872205491840E-08
 [a.u.] -> [K]                                              3.15774647902944E+05
 [a.u.] -> [kJ/mol]                                         2.62549961709828E+03
 [a.u.] -> [kcal/mol]                                       6.27509468713739E+02
 [a.u.] -> [Pa]                                             2.94210107994716E+13
 [a.u.] -> [bar]                                            2.94210107994716E+08
 [a.u.] -> [atm]                                            2.90362800883016E+08
 [a.u.] -> [eV]                                             2.72113838565563E+01
 [a.u.] -> [Hz]                                             6.57968392072181E+15
 [a.u.] -> [1/cm] (wave numbers)                            2.19474631370540E+05
 [a.u./Bohr**2] -> [1/cm]                                   5.14048714338585E+03
 

 CELL_TOP| Volume [angstrom^3]:                                      3044.391638
 CELL_TOP| Vector a [angstrom     8.867     0.000     0.000   |a| =     8.867120
 CELL_TOP| Vector b [angstrom     0.000     8.867     0.000   |b| =     8.867120
 CELL_TOP| Vector c [angstrom     0.000     0.000    38.720   |c| =    38.720000
 CELL_TOP| Angle (b,c), alpha [degree]:                                90.000000
 CELL_TOP| Angle (a,c), beta  [degree]:                                90.000000
 CELL_TOP| Angle (a,b), gamma [degree]:                                90.000000
 CELL_TOP| Numerically orthorhombic:                                         YES
 CELL_TOP| Periodicity                                                       XYZ

 GENERATE|  Preliminary Number of Bonds generated:                             0
 GENERATE|  Achieved consistency in connectivity generation.

 CELL| Volume [angstrom^3]:                                          3044.391638
 CELL| Vector a [angstrom]:       8.867     0.000     0.000   |a| =     8.867120
 CELL| Vector b [angstrom]:       0.000     8.867     0.000   |b| =     8.867120
 CELL| Vector c [angstrom]:       0.000     0.000    38.720   |c| =    38.720000
 CELL| Angle (b,c), alpha [degree]:                                    90.000000
 CELL| Angle (a,c), beta  [degree]:                                    90.000000
 CELL| Angle (a,b), gamma [degree]:                                    90.000000
 CELL| Numerically orthorhombic:                                             YES
 CELL| Periodicity                                                           XYZ

 CELL_REF| Volume [angstrom^3]:                                      3044.391638
 CELL_REF| Vector a [angstrom     8.867     0.000     0.000   |a| =     8.867120
 CELL_REF| Vector b [angstrom     0.000     8.867     0.000   |b| =     8.867120
 CELL_REF| Vector c [angstrom     0.000     0.000    38.720   |c| =    38.720000
 CELL_REF| Angle (b,c), alpha [degree]:                                90.000000
 CELL_REF| Angle (a,c), beta  [degree]:                                90.000000
 CELL_REF| Angle (a,b), gamma [degree]:                                90.000000
 CELL_REF| Numerically orthorhombic:                                         YES
 CELL_REF| Periodicity                                                       XYZ

 *** WARNING in cryssym.F:165 :: Symmetry library SPGLIB not available ***


 *******************************************************************************
                                    Kpoints
 *******************************************************************************
 BRILLOUIN| K-point scheme                                        Monkhorst-Pack
 BRILLOUIN| K-Point grid                                             3    3    1
 BRILLOUIN| Accuracy in Symmetry determination                      0.100000E-07
 BRILLOUIN| K-Point point group symmetrization                               OFF
 BRILLOUIN| Wavefunction type                                            COMPLEX
 BRILLOUIN| Use full k-point grid     
 BRILLOUIN| List of Kpoints [2 Pi/Bohr]                                        9
 BRILLOUIN| Number           Weight            X              Y              Z
 BRILLOUIN|     1           0.11111       -0.33333       -0.33333        0.00000
 BRILLOUIN|     2           0.11111       -0.33333        0.00000        0.00000
 BRILLOUIN|     3           0.11111       -0.33333        0.33333        0.00000
 BRILLOUIN|     4           0.11111        0.00000       -0.33333        0.00000
 BRILLOUIN|     5           0.11111        0.00000        0.00000        0.00000
 BRILLOUIN|     6           0.11111        0.00000        0.33333        0.00000
 BRILLOUIN|     7           0.11111        0.33333       -0.33333        0.00000
 BRILLOUIN|     8           0.11111        0.33333        0.00000        0.00000
 BRILLOUIN|     9           0.11111        0.33333        0.33333        0.00000
 *******************************************************************************

 *******************************************************************************
 *******************************************************************************
 **                                                                           **
 **     #####                         ##              ##                      **
 **    ##   ##            ##          ##              ##                      **
 **   ##     ##                       ##            ######                    **
 **   ##     ##  ##   ##  ##   #####  ##  ##   ####   ##    #####    #####    **
 **   ##     ##  ##   ##  ##  ##      ## ##   ##      ##   ##   ##  ##   ##   **
 **   ##  ## ##  ##   ##  ##  ##      ####     ###    ##   ######   ######    **
 **    ##  ###   ##   ##  ##  ##      ## ##      ##   ##   ##       ##        **
 **     #######   #####   ##   #####  ##  ##  ####    ##    #####   ##        **
 **           ##                                                    ##        **
 **                                                                           **
 **                                                ... make the atoms dance   **
 **                                                                           **
 **            Copyright (C) by CP2K developers group (2000-2022)             **
 **                      J. Chem. Phys. 152, 194103 (2020)                    **
 **                                                                           **
 *******************************************************************************

 DFT| Spin restricted Kohn-Sham (RKS) calculation                            RKS
 DFT| Multiplicity                                                             2
 DFT| Number of spin states                                                    1
 DFT| Charge                                                                   0
 DFT| Self-interaction correction (SIC)                                       NO
 DFT| Cutoffs: density                                              1.000000E-10
 DFT|          gradient                                             1.000000E-10
 DFT|          tau                                                  1.000000E-10
 DFT|          cutoff_smoothing_range                               0.000000E+00
 DFT| XC density smoothing                                                  NONE
 DFT| XC derivatives                                                          PW

 FUNCTIONAL| PBE:
 FUNCTIONAL| J.P.Perdew, K.Burke, M.Ernzerhof, Phys. Rev. Letter, vol. 77, n 18,
 FUNCTIONAL|  pp. 3865-3868, (1996){spin unpolarized}                           


 QS| Method:                                                                 GPW
 QS| Density plane wave grid type                        NON-SPHERICAL FULLSPACE
 QS| Number of grid levels:                                                    4
 QS| Density cutoff [a.u.]:                                                300.0
 QS| Multi grid cutoff [a.u.]: 1) grid level                               300.0
 QS|                           2) grid level                               100.0
 QS|                           3) grid level                                33.3
 QS|                           4) grid level                                11.1
 QS| Grid level progression factor:                                          3.0
 QS| Relative density cutoff [a.u.]:                                        30.0
 QS| Interaction thresholds: eps_pgf_orb:                                1.0E-05
 QS|                         eps_filter_matrix:                          0.0E+00
 QS|                         eps_core_charge:                            1.0E-12
 QS|                         eps_rho_gspace:                             1.0E-10
 QS|                         eps_rho_rspace:                             1.0E-10
 QS|                         eps_gvg_rspace:                             1.0E-05
 QS|                         eps_ppl:                                    1.0E-02
 QS|                         eps_ppnl:                                   1.0E-07


 ATOMIC KIND INFORMATION

  1. Atomic kind: Au                                    Number of atoms:     111

     Orbital Basis Set                                         SZV-MOLOPT-SR-GTH

       Number of orbital shell sets:                                           1
       Number of orbital shells:                                               3
       Number of primitive Cartesian functions:                                5
       Number of Cartesian basis functions:                                   10
       Number of spherical basis functions:                                    9
       Norm type:                                                              2

       Normalised Cartesian orbitals:

                        Set   Shell   Orbital            Exponent    Coefficient

                          1       1    2s                2.950008       0.074626
                                                         1.563057      -0.007898
                                                         0.666664      -0.297688
                                                         0.251083       0.136809
                                                         0.081714       0.088198

                          1       2    3px               2.950008       0.148824
                                                         1.563057       0.025430
                                                         0.666664      -0.123003
                                                         0.251083       0.033648
                                                         0.081714       0.059008
                          1       2    3py               2.950008       0.148824
                                                         1.563057       0.025430
                                                         0.666664      -0.123003
                                                         0.251083       0.033648
                                                         0.081714       0.059008
                          1       2    3pz               2.950008       0.148824
                                                         1.563057       0.025430
                                                         0.666664      -0.123003
                                                         0.251083       0.033648
                                                         0.081714       0.059008

                          1       3    4dx2              2.950008      -0.139595
                                                         1.563057       1.319655
                                                         0.666664       0.377081
                                                         0.251083       0.046872
                                                         0.081714       0.001393
                          1       3    4dxy              2.950008      -0.241786
                                                         1.563057       2.285709
                                                         0.666664       0.653124
                                                         0.251083       0.081185
                                                         0.081714       0.002412
                          1       3    4dxz              2.950008      -0.241786
                                                         1.563057       2.285709
                                                         0.666664       0.653124
                                                         0.251083       0.081185
                                                         0.081714       0.002412
                          1       3    4dy2              2.950008      -0.139595
                                                         1.563057       1.319655
                                                         0.666664       0.377081
                                                         0.251083       0.046872
                                                         0.081714       0.001393
                          1       3    4dyz              2.950008      -0.241786
                                                         1.563057       2.285709
                                                         0.666664       0.653124
                                                         0.251083       0.081185
                                                         0.081714       0.002412
                          1       3    4dz2              2.950008      -0.139595
                                                         1.563057       1.319655
                                                         0.666664       0.377081
                                                         0.251083       0.046872
                                                         0.081714       0.001393

       Atomic covalent radius [Angstrom]:                                  1.340

       Atomic van der Waals radius [Angstrom]:                             1.660

     GTH Potential information for                                   GTH-PBE-q11

       Description:                       Goedecker-Teter-Hutter pseudopotential
                                           Goedecker et al., PRB 54, 1703 (1996)
                                          Hartwigsen et al., PRB 58, 3641 (1998)
                                                      Krack, TCA 114, 145 (2005)

       Gaussian exponent of the core charge distribution:               1.436369
       Electronic configuration (s p d ...):                           1   0  10

       Parameters of the local part of the GTH pseudopotential:

                          rloc        C1          C2          C3          C4
                        0.590000   10.517179

       Parameters of the non-local part of the GTH pseudopotential:

                   l      r(l)      h(i,j,l)

                   0    0.543847    5.786811   -2.250680
                                   -2.250680    2.905615
                   1    0.609173    4.284049   -4.071285
                                   -4.071285    4.817210
                   2    0.437309   -7.403281    3.010193
                                    3.010193   -3.413238

  2. Atomic kind: H                                     Number of atoms:       2

     Orbital Basis Set                                        DZVP-MOLOPT-SR-GTH

       Number of orbital shell sets:                                           1
       Number of orbital shells:                                               3
       Number of primitive Cartesian functions:                                5
       Number of Cartesian basis functions:                                    5
       Number of spherical basis functions:                                    5
       Norm type:                                                              2

       Normalised Cartesian orbitals:

                        Set   Shell   Orbital            Exponent    Coefficient

                          1       1    2s               10.068468      -0.133023
                                                         2.680223      -0.177618
                                                         0.791502      -0.258419
                                                         0.239116      -0.107525
                                                         0.082193      -0.014019

                          1       2    3s               10.068468       0.344673
                                                         2.680223       1.819821
                                                         0.791502      -0.999069
                                                         0.239116       0.017430
                                                         0.082193       0.082660

                          1       3    3px              10.068468       0.155326
                                                         2.680223       0.367157
                                                         0.791502       0.311480
                                                         0.239116       0.080105
                                                         0.082193       0.033440
                          1       3    3py              10.068468       0.155326
                                                         2.680223       0.367157
                                                         0.791502       0.311480
                                                         0.239116       0.080105
                                                         0.082193       0.033440
                          1       3    3pz              10.068468       0.155326
                                                         2.680223       0.367157
                                                         0.791502       0.311480
                                                         0.239116       0.080105
                                                         0.082193       0.033440

       Atomic covalent radius [Angstrom]:                                  0.320

       Atomic van der Waals radius [Angstrom]:                             1.090

     GTH Potential information for                                    GTH-PBE-q1

       Description:                       Goedecker-Teter-Hutter pseudopotential
                                           Goedecker et al., PRB 54, 1703 (1996)
                                          Hartwigsen et al., PRB 58, 3641 (1998)
                                                      Krack, TCA 114, 145 (2005)

       Gaussian exponent of the core charge distribution:              12.500000
       Electronic configuration (s p d ...):                                   1

       Parameters of the local part of the GTH pseudopotential:

                          rloc        C1          C2          C3          C4
                        0.200000   -4.178900    0.724463


 MOLECULE KIND INFORMATION


 All atoms are their own molecule, skipping detailed information


 TOTAL NUMBERS AND MAXIMUM NUMBERS

  Total number of            - Atomic kinds:                                   2
                             - Atoms:                                        113
                             - Shell sets:                                   113
                             - Shells:                                       339
                             - Primitive Cartesian functions:                565
                             - Cartesian basis functions:                   1120
                             - Spherical basis functions:                   1009

  Maximum angular momentum of- Orbital basis functions:                        2
                             - Local part of the GTH pseudopotential:          2
                             - Non-local part of the GTH pseudopotential:      4


 MODULE QUICKSTEP: ATOMIC COORDINATES IN ANGSTROM

   Atom Kind Element         X             Y             Z       Z(eff)     Mass
      1    1 Au   79      1.787000      1.281000      0.000000  11.0000 196.9666
      2    1 Au   79      0.309000      2.759000      2.090000  11.0000 196.9666
      3    1 Au   79      1.787000      1.281000      4.180000  11.0000 196.9666
      4    1 Au   79      0.309000      2.759000      6.270000  11.0000 196.9666
      5    1 Au   79      4.743000      1.281000      0.000000  11.0000 196.9666
      6    1 Au   79      3.265000      2.759000      2.090000  11.0000 196.9666
      7    1 Au   79      4.743000      1.281000      4.180000  11.0000 196.9666
      8    1 Au   79      3.265000      2.759000      6.270000  11.0000 196.9666
      9    1 Au   79      7.699000      1.281000      0.000000  11.0000 196.9666
     10    1 Au   79      6.221000      2.759000      2.090000  11.0000 196.9666
     11    1 Au   79      7.699000      1.281000      4.180000  11.0000 196.9666
     12    1 Au   79      6.221000      2.759000      6.270000  11.0000 196.9666
     13    1 Au   79      1.787000      4.236000      0.000000  11.0000 196.9666
     14    1 Au   79      0.309000      5.714000      2.090000  11.0000 196.9666
     15    1 Au   79      1.787000      4.236000      4.180000  11.0000 196.9666
     16    1 Au   79      0.309000      5.714000      6.270000  11.0000 196.9666
     17    1 Au   79      4.743000      4.236000      0.000000  11.0000 196.9666
     18    1 Au   79      3.265000      5.714000      2.090000  11.0000 196.9666
     19    1 Au   79      4.743000      4.236000      4.180000  11.0000 196.9666
     20    1 Au   79      3.265000      5.714000      6.270000  11.0000 196.9666
     21    1 Au   79      7.699000      4.236000      0.000000  11.0000 196.9666
     22    1 Au   79      6.221000      5.714000      2.090000  11.0000 196.9666
     23    1 Au   79      7.699000      4.236000      4.180000  11.0000 196.9666
     24    1 Au   79      6.221000      5.714000      6.270000  11.0000 196.9666
     25    1 Au   79      1.787000      7.192000      0.000000  11.0000 196.9666
     26    1 Au   79      0.309000      8.670000      2.090000  11.0000 196.9666
     27    1 Au   79      1.787000      7.192000      4.180000  11.0000 196.9666
     28    1 Au   79      0.309000      8.670000      6.270000  11.0000 196.9666
     29    1 Au   79      4.743000      7.192000      0.000000  11.0000 196.9666
     30    1 Au   79      3.265000      8.670000      2.090000  11.0000 196.9666
     31    1 Au   79      4.743000      7.192000      4.180000  11.0000 196.9666
     32    1 Au   79      3.265000      8.670000      6.270000  11.0000 196.9666
     33    1 Au   79      7.699000      7.192000      0.000000  11.0000 196.9666
     34    1 Au   79      6.221000      8.670000      2.090000  11.0000 196.9666
     35    1 Au   79      7.699000      7.192000      4.180000  11.0000 196.9666
     36    1 Au   79      6.221000      8.670000      6.270000  11.0000 196.9666
     37    1 Au   79      1.787000      1.281000      8.360000  11.0000 196.9666
     38    1 Au   79      1.787000      4.236000      8.360000  11.0000 196.9666
     39    1 Au   79      1.787000      7.192000      8.360000  11.0000 196.9666
     40    1 Au   79      4.743000      1.281000      8.360000  11.0000 196.9666
     41    1 Au   79      4.743000      4.236000      8.360000  11.0000 196.9666
     42    1 Au   79      4.743000      7.192000      8.360000  11.0000 196.9666
     43    1 Au   79      7.699000      1.281000      8.360000  11.0000 196.9666
     44    1 Au   79      7.699000      4.236000      8.360000  11.0000 196.9666
     45    1 Au   79      7.699000      7.192000      8.360000  11.0000 196.9666
     46    1 Au   79      0.309000      2.759000     10.450000  11.0000 196.9666
     47    1 Au   79      0.309000      5.714000     10.450000  11.0000 196.9666
     48    1 Au   79      0.309000      8.670000     10.450000  11.0000 196.9666
     49    1 Au   79      3.265000      2.759000     10.450000  11.0000 196.9666
     50    1 Au   79      3.265000      5.714000     10.450000  11.0000 196.9666
     51    1 Au   79      3.265000      8.670000     10.450000  11.0000 196.9666
     52    1 Au   79      6.221000      2.759000     10.450000  11.0000 196.9666
     53    1 Au   79      6.221000      5.714000     10.450000  11.0000 196.9666
     54    1 Au   79      6.221000      8.670000     10.450000  11.0000 196.9666
     55    1 Au   79      1.767000      4.215000     12.446000  11.0000 196.9666
     56    1 Au   79      1.766000      7.214000     12.446000  11.0000 196.9666
     57    1 Au   79      4.765000      4.213000     12.446000  11.0000 196.9666
     58    1 Au   79      4.767000      7.214000     12.445000  11.0000 196.9666
     59    1 Au   79      3.270932      5.718890     14.451439  11.0000 196.9666
     60    1 Au   79      3.492865      5.932516     17.135471  11.0000 196.9666
     61    2 H     1      3.209250      5.659807     18.925096   1.0000   1.0079
     62    2 H     1      3.325638      5.772092     19.795115   1.0000   1.0079
     63    1 Au   79      3.042494      5.498844     21.584734  11.0000 196.9666
     64    1 Au   79      3.261206      5.710306     24.269238  11.0000 196.9666
     65    1 Au   79      1.765000      4.213000     26.275000  11.0000 196.9666
     66    1 Au   79      1.765000      7.214000     26.274000  11.0000 196.9666
     67    1 Au   79      4.765000      4.214000     26.274000  11.0000 196.9666
     68    1 Au   79      4.765000      7.214000     26.275000  11.0000 196.9666
     69    1 Au   79      0.309000      2.759000     28.270000  11.0000 196.9666
     70    1 Au   79      0.309000      5.714000     28.270000  11.0000 196.9666
     71    1 Au   79      0.309000      8.670000     28.270000  11.0000 196.9666
     72    1 Au   79      3.265000      2.759000     28.270000  11.0000 196.9666
     73    1 Au   79      3.265000      5.714000     28.270000  11.0000 196.9666
     74    1 Au   79      3.265000      8.670000     28.270000  11.0000 196.9666
     75    1 Au   79      6.221000      2.759000     28.270000  11.0000 196.9666
     76    1 Au   79      6.221000      5.714000     28.270000  11.0000 196.9666
     77    1 Au   79      6.221000      8.670000     28.270000  11.0000 196.9666
     78    1 Au   79      1.787000      1.281000     30.360000  11.0000 196.9666
     79    1 Au   79      0.309000      2.759000     32.450000  11.0000 196.9666
     80    1 Au   79      1.787000      1.281000     34.540000  11.0000 196.9666
     81    1 Au   79      0.309000      2.759000     36.630000  11.0000 196.9666
     82    1 Au   79      4.743000      1.281000     30.360000  11.0000 196.9666
     83    1 Au   79      3.265000      2.759000     32.450000  11.0000 196.9666
     84    1 Au   79      4.743000      1.281000     34.540000  11.0000 196.9666
     85    1 Au   79      3.265000      2.759000     36.630000  11.0000 196.9666
     86    1 Au   79      7.699000      1.281000     30.360000  11.0000 196.9666
     87    1 Au   79      6.221000      2.759000     32.450000  11.0000 196.9666
     88    1 Au   79      7.699000      1.281000     34.540000  11.0000 196.9666
     89    1 Au   79      6.221000      2.759000     36.630000  11.0000 196.9666
     90    1 Au   79      1.787000      4.236000     30.360000  11.0000 196.9666
     91    1 Au   79      0.309000      5.714000     32.450000  11.0000 196.9666
     92    1 Au   79      1.787000      4.236000     34.540000  11.0000 196.9666
     93    1 Au   79      0.309000      5.714000     36.630000  11.0000 196.9666
     94    1 Au   79      4.743000      4.236000     30.360000  11.0000 196.9666
     95    1 Au   79      3.265000      5.714000     32.450000  11.0000 196.9666
     96    1 Au   79      4.743000      4.236000     34.540000  11.0000 196.9666
     97    1 Au   79      3.265000      5.714000     36.630000  11.0000 196.9666
     98    1 Au   79      7.699000      4.236000     30.360000  11.0000 196.9666
     99    1 Au   79      6.221000      5.714000     32.450000  11.0000 196.9666
    100    1 Au   79      7.699000      4.236000     34.540000  11.0000 196.9666
    101    1 Au   79      6.221000      5.714000     36.630000  11.0000 196.9666
    102    1 Au   79      1.787000      7.192000     30.360000  11.0000 196.9666
    103    1 Au   79      0.309000      8.670000     32.450000  11.0000 196.9666
    104    1 Au   79      1.787000      7.192000     34.540000  11.0000 196.9666
    105    1 Au   79      0.309000      8.670000     36.630000  11.0000 196.9666
    106    1 Au   79      4.743000      7.192000     30.360000  11.0000 196.9666
    107    1 Au   79      3.265000      8.670000     32.450000  11.0000 196.9666
    108    1 Au   79      4.743000      7.192000     34.540000  11.0000 196.9666
    109    1 Au   79      3.265000      8.670000     36.630000  11.0000 196.9666
    110    1 Au   79      7.699000      7.192000     30.360000  11.0000 196.9666
    111    1 Au   79      6.221000      8.670000     32.450000  11.0000 196.9666
    112    1 Au   79      7.699000      7.192000     34.540000  11.0000 196.9666
    113    1 Au   79      6.221000      8.670000     36.630000  11.0000 196.9666



 SCF PARAMETERS         Density guess:                                   RESTART
                        --------------------------------------------------------
                        max_scf:                                             500
                        max_scf_history:                                       0
                        max_diis:                                              4
                        --------------------------------------------------------
                        eps_scf:                                        1.00E-06
                        eps_scf_history:                                0.00E+00
                        eps_diis:                                       1.00E-01
                        eps_eigval:                                     1.00E-05
                        --------------------------------------------------------
                        level_shift [a.u.]:                             0.000000
                        added MOs                                       100    0
                        --------------------------------------------------------
                        Mixing method:                            BROYDEN_MIXING
                                                charge density mixing in g-space
                        --------------------------------------------------------
                        Smear method:                                FERMI_DIRAC
                        Electronic temperature [K]:                        300.0
                        Electronic temperature [a.u.]:                  9.50E-04
                        Accuracy threshold:                             1.00E-10
                        --------------------------------------------------------
                        No outer SCF

 PW_GRID| Information for grid number                                          1
 PW_GRID| Grid distributed over                                   192 processors
 PW_GRID| Real space group dimensions                                    12   16
 PW_GRID| the grid is blocked:                                               YES
 PW_GRID| Cutoff [a.u.]                                                    300.0
 PW_GRID| spherical cutoff:                                                   NO
 PW_GRID|   Bounds   1            -66      65                Points:         132
 PW_GRID|   Bounds   2            -66      65                Points:         132
 PW_GRID|   Bounds   3           -288     287                Points:         576
 PW_GRID| Volume element (a.u.^3)  0.2047E-02     Volume (a.u.^3)     20544.5734
 PW_GRID| Grid span                                                    FULLSPACE
 PW_GRID|   Distribution                         Average         Max         Min
 PW_GRID|   G-Vectors                            52272.0       52272       52272
 PW_GRID|   G-Rays                                 396.0         396         396
 PW_GRID|   Real Space Points                    52272.0       52272       52272

 PW_GRID| Information for grid number                                          2
 PW_GRID| Number of the reference grid                                         1
 PW_GRID| Grid distributed over                                   192 processors
 PW_GRID| Real space group dimensions                                    12   16
 PW_GRID| the grid is blocked:                                                NO
 PW_GRID| Cutoff [a.u.]                                                    100.0
 PW_GRID| spherical cutoff:                                                   NO
 PW_GRID|   Bounds   1            -37      37                Points:          75
 PW_GRID|   Bounds   2            -37      37                Points:          75
 PW_GRID|   Bounds   3           -165     164                Points:         330
 PW_GRID| Volume element (a.u.^3)  0.1107E-01     Volume (a.u.^3)     20544.5734
 PW_GRID| Grid span                                                    FULLSPACE
 PW_GRID|   Distribution                         Average         Max         Min
 PW_GRID|   G-Vectors                             9668.0       29700           0
 PW_GRID|   G-Rays                                 128.9         396           0
 PW_GRID|   Real Space Points                     9668.0       11550        7920

 PW_GRID| Information for grid number                                          3
 PW_GRID| Number of the reference grid                                         1
 PW_GRID| Grid distributed over                                   192 processors
 PW_GRID| Real space group dimensions                                    12   16
 PW_GRID| the grid is blocked:                                                NO
 PW_GRID| Cutoff [a.u.]                                                     33.3
 PW_GRID| spherical cutoff:                                                   NO
 PW_GRID|   Bounds   1            -22      21                Points:          44
 PW_GRID|   Bounds   2            -22      21                Points:          44
 PW_GRID|   Bounds   3            -96      95                Points:         192
 PW_GRID| Volume element (a.u.^3)  0.5527E-01     Volume (a.u.^3)     20544.5734
 PW_GRID| Grid span                                                    FULLSPACE
 PW_GRID|   Distribution                         Average         Max         Min
 PW_GRID|   G-Vectors                             1936.0       17424           0
 PW_GRID|   G-Rays                                  44.0         396           0
 PW_GRID|   Real Space Points                     1936.0        2304        1152

 PW_GRID| Information for grid number                                          4
 PW_GRID| Number of the reference grid                                         1
 PW_GRID| Grid distributed over                                   192 processors
 PW_GRID| Real space group dimensions                                    12   16
 PW_GRID| the grid is blocked:                                                NO
 PW_GRID| Cutoff [a.u.]                                                     11.1
 PW_GRID| spherical cutoff:                                                   NO
 PW_GRID|   Bounds   1            -12      12                Points:          25
 PW_GRID|   Bounds   2            -12      12                Points:          25
 PW_GRID|   Bounds   3            -55      54                Points:         110
 PW_GRID| Volume element (a.u.^3)  0.2988         Volume (a.u.^3)     20544.5734
 PW_GRID| Grid span                                                    FULLSPACE
 PW_GRID|   Distribution                         Average         Max         Min
 PW_GRID|   G-Vectors                              358.1        9900           0
 PW_GRID|   G-Rays                                  14.3         396           0
 PW_GRID|   Real Space Points                      358.1         660         220

 POISSON| Solver                                                        PERIODIC
 POISSON| Periodicity                                                        XYZ

 RS_GRID| Information for grid number                                          1
 RS_GRID|   Bounds   1            -66      65                Points:         132
 RS_GRID|   Bounds   2            -66      65                Points:         132
 RS_GRID|   Bounds   3           -288     287                Points:         576
 RS_GRID| Real space distribution over                                  6 groups
 RS_GRID| Real space distribution along direction                              2
 RS_GRID| Border size                                                         35
 RS_GRID| Real space distribution over                                 32 groups
 RS_GRID| Real space distribution along direction                              3
 RS_GRID| Border size                                                         35
 RS_GRID|   Distribution                         Average         Max         Min
 RS_GRID|   Planes                                  92.0          92          92
 RS_GRID|   Distribution                         Average         Max         Min
 RS_GRID|   Planes                                  88.0          88          88

 RS_GRID| Information for grid number                                          2
 RS_GRID|   Bounds   1            -37      37                Points:          75
 RS_GRID|   Bounds   2            -37      37                Points:          75
 RS_GRID|   Bounds   3           -165     164                Points:         330
 RS_GRID| Real space distribution over                                  6 groups
 RS_GRID| Real space distribution along direction                              2
 RS_GRID| Border size                                                         24
 RS_GRID| Real space distribution over                                 32 groups
 RS_GRID| Real space distribution along direction                              3
 RS_GRID| Border size                                                         24
 RS_GRID|   Distribution                         Average         Max         Min
 RS_GRID|   Planes                                  60.5          61          60
 RS_GRID|   Distribution                         Average         Max         Min
 RS_GRID|   Planes                                  58.3          59          58

 RS_GRID| Information for grid number                                          3
 RS_GRID|   Bounds   1            -22      21                Points:          44
 RS_GRID|   Bounds   2            -22      21                Points:          44
 RS_GRID|   Bounds   3            -96      95                Points:         192
 RS_GRID| Real space fully replicated
 RS_GRID| Group size                                                           1

 RS_GRID| Information for grid number                                          4
 RS_GRID|   Bounds   1            -12      12                Points:          25
 RS_GRID|   Bounds   2            -12      12                Points:          25
 RS_GRID|   Bounds   3            -55      54                Points:         110
 RS_GRID| Real space fully replicated
 RS_GRID| Group size                                                           1

 KPOINTS| Number of kpoint groups                                              1
 KPOINTS| Size of each kpoint group                                          192
 KPOINTS| Number of kpoints per group                                          9

 BFGS| Use rational function optimization for step estimation:                NO
 BFGS| Use model Hessian for initial guess:                                  YES
 BFGS| Restart Hessian:                                                       NO
 BFGS| Trust radius:                                                       0.472

 *******************************************************************************
 ***                     STARTING GEOMETRY OPTIMIZATION                      ***
 ***                                   BFGS                                  ***
 *******************************************************************************

 Number of electrons:                                                       1223
 Number of occupied orbitals:                                                612
 Number of molecular orbitals:                                               712

 Number of orbital functions:                                               1009
 Number of independent orbital functions:                                   1009

 Extrapolation method: initial_guess


 SCF WAVEFUNCTION OPTIMIZATION

  Step     Update method      Time    Convergence         Total energy    Change
  ------------------------------------------------------------------------------
     1 NoMix/SMGL  0.30E+00   62.7     0.15897461     -3690.6393895863 -3.69E+03
     2 Broy./SMGL  0.30E+00   12.0    10.01447804     -3688.5143342778  2.13E+00
     3 Broy./SMGL  0.30E+00   11.8    10.01532069     -3793.6610640993 -1.05E+02
     4 Broy./SMGL  0.30E+00   11.9     0.38805168     -3692.8073233237  1.01E+02
     5 Broy./SMGL  0.30E+00   11.9     0.14379834     -3685.4295462060  7.38E+00
     6 Broy./SMGL  0.30E+00   11.9     0.04126179     -3688.3863416809 -2.96E+00
     7 Broy./SMGL  0.30E+00   11.9     0.03527637     -3688.7967119992 -4.10E-01
     8 Broy./SMGL  0.30E+00   11.9     0.03729941     -3688.9460641231 -1.49E-01
     9 Broy./SMGL  0.30E+00   11.9     0.03993523     -3689.3743140802 -4.28E-01
    10 Broy./SMGL  0.30E+00   11.9     0.03842315     -3689.1925090566  1.82E-01
    11 Broy./SMGL  0.30E+00   12.0     0.02920442     -3689.2974056455 -1.05E-01
    12 Broy./SMGL  0.30E+00   11.9     0.04642678     -3689.2979355589 -5.30E-04
    13 Broy./SMGL  0.30E+00   11.9     0.03575639     -3691.0362391198 -1.74E+00
    14 Broy./SMGL  0.30E+00   11.9     0.04257971     -3690.5378405360  4.98E-01
    15 Broy./SMGL  0.30E+00   11.9     0.04525913     -3690.7617107624 -2.24E-01
    16 Broy./SMGL  0.30E+00   11.9     0.04469235     -3690.6592662275  1.02E-01
    17 Broy./SMGL  0.30E+00   11.9     0.03217320     -3690.6292744092  3.00E-02
    18 Broy./SMGL  0.30E+00   11.9     0.04188115     -3690.6094672219  1.98E-02
    19 Broy./SMGL  0.30E+00   11.9     0.02866568     -3690.5792837442  3.02E-02
    20 Broy./SMGL  0.30E+00   11.9     0.03023913     -3690.5857194229 -6.44E-03
    21 Broy./SMGL  0.30E+00   11.9     0.04056495     -3690.5824431091  3.28E-03
    22 Broy./SMGL  0.30E+00   11.9     0.01877607     -3690.5855085979 -3.07E-03
    23 Broy./SMGL  0.30E+00   11.9     0.01572454     -3690.5841168789  1.39E-03
    24 Broy./SMGL  0.30E+00   11.9     0.02404019     -3690.5833145291  8.02E-04
    25 Broy./SMGL  0.30E+00   11.9     0.01616537     -3690.5799548723  3.36E-03
    26 Broy./SMGL  0.30E+00   11.9     0.01895609     -3690.5790551113  9.00E-04
    27 Broy./SMGL  0.30E+00   11.9     0.00445813     -3690.5794758931 -4.21E-04
    28 Broy./SMGL  0.30E+00   11.9     0.00570106     -3690.5782128893  1.26E-03
    29 Broy./SMGL  0.30E+00   11.9     0.00098071     -3690.5775730885  6.40E-04
    30 Broy./SMGL  0.30E+00   11.9     0.00314059     -3690.5775574186  1.57E-05
    31 Broy./SMGL  0.30E+00   11.9     0.00161842     -3690.5779693683 -4.12E-04
    32 Broy./SMGL  0.30E+00   11.9     0.00159655     -3690.5775120665  4.57E-04
    33 Broy./SMGL  0.30E+00   11.9     0.00148938     -3690.5773813391  1.31E-04
    34 Broy./SMGL  0.30E+00   11.9     0.00116094     -3690.5775827257 -2.01E-04
    35 Broy./SMGL  0.30E+00   11.9     0.00079740     -3690.5775845380 -1.81E-06
    36 Broy./SMGL  0.30E+00   11.9     0.00015839     -3690.5776920826 -1.08E-04
    37 Broy./SMGL  0.30E+00   11.9     0.00022632     -3690.5777782095 -8.61E-05
    38 Broy./SMGL  0.30E+00   11.9     0.00014967     -3690.5777506312  2.76E-05
    39 Broy./SMGL  0.30E+00   11.9     0.00026105     -3690.5777338262  1.68E-05
    40 Broy./SMGL  0.30E+00   11.9     0.00013473     -3690.5776987131  3.51E-05
    41 Broy./SMGL  0.30E+00   11.9     0.00000891     -3690.5777029908 -4.28E-06
    42 Broy./SMGL  0.30E+00   11.9     0.00004702     -3690.5777029327  5.81E-08
    43 Broy./SMGL  0.30E+00   11.9     0.00003151     -3690.5776910553  1.19E-05
    44 Broy./SMGL  0.30E+00   11.9     0.00001379     -3690.5776984902 -7.43E-06
    45 Broy./SMGL  0.30E+00   11.9     0.00001684     -3690.5776988395 -3.49E-07
    46 Broy./SMGL  0.30E+00   11.9     0.00007037     -3690.5777010004 -2.16E-06
    47 Broy./SMGL  0.30E+00   11.9     0.00001769     -3690.5776967395  4.26E-06
    48 Broy./SMGL  0.30E+00   11.9     0.00007683     -3690.5776960217  7.18E-07
    49 Broy./SMGL  0.30E+00   12.0     0.00011652     -3690.5777049548 -8.93E-06
    50 Broy./SMGL  0.30E+00   11.9     0.00000575     -3690.5776939055  1.10E-05
    51 Broy./SMGL  0.30E+00   11.9     0.00002785     -3690.5776985930 -4.69E-06
    52 Broy./SMGL  0.30E+00   12.0     0.00001729     -3690.5777021806 -3.59E-06
    53 Broy./SMGL  0.30E+00   11.9     0.00001626     -3690.5777028916 -7.11E-07
    54 Broy./SMGL  0.30E+00   12.0     0.00001288     -3690.5777021665  7.25E-07
    55 Broy./SMGL  0.30E+00   11.9     0.00000043     -3690.5777021395  2.70E-08

  *** SCF run converged in    55 steps ***


  Electronic density on regular grids:      -1222.9589658105        0.0410341895
  Core density on regular grids:             1222.9999997993       -0.0000002007
  Total charge density on r-space grids:        0.0410339889
  Total charge density g-space grids:           0.0410339889

  Overlap energy of the core charge distribution:               0.00000053410942
  Self energy of the core charge distribution:              -6424.54153828207382
  Core Hamiltonian energy:                                   2052.65669027100375
  Hartree energy:                                            1264.71104215192872
  Exchange-correlation energy:                               -583.40389681449358
  Electronic entropic energy:                                   0.00000000000000
  Fermi energy:                                                 0.00000000000000

  Total energy:                                             -3690.57770213952517

 The electron density is written in cube file format to the file:

 1.9V-ELECTRON_DENSITY-1_0.cube

 !-----------------------------------------------------------------------------!
                     Mulliken Population Analysis

 #  Atom  Element  Kind  Atomic population                           Net charge
       1     Au       1         11.000099                             -0.000099
       2     Au       1         10.999266                              0.000734
       3     Au       1         10.987743                              0.012257
       4     Au       1         10.985528                              0.014472
       5     Au       1         11.000160                             -0.000160
       6     Au       1         10.999497                              0.000503
       7     Au       1         10.987582                              0.012418
       8     Au       1         10.978019                              0.021981
       9     Au       1         10.999914                              0.000086
      10     Au       1         10.999460                              0.000540
      11     Au       1         10.989503                              0.010497
      12     Au       1         10.985384                              0.014616
      13     Au       1         10.999859                              0.000141
      14     Au       1         10.999449                              0.000551
      15     Au       1         10.987423                              0.012577
      16     Au       1         10.978002                              0.021998
      17     Au       1         10.999920                              0.000080
      18     Au       1         10.999792                              0.000208
      19     Au       1         10.987390                              0.012610
      20     Au       1         10.973784                              0.026216
      21     Au       1         10.999675                              0.000325
      22     Au       1         10.999641                              0.000359
      23     Au       1         10.987305                              0.012695
      24     Au       1         10.978511                              0.021489
      25     Au       1         11.000143                             -0.000143
      26     Au       1         10.999579                              0.000421
      27     Au       1         10.987617                              0.012383
      28     Au       1         10.985526                              0.014474
      29     Au       1         11.000205                             -0.000205
      30     Au       1         10.999808                              0.000192
      31     Au       1         10.987643                              0.012357
      32     Au       1         10.978708                              0.021292
      33     Au       1         10.999960                              0.000040
      34     Au       1         10.999773                              0.000227
      35     Au       1         10.987365                              0.012635
      36     Au       1         10.985519                              0.014481
      37     Au       1         10.988525                              0.011475
      38     Au       1         10.949959                              0.050041
      39     Au       1         10.950198                              0.049802
      40     Au       1         10.989324                              0.010676
      41     Au       1         10.949902                              0.050098
      42     Au       1         10.950325                              0.049675
      43     Au       1         11.017544                             -0.017544
      44     Au       1         10.988038                              0.011962
      45     Au       1         10.989068                              0.010932
      46     Au       1         11.084152                             -0.084152
      47     Au       1         11.030267                             -0.030267
      48     Au       1         11.084605                             -0.084605
      49     Au       1         11.030365                             -0.030365
      50     Au       1         10.886318                              0.113682
      51     Au       1         11.031852                             -0.031852
      52     Au       1         11.084511                             -0.084511
      53     Au       1         11.031428                             -0.031428
      54     Au       1         11.084893                             -0.084893
      55     Au       1         11.029334                             -0.029334
      56     Au       1         11.024416                             -0.024416
      57     Au       1         11.024069                             -0.024069
      58     Au       1         11.019263                             -0.019263
      59     Au       1         11.102520                             -0.102520
      60     Au       1         11.039359                             -0.039359
      61     H        2          0.954004                              0.045996
      62     H        2          0.960132                              0.039868
      63     Au       1         11.069188                             -0.069188
      64     Au       1         11.168903                             -0.168903
      65     Au       1         11.004175                             -0.004175
      66     Au       1         11.005058                             -0.005058
      67     Au       1         11.005080                             -0.005080
      68     Au       1         11.007883                             -0.007883
      69     Au       1         11.024345                             -0.024345
      70     Au       1         10.985053                              0.014947
      71     Au       1         11.025394                             -0.025394
      72     Au       1         10.985260                              0.014740
      73     Au       1         10.871170                              0.128830
      74     Au       1         10.987516                              0.012484
      75     Au       1         11.025338                             -0.025338
      76     Au       1         10.987166                              0.012834
      77     Au       1         11.026235                             -0.026235
      78     Au       1         11.002479                             -0.002479
      79     Au       1         10.987277                              0.012723
      80     Au       1         10.999979                              0.000021
      81     Au       1         10.999680                              0.000320
      82     Au       1         11.002288                             -0.002288
      83     Au       1         10.987259                              0.012741
      84     Au       1         11.000061                             -0.000061
      85     Au       1         10.999927                              0.000073
      86     Au       1         11.025918                             -0.025918
      87     Au       1         10.986738                              0.013262
      88     Au       1         10.999984                              0.000016
      89     Au       1         10.999864                              0.000136
      90     Au       1         10.968014                              0.031986
      91     Au       1         10.987203                              0.012797
      92     Au       1         10.999686                              0.000314
      93     Au       1         10.999879                              0.000121
      94     Au       1         10.967495                              0.032505
      95     Au       1         10.991635                              0.008365
      96     Au       1         10.999753                              0.000247
      97     Au       1         11.000127                             -0.000127
      98     Au       1         11.002050                             -0.002050
      99     Au       1         10.987213                              0.012787
     100     Au       1         10.999554                              0.000446
     101     Au       1         11.000063                             -0.000063
     102     Au       1         10.967800                              0.032200
     103     Au       1         10.986889                              0.013111
     104     Au       1         10.999976                              0.000024
     105     Au       1         10.999984                              0.000016
     106     Au       1         10.967273                              0.032727
     107     Au       1         10.987390                              0.012610
     108     Au       1         11.000039                             -0.000039
     109     Au       1         11.000230                             -0.000230
     110     Au       1         11.002105                             -0.002105
     111     Au       1         10.986235                              0.013765
     112     Au       1         10.999860                              0.000140
     113     Au       1         11.000168                             -0.000168
 # Total charge                           1222.958964                  0.041036

 !-----------------------------------------------------------------------------!

 !-----------------------------------------------------------------------------!
                           Hirshfeld Charges

  #Atom  Element  Kind  Ref Charge     Population                    Net charge
      1       Au     1      11.000         11.000                        -0.000
      2       Au     1      11.000         11.000                         0.000
      3       Au     1      11.000         10.999                         0.001
      4       Au     1      11.000         10.991                         0.009
      5       Au     1      11.000         11.000                        -0.000
      6       Au     1      11.000         11.000                         0.000
      7       Au     1      11.000         10.999                         0.001
      8       Au     1      11.000         10.993                         0.007
      9       Au     1      11.000         11.000                         0.000
     10       Au     1      11.000         11.000                         0.000
     11       Au     1      11.000         11.000                         0.000
     12       Au     1      11.000         10.990                         0.010
     13       Au     1      11.000         11.000                         0.000
     14       Au     1      11.000         11.000                         0.000
     15       Au     1      11.000         10.999                         0.001
     16       Au     1      11.000         10.993                         0.007
     17       Au     1      11.000         11.000                         0.000
     18       Au     1      11.000         11.000                        -0.000
     19       Au     1      11.000         10.999                         0.001
     20       Au     1      11.000         10.991                         0.009
     21       Au     1      11.000         11.000                         0.000
     22       Au     1      11.000         11.000                        -0.000
     23       Au     1      11.000         10.999                         0.001
     24       Au     1      11.000         10.993                         0.007
     25       Au     1      11.000         11.000                        -0.000
     26       Au     1      11.000         11.000                         0.000
     27       Au     1      11.000         10.999                         0.001
     28       Au     1      11.000         10.990                         0.010
     29       Au     1      11.000         11.000                        -0.000
     30       Au     1      11.000         11.000                        -0.000
     31       Au     1      11.000         10.999                         0.001
     32       Au     1      11.000         10.993                         0.007
     33       Au     1      11.000         11.000                         0.000
     34       Au     1      11.000         11.000                        -0.000
     35       Au     1      11.000         10.999                         0.001
     36       Au     1      11.000         10.990                         0.010
     37       Au     1      11.000         10.996                         0.004
     38       Au     1      11.000         10.997                         0.003
     39       Au     1      11.000         10.998                         0.002
     40       Au     1      11.000         10.997                         0.003
     41       Au     1      11.000         10.998                         0.002
     42       Au     1      11.000         10.997                         0.003
     43       Au     1      11.000         10.993                         0.007
     44       Au     1      11.000         10.996                         0.004
     45       Au     1      11.000         10.997                         0.003
     46       Au     1      11.000         11.034                        -0.034
     47       Au     1      11.000         11.012                        -0.012
     48       Au     1      11.000         11.034                        -0.034
     49       Au     1      11.000         11.012                        -0.012
     50       Au     1      11.000         10.971                         0.029
     51       Au     1      11.000         11.012                        -0.012
     52       Au     1      11.000         11.034                        -0.034
     53       Au     1      11.000         11.012                        -0.012
     54       Au     1      11.000         11.033                        -0.033
     55       Au     1      11.000         10.995                         0.005
     56       Au     1      11.000         10.992                         0.008
     57       Au     1      11.000         10.992                         0.008
     58       Au     1      11.000         10.988                         0.012
     59       Au     1      11.000         11.018                        -0.018
     60       Au     1      11.000         10.964                         0.036
     61       H      2       1.000          1.041                        -0.041
     62       H      2       1.000          1.048                        -0.048
     63       Au     1      11.000         10.985                         0.015
     64       Au     1      11.000         11.066                        -0.066
     65       Au     1      11.000         10.968                         0.032
     66       Au     1      11.000         10.968                         0.032
     67       Au     1      11.000         10.968                         0.032
     68       Au     1      11.000         10.970                         0.030
     69       Au     1      11.000         11.028                        -0.028
     70       Au     1      11.000         11.010                        -0.010
     71       Au     1      11.000         11.029                        -0.029
     72       Au     1      11.000         11.009                        -0.009
     73       Au     1      11.000         10.974                         0.026
     74       Au     1      11.000         11.010                        -0.010
     75       Au     1      11.000         11.029                        -0.029
     76       Au     1      11.000         11.010                        -0.010
     77       Au     1      11.000         11.029                        -0.029
     78       Au     1      11.000         10.982                         0.018
     79       Au     1      11.000         10.998                         0.002
     80       Au     1      11.000         11.000                        -0.000
     81       Au     1      11.000         11.000                         0.000
     82       Au     1      11.000         10.982                         0.018
     83       Au     1      11.000         10.998                         0.002
     84       Au     1      11.000         11.000                        -0.000
     85       Au     1      11.000         11.000                         0.000
     86       Au     1      11.000         10.985                         0.015
     87       Au     1      11.000         10.998                         0.002
     88       Au     1      11.000         11.000                         0.000
     89       Au     1      11.000         11.000                         0.000
     90       Au     1      11.000         10.984                         0.016
     91       Au     1      11.000         10.998                         0.002
     92       Au     1      11.000         11.000                         0.000
     93       Au     1      11.000         11.000                         0.000
     94       Au     1      11.000         10.984                         0.016
     95       Au     1      11.000         10.999                         0.001
     96       Au     1      11.000         11.000                         0.000
     97       Au     1      11.000         11.000                        -0.000
     98       Au     1      11.000         10.982                         0.018
     99       Au     1      11.000         10.998                         0.002
    100       Au     1      11.000         11.000                         0.000
    101       Au     1      11.000         11.000                        -0.000
    102       Au     1      11.000         10.984                         0.016
    103       Au     1      11.000         10.998                         0.002
    104       Au     1      11.000         11.000                        -0.000
    105       Au     1      11.000         11.000                         0.000
    106       Au     1      11.000         10.984                         0.016
    107       Au     1      11.000         10.998                         0.002
    108       Au     1      11.000         11.000                        -0.000
    109       Au     1      11.000         11.000                        -0.000
    110       Au     1      11.000         10.982                         0.018
    111       Au     1      11.000         10.997                         0.003
    112       Au     1      11.000         11.000                         0.000
    113       Au     1      11.000         11.000                        -0.000

  Total Charge                                                            0.041
 !-----------------------------------------------------------------------------!
 Calculating transmission coefficient

 ENERGY| Total FORCE_EVAL ( QS ) energy [a.u.]:            -3690.577701210235318

 ATOMIC FORCES in [a.u.]

 # Atom   Kind   Element          X              Y              Z
      1      1      Au          0.00000000     0.00000000     0.00000000
      2      1      Au          0.00000000     0.00000000     0.00000000
      3      1      Au          0.00000000     0.00000000     0.00000000
      4      1      Au          0.00000000     0.00000000     0.00000000
      5      1      Au          0.00000000     0.00000000     0.00000000
      6      1      Au          0.00000000     0.00000000     0.00000000
      7      1      Au          0.00000000     0.00000000     0.00000000
      8      1      Au          0.00000000     0.00000000     0.00000000
      9      1      Au          0.00000000     0.00000000     0.00000000
     10      1      Au          0.00000000     0.00000000     0.00000000
     11      1      Au          0.00000000     0.00000000     0.00000000
     12      1      Au          0.00000000     0.00000000     0.00000000
     13      1      Au          0.00000000     0.00000000     0.00000000
     14      1      Au          0.00000000     0.00000000     0.00000000
     15      1      Au          0.00000000     0.00000000     0.00000000
     16      1      Au          0.00000000     0.00000000     0.00000000
     17      1      Au          0.00000000     0.00000000     0.00000000
     18      1      Au          0.00000000     0.00000000     0.00000000
     19      1      Au          0.00000000     0.00000000     0.00000000
     20      1      Au          0.00000000     0.00000000     0.00000000
     21      1      Au          0.00000000     0.00000000     0.00000000
     22      1      Au          0.00000000     0.00000000     0.00000000
     23      1      Au          0.00000000     0.00000000     0.00000000
     24      1      Au          0.00000000     0.00000000     0.00000000
     25      1      Au          0.00000000     0.00000000     0.00000000
     26      1      Au          0.00000000     0.00000000     0.00000000
     27      1      Au          0.00000000     0.00000000     0.00000000
     28      1      Au          0.00000000     0.00000000     0.00000000
     29      1      Au          0.00000000     0.00000000     0.00000000
     30      1      Au          0.00000000     0.00000000     0.00000000
     31      1      Au          0.00000000     0.00000000     0.00000000
     32      1      Au          0.00000000     0.00000000     0.00000000
     33      1      Au          0.00000000     0.00000000     0.00000000
     34      1      Au          0.00000000     0.00000000     0.00000000
     35      1      Au          0.00000000     0.00000000     0.00000000
     36      1      Au          0.00000000     0.00000000     0.00000000
     37      1      Au          0.00000000     0.00000000     0.00000000
     38      1      Au          0.00000000     0.00000000     0.00000000
     39      1      Au          0.00000000     0.00000000     0.00000000
     40      1      Au          0.00000000     0.00000000     0.00000000
     41      1      Au          0.00000000     0.00000000     0.00000000
     42      1      Au          0.00000000     0.00000000     0.00000000
     43      1      Au          0.00000000     0.00000000     0.00000000
     44      1      Au          0.00000000     0.00000000     0.00000000
     45      1      Au          0.00000000     0.00000000     0.00000000
     46      1      Au          0.00000000     0.00000000     0.00000000
     47      1      Au          0.00000000     0.00000000     0.00000000
     48      1      Au          0.00000000     0.00000000     0.00000000
     49      1      Au          0.00000000     0.00000000     0.00000000
     50      1      Au          0.00000000     0.00000000     0.00000000
     51      1      Au          0.00000000     0.00000000     0.00000000
     52      1      Au          0.00000000     0.00000000     0.00000000
     53      1      Au          0.00000000     0.00000000     0.00000000
     54      1      Au          0.00000000     0.00000000     0.00000000
     55      1      Au         -0.00300521    -0.00291610     0.00370611
     56      1      Au         -0.00338216     0.00325478     0.00319951
     57      1      Au          0.00326036    -0.00333440     0.00323064
     58      1      Au          0.00358625     0.00365483     0.00280634
     59      1      Au         -0.00135512    -0.00130222    -0.01014087
     60      1      Au          0.00070025     0.00067751     0.00274871
     61      2      H           0.00057764     0.00055447     0.00045911
     62      2      H          -0.00115595    -0.00111663    -0.00180437
     63      1      Au          0.00124946     0.00120456     0.00162303
     64      1      Au         -0.00165971    -0.00159992    -0.00330414
     65      1      Au         -0.00183926    -0.00174998    -0.00340863
     66      1      Au         -0.00166406     0.00199120    -0.00300631
     67      1      Au          0.00203149    -0.00163435    -0.00299374
     68      1      Au          0.00183496     0.00183492    -0.00257617
     69      1      Au          0.00000000     0.00000000     0.00000000
     70      1      Au          0.00000000     0.00000000     0.00000000
     71      1      Au          0.00000000     0.00000000     0.00000000
     72      1      Au          0.00000000     0.00000000     0.00000000
     73      1      Au          0.00000000     0.00000000     0.00000000
     74      1      Au          0.00000000     0.00000000     0.00000000
     75      1      Au          0.00000000     0.00000000     0.00000000
     76      1      Au          0.00000000     0.00000000     0.00000000
     77      1      Au          0.00000000     0.00000000     0.00000000
     78      1      Au          0.00000000     0.00000000     0.00000000
     79      1      Au          0.00000000     0.00000000     0.00000000
     80      1      Au          0.00000000     0.00000000     0.00000000
     81      1      Au          0.00000000     0.00000000     0.00000000
     82      1      Au          0.00000000     0.00000000     0.00000000
     83      1      Au          0.00000000     0.00000000     0.00000000
     84      1      Au          0.00000000     0.00000000     0.00000000
     85      1      Au          0.00000000     0.00000000     0.00000000
     86      1      Au          0.00000000     0.00000000     0.00000000
     87      1      Au          0.00000000     0.00000000     0.00000000
     88      1      Au          0.00000000     0.00000000     0.00000000
     89      1      Au          0.00000000     0.00000000     0.00000000
     90      1      Au          0.00000000     0.00000000     0.00000000
     91      1      Au          0.00000000     0.00000000     0.00000000
     92      1      Au          0.00000000     0.00000000     0.00000000
     93      1      Au          0.00000000     0.00000000     0.00000000
     94      1      Au          0.00000000     0.00000000     0.00000000
[...]
     86      1      Au          0.00000000     0.00000000     0.00000000
     87      1      Au          0.00000000     0.00000000     0.00000000
     88      1      Au          0.00000000     0.00000000     0.00000000
     89      1      Au          0.00000000     0.00000000     0.00000000
     90      1      Au          0.00000000     0.00000000     0.00000000
     91      1      Au          0.00000000     0.00000000     0.00000000
     92      1      Au          0.00000000     0.00000000     0.00000000
     93      1      Au          0.00000000     0.00000000     0.00000000
     94      1      Au          0.00000000     0.00000000     0.00000000
     95      1      Au          0.00000000     0.00000000     0.00000000
     96      1      Au          0.00000000     0.00000000     0.00000000
     97      1      Au          0.00000000     0.00000000     0.00000000
     98      1      Au          0.00000000     0.00000000     0.00000000
     99      1      Au          0.00000000     0.00000000     0.00000000
    100      1      Au          0.00000000     0.00000000     0.00000000
    101      1      Au          0.00000000     0.00000000     0.00000000
    102      1      Au          0.00000000     0.00000000     0.00000000
    103      1      Au          0.00000000     0.00000000     0.00000000
    104      1      Au          0.00000000     0.00000000     0.00000000
    105      1      Au          0.00000000     0.00000000     0.00000000
    106      1      Au          0.00000000     0.00000000     0.00000000
    107      1      Au          0.00000000     0.00000000     0.00000000
    108      1      Au          0.00000000     0.00000000     0.00000000
    109      1      Au          0.00000000     0.00000000     0.00000000
    110      1      Au          0.00000000     0.00000000     0.00000000
    111      1      Au          0.00000000     0.00000000     0.00000000
    112      1      Au          0.00000000     0.00000000     0.00000000
    113      1      Au          0.00000000     0.00000000     0.00000000
 SUM OF ATOMIC FORCES           0.00049352     0.00035338     0.00023191     0.00064979

 --------  Informations at step =    39 ------------
  Optimization Method        =                 BFGS
  Total Energy               =     -3690.5676019107
  Real energy change         =         0.0000149150
  Predicted change in energy =        -0.0000036662
  Scaling factor             =         0.0000000000
  Step size                  =         0.0236734407
  Trust radius               =         0.4724315332
  Decrease in energy         =                   NO
  Used time                  =             6123.815

  Convergence check :
  Max. step size             =         0.0236734407
  Conv. limit for step size  =         0.0010000000
  Convergence in step size   =                   NO
  RMS step size              =         0.0033495884
  Conv. limit for RMS step   =         0.0010000000
  Convergence in RMS step    =                   NO
  Max. gradient              =         0.0003115931
  Conv. limit for gradients  =         0.0010000000
  Conv. in gradients         =                  YES
  RMS gradient               =         0.0000333437
  Conv. limit for RMS grad.  =         0.0010000000
  Conv. in RMS gradients     =                  YES
 ---------------------------------------------------
 Estimated peak process memory after this step [MiB]                         682

 --------------------------
 OPTIMIZATION STEP:     40
 --------------------------
 its          40
 iter_nr           0

 Number of electrons:                                                       1223
 Number of occupied orbitals:                                                612
 Number of molecular orbitals:                                               712

 Number of orbital functions:                                               1009
 Number of independent orbital functions:                                   1009

 Extrapolation method: P linear


 SCF WAVEFUNCTION OPTIMIZATION

  Step     Update method      Time    Convergence         Total energy    Change
  ------------------------------------------------------------------------------
     1 Broy./SMGL  0.30E+00   13.9     0.06584349     -3690.5677750237 -3.69E+03
     2 Broy./SMGL  0.30E+00   12.0     0.04445620     -3690.5789396748 -1.12E-02
     3 Broy./SMGL  0.30E+00   12.1     0.05101580     -3690.6609132048 -8.20E-02
     4 Broy./SMGL  0.30E+00   11.9     0.04478704     -3690.5504564042  1.10E-01
     5 Broy./SMGL  0.30E+00   12.0     0.05461785     -3690.5584403174 -7.98E-03
     6 Broy./SMGL  0.30E+00   12.0     0.02446124     -3690.5645868807 -6.15E-03
     7 Broy./SMGL  0.30E+00   12.0     0.27645562     -3690.5646120316 -2.52E-05
     8 Broy./SMGL  0.30E+00   12.0     0.27824273     -3690.5653901402 -7.78E-04
     9 Broy./SMGL  0.30E+00   12.1     0.01399360     -3690.5693534455 -3.96E-03
    10 Broy./SMGL  0.30E+00   12.0     0.00747229     -3690.5675729021  1.78E-03
    11 Broy./SMGL  0.30E+00   12.0     0.03178780     -3690.5675600733  1.28E-05
    12 Broy./SMGL  0.30E+00   12.0     0.00657866     -3690.5684183901 -8.58E-04
    13 Broy./SMGL  0.30E+00   12.0     0.00504409     -3690.5684757428 -5.74E-05
    14 Broy./SMGL  0.30E+00   11.9     0.01449353     -3690.5684785545 -2.81E-06
    15 Broy./SMGL  0.30E+00   12.0     0.01166380     -3690.5683157743  1.63E-04
    16 Broy./SMGL  0.30E+00   12.0     0.00835008     -3690.5683144665  1.31E-06
    17 Broy./SMGL  0.30E+00   12.0     0.03486489     -3690.5674739914  8.40E-04
    18 Broy./SMGL  0.30E+00   12.0     0.02724858     -3690.5660716613  1.40E-03
    19 Broy./SMGL  0.30E+00   12.0     0.01298028     -3690.5699598809 -3.89E-03
    20 Broy./SMGL  0.30E+00   12.0     0.00658194     -3690.5665590708  3.40E-03
    21 Broy./SMGL  0.30E+00   12.0     0.01573027     -3690.5666838136 -1.25E-04
    22 Broy./SMGL  0.30E+00   12.0     0.01974048     -3690.5670035379 -3.20E-04
    23 Broy./SMGL  0.30E+00   11.9     0.00899093     -3690.5677806449 -7.77E-04
    24 Broy./SMGL  0.30E+00   12.0     0.00942848     -3690.5676170862  1.64E-04
    25 Broy./SMGL  0.30E+00   12.0     0.00775798     -3690.5677626025 -1.46E-04
    26 Broy./SMGL  0.30E+00   12.0     0.00802126     -3690.5674848212  2.78E-04
    27 Broy./SMGL  0.30E+00   12.0     0.00561875     -3690.5676612543 -1.76E-04
    28 Broy./SMGL  0.30E+00   12.0     0.01010690     -3690.5677355839 -7.43E-05
    29 Broy./SMGL  0.30E+00   12.0     0.00824682     -3690.5676571052  7.85E-05
    30 Broy./SMGL  0.30E+00   12.0     0.00327040     -3690.5681588852 -5.02E-04
    31 Broy./SMGL  0.30E+00   12.0     0.00718585     -3690.5683197386 -1.61E-04
    32 Broy./SMGL  0.30E+00   12.0     0.00328276     -3690.5677362019  5.84E-04
    33 Broy./SMGL  0.30E+00   12.0     0.01024387     -3690.5676810840  5.51E-05
    34 Broy./SMGL  0.30E+00   12.0     0.02850525     -3690.5678457731 -1.65E-04
    35 Broy./SMGL  0.30E+00   12.0     0.04579336     -3690.5682034230 -3.58E-04
    36 Broy./SMGL  0.30E+00   12.0     0.02562129     -3690.5667745534  1.43E-03
    37 Broy./SMGL  0.30E+00   12.0     0.00614913     -3690.5674110706 -6.37E-04
    38 Broy./SMGL  0.30E+00   12.0     0.03537655     -3690.5676106929 -2.00E-04
    39 Broy./SMGL  0.30E+00   11.9     0.03877924     -3690.5675318242  7.89E-05
    40 Broy./SMGL  0.30E+00   12.0     0.00771554     -3690.5675844434 -5.26E-05
    41 Broy./SMGL  0.30E+00   12.0     0.00381276     -3690.5675947121 -1.03E-05
    42 Broy./SMGL  0.30E+00   11.9     0.00176166     -3690.5675448701  4.98E-05
    43 Broy./SMGL  0.30E+00   12.0     0.00704289     -3690.5675397713  5.10E-06
    44 Broy./SMGL  0.30E+00   12.0     0.00036101     -3690.5676064388 -6.67E-05
    45 Broy./SMGL  0.30E+00   12.0     0.00620451     -3690.5675961686  1.03E-05
    46 Broy./SMGL  0.30E+00   12.0     0.00444977     -3690.5676266841 -3.05E-05
    47 Broy./SMGL  0.30E+00   12.0     0.00058648     -3690.5676220339  4.65E-06
    48 Broy./SMGL  0.30E+00   12.0     0.00222431     -3690.5675956306  2.64E-05
    49 Broy./SMGL  0.30E+00   12.0     0.00092901     -3690.5675864863  9.14E-06
    50 Broy./SMGL  0.30E+00   12.0     0.00079984     -3690.5676111734 -2.47E-05
    51 Broy./SMGL  0.30E+00   11.9     0.00573570     -3690.5675653654  4.58E-05
    52 Broy./SMGL  0.30E+00   12.0     0.00046543     -3690.5675466394  1.87E-05
    53 Broy./SMGL  0.30E+00   12.0     0.00005666     -3690.5675611730 -1.45E-05
    54 Broy./SMGL  0.30E+00   11.9     0.00033615     -3690.5675594835  1.69E-06
    55 Broy./SMGL  0.30E+00   12.0     0.00114271     -3690.5675577176  1.77E-06
    56 Broy./SMGL  0.30E+00   12.0     0.00205057     -3690.5675446959  1.30E-05
    57 Broy./SMGL  0.30E+00   12.0     0.00059937     -3690.5675466030 -1.91E-06
    58 Broy./SMGL  0.30E+00   12.0     0.00193149     -3690.5675484642 -1.86E-06
    59 Broy./SMGL  0.30E+00   12.0     0.00028572     -3690.5675472060  1.26E-06
    60 Broy./SMGL  0.30E+00   11.9     0.00060608     -3690.5675469706  2.35E-07
    61 Broy./SMGL  0.30E+00   12.0     0.00036123     -3690.5675459783  9.92E-07
    62 Broy./SMGL  0.30E+00   12.0     0.00026783     -3690.5675464354 -4.57E-07
    63 Broy./SMGL  0.30E+00   12.0     0.00072766     -3690.5675469683 -5.33E-07
    64 Broy./SMGL  0.30E+00   12.0     0.00020563     -3690.5675489034 -1.94E-06
    65 Broy./SMGL  0.30E+00   12.0     0.00017455     -3690.5675475757  1.33E-06
    66 Broy./SMGL  0.30E+00   12.0     0.00118521     -3690.5675476668 -9.10E-08
    67 Broy./SMGL  0.30E+00   12.0     0.00096131     -3690.5675492894 -1.62E-06
    68 Broy./SMGL  0.30E+00   12.0     0.00004875     -3690.5675499454 -6.56E-07
    69 Broy./SMGL  0.30E+00   12.0     0.00035279     -3690.5675487499  1.20E-06
    70 Broy./SMGL  0.30E+00   12.0     0.00085813     -3690.5675479883  7.62E-07
    71 Broy./SMGL  0.30E+00   12.0     0.00047447     -3690.5675431887  4.80E-06
    72 Broy./SMGL  0.30E+00   12.0     0.00052352     -3690.5675398874  3.30E-06
    73 Broy./SMGL  0.30E+00   12.0     0.00030855     -3690.5675429462 -3.06E-06
    74 Broy./SMGL  0.30E+00   12.0     0.00112673     -3690.5675393853  3.56E-06
    75 Broy./SMGL  0.30E+00   12.0     0.00062055     -3690.5675364949  2.89E-06
    76 Broy./SMGL  0.30E+00   12.0     0.00076935     -3690.5675386284 -2.13E-06
    77 Broy./SMGL  0.30E+00   12.0     0.00073761     -3690.5675359825  2.65E-06
    78 Broy./SMGL  0.30E+00   12.0     0.00019022     -3690.5675331811  2.80E-06
    79 Broy./SMGL  0.30E+00   12.0     0.00036499     -3690.5675371754 -3.99E-06
    80 Broy./SMGL  0.30E+00   12.0     0.00035032     -3690.5675341114  3.06E-06
    81 Broy./SMGL  0.30E+00   12.0     0.00063573     -3690.5675335965  5.15E-07
    82 Broy./SMGL  0.30E+00   12.0     0.00062804     -3690.5675324155  1.18E-06
    83 Broy./SMGL  0.30E+00   12.0     0.00203969     -3690.5675336515 -1.24E-06
    84 Broy./SMGL  0.30E+00   12.0     0.00275255     -3690.5675354543 -1.80E-06
    85 Broy./SMGL  0.30E+00   12.0     0.00228140     -3690.5675274219  8.03E-06
    86 Broy./SMGL  0.30E+00   12.0     0.00049637     -3690.5675361151 -8.69E-06
    87 Broy./SMGL  0.30E+00   11.9     0.00120611     -3690.5675331318  2.98E-06
    88 Broy./SMGL  0.30E+00   12.0     0.00049566     -3690.5675276043  5.53E-06
    89 Broy./SMGL  0.30E+00   12.0     0.00044514     -3690.5675316993 -4.10E-06
    90 Broy./SMGL  0.30E+00   12.0     0.00044324     -3690.5675295853  2.11E-06
    91 Broy./SMGL  0.30E+00   12.0     0.00076113     -3690.5675315926 -2.01E-06
    92 Broy./SMGL  0.30E+00   12.0     0.00078470     -3690.5675297074  1.89E-06
    93 Broy./SMGL  0.30E+00   12.0     0.00029287     -3690.5675322049 -2.50E-06
    94 Broy./SMGL  0.30E+00   12.0     0.00025530     -3690.5675309682  1.24E-06
    95 Broy./SMGL  0.30E+00   12.0     0.00041892     -3690.5675297160  1.25E-06
    96 Broy./SMGL  0.30E+00   11.9     0.00076021     -3690.5675305876 -8.72E-07
    97 Broy./SMGL  0.30E+00   12.0     0.00082877     -3690.5675287584  1.83E-06
    98 Broy./SMGL  0.30E+00   11.9     0.00218081     -3690.5675269719  1.79E-06
    99 Broy./SMGL  0.30E+00   12.0     0.00126913     -3690.5675404609 -1.35E-05
   100 Broy./SMGL  0.30E+00   12.0     0.00069900     -3690.5675302378  1.02E-05
   101 Broy./SMGL  0.30E+00   11.9     0.00082184     -3690.5675282403  2.00E-06
   102 Broy./SMGL  0.30E+00   11.9     0.00075026     -3690.5675301398 -1.90E-06
   103 Broy./SMGL  0.30E+00   12.0     0.00090132     -3690.5675284494  1.69E-06
   104 Broy./SMGL  0.30E+00   12.0     0.00077409     -3690.5675303362 -1.89E-06
   105 Broy./SMGL  0.30E+00   12.0     0.00162078     -3690.5675292063  1.13E-06
   106 Broy./SMGL  0.30E+00   12.0     0.00157237     -3690.5675284784  7.28E-07
   107 Broy./SMGL  0.30E+00   12.0     0.00301089     -3690.5675309357 -2.46E-06
   108 Broy./SMGL  0.30E+00   12.0     0.00130118     -3690.5675353950 -4.46E-06
   109 Broy./SMGL  0.30E+00   12.0     0.00107636     -3690.5675303380  5.06E-06
   110 Broy./SMGL  0.30E+00   12.0     0.00033777     -3690.5675282769  2.06E-06
   111 Broy./SMGL  0.30E+00   12.0     0.00033919     -3690.5675272335  1.04E-06
   112 Broy./SMGL  0.30E+00   12.0     0.00123789     -3690.5675294988 -2.27E-06
   113 Broy./SMGL  0.30E+00   12.0     0.00121182     -3690.5675268801  2.62E-06
   114 Broy./SMGL  0.30E+00   12.0     0.00100134     -3690.5675323323 -5.45E-06
   115 Broy./SMGL  0.30E+00   12.0     0.00019861     -3690.5675289048  3.43E-06
   116 Broy./SMGL  0.30E+00   12.0     0.00048520     -3690.5675276668  1.24E-06
   117 Broy./SMGL  0.30E+00   11.9     0.00041902     -3690.5675287806 -1.11E-06
   118 Broy./SMGL  0.30E+00   12.0     0.00119947     -3690.5675258210  2.96E-06
   119 Broy./SMGL  0.30E+00   12.0     0.00114869     -3690.5675313374 -5.52E-06
   120 Broy./SMGL  0.30E+00   11.9     0.00193988     -3690.5675258537  5.48E-06
   121 Broy./SMGL  0.30E+00   12.0     0.00174796     -3690.5675385632 -1.27E-05
   122 Broy./SMGL  0.30E+00   12.0     0.00109791     -3690.5675272592  1.13E-05
   123 Broy./SMGL  0.30E+00   11.9     0.00107416     -3690.5675273497 -9.05E-08
   124 Broy./SMGL  0.30E+00   12.0     0.00079984     -3690.5675305504 -3.20E-06
   125 Broy./SMGL  0.30E+00   12.0     0.00082412     -3690.5675276562  2.89E-06
   126 Broy./SMGL  0.30E+00   12.0     0.00072322     -3690.5675291259 -1.47E-06
   127 Broy./SMGL  0.30E+00   12.0     0.00083897     -3690.5675282759  8.50E-07
   128 Broy./SMGL  0.30E+00   12.0     0.00052227     -3690.5675292294 -9.53E-07
   129 Broy./SMGL  0.30E+00   12.0     0.00028266     -3690.5675281193  1.11E-06
   130 Broy./SMGL  0.30E+00   12.0     0.00042064     -3690.5675278533  2.66E-07
   131 Broy./SMGL  0.30E+00   12.0     0.00076331     -3690.5675276552  1.98E-07
   132 Broy./SMGL  0.30E+00   12.0     0.00074313     -3690.5675288722 -1.22E-06
   133 Broy./SMGL  0.30E+00   12.0     0.00032239     -3690.5675280406  8.32E-07
   134 Broy./SMGL  0.30E+00   12.0     0.00023556     -3690.5675293447 -1.30E-06
   135 Broy./SMGL  0.30E+00   12.0     0.00060797     -3690.5675281187  1.23E-06
   136 Broy./SMGL  0.30E+00   12.0     0.00116452     -3690.5675268231  1.30E-06
   137 Broy./SMGL  0.30E+00   12.0     0.00161534     -3690.5675328217 -6.00E-06
   138 Broy./SMGL  0.30E+00   12.0     0.00138631     -3690.5675226978  1.01E-05
   139 Broy./SMGL  0.30E+00   11.9     0.00136585     -3690.5675289705 -6.27E-06
   140 Broy./SMGL  0.30E+00   12.0     0.00201067     -3690.5675305867 -1.62E-06
   141 Broy./SMGL  0.30E+00   12.0     0.00207969     -3690.5675276765  2.91E-06
   142 Broy./SMGL  0.30E+00   11.9     0.00201175     -3690.5675302627 -2.59E-06
   143 Broy./SMGL  0.30E+00   12.0     0.00233678     -3690.5675299268  3.36E-07
   144 Broy./SMGL  0.30E+00   12.0     0.00368950     -3690.5675290792  8.48E-07
   145 Broy./SMGL  0.30E+00   12.0     0.00151821     -3690.5675311413 -2.06E-06
   146 Broy./SMGL  0.30E+00   12.0     0.00024839     -3690.5675291846  1.96E-06
   147 Broy./SMGL  0.30E+00   12.0     0.00030546     -3690.5675278880  1.30E-06
   148 Broy./SMGL  0.30E+00   12.0     0.00041385     -3690.5675263875  1.50E-06
   149 Broy./SMGL  0.30E+00   12.0     0.00012624     -3690.5675259712  4.16E-07
   150 Broy./SMGL  0.30E+00   12.0     0.00022420     -3690.5675269383 -9.67E-07
   151 Broy./SMGL  0.30E+00   12.0     0.00049323     -3690.5675275414 -6.03E-07
   152 Broy./SMGL  0.30E+00   12.0     0.00052088     -3690.5675281288 -5.87E-07
   153 Broy./SMGL  0.30E+00   12.0     0.00031212     -3690.5675289972 -8.68E-07
   154 Broy./SMGL  0.30E+00   12.0     0.00051332     -3690.5675293102 -3.13E-07
   155 Broy./SMGL  0.30E+00   12.0     0.00048315     -3690.5675266683  2.64E-06
   156 Broy./SMGL  0.30E+00   12.0     0.00010627     -3690.5675294491 -2.78E-06
   157 Broy./SMGL  0.30E+00   12.0     0.00014936     -3690.5675288401  6.09E-07
   158 Broy./SMGL  0.30E+00   12.1     0.00029610     -3690.5675284987  3.41E-07
   159 Broy./SMGL  0.30E+00   12.0     0.00167938     -3690.5675281267  3.72E-07
   160 Broy./SMGL  0.30E+00   12.0     0.00162993     -3690.5675281717 -4.50E-08
   161 Broy./SMGL  0.30E+00   12.0     0.00348317     -3690.5675254970  2.67E-06
   162 Broy./SMGL  0.30E+00   12.0     0.00455098     -3690.5675300170 -4.52E-06
   163 Broy./SMGL  0.30E+00   12.0     0.00041863     -3690.5675325649 -2.55E-06
   164 Broy./SMGL  0.30E+00   12.0     0.00028153     -3690.5675326027 -3.78E-08
   165 Broy./SMGL  0.30E+00   11.9     0.00114213     -3690.5675316343  9.68E-07
   166 Broy./SMGL  0.30E+00   12.0     0.00187236     -3690.5675261082  5.53E-06
   167 Broy./SMGL  0.30E+00   12.0     0.00036283     -3690.5675255676  5.41E-07
   168 Broy./SMGL  0.30E+00   12.0     0.00029963     -3690.5675257143 -1.47E-07
   169 Broy./SMGL  0.30E+00   12.0     0.00063355     -3690.5675271176 -1.40E-06
   170 Broy./SMGL  0.30E+00   12.0     0.00015603     -3690.5675264889  6.29E-07
   171 Broy./SMGL  0.30E+00   12.0     0.00032318     -3690.5675280107 -1.52E-06
   172 Broy./SMGL  0.30E+00   12.0     0.00070072     -3690.5675276388  3.72E-07
   173 Broy./SMGL  0.30E+00   12.0     0.00085613     -3690.5675302785 -2.64E-06
   174 Broy./SMGL  0.30E+00   12.0     0.00152540     -3690.5675256624  4.62E-06
   175 Broy./SMGL  0.30E+00   11.9     0.00150202     -3690.5675296068 -3.94E-06
   176 Broy./SMGL  0.30E+00   12.0     0.00113449     -3690.5675306661 -1.06E-06
   177 Broy./SMGL  0.30E+00   12.0     0.00157790     -3690.5675328337 -2.17E-06
   178 Broy./SMGL  0.30E+00   12.0     0.00056116     -3690.5675270254  5.81E-06
   179 Broy./SMGL  0.30E+00   12.0     0.00029894     -3690.5675244323  2.59E-06
   180 Broy./SMGL  0.30E+00   12.0     0.00094125     -3690.5675237765  6.56E-07
   181 Broy./SMGL  0.30E+00   12.0     0.00061934     -3690.5675278687 -4.09E-06
   182 Broy./SMGL  0.30E+00   12.0     0.00143326     -3690.5675258287  2.04E-06
   183 Broy./SMGL  0.30E+00   12.0     0.00112322     -3690.5675308392 -5.01E-06
   184 Broy./SMGL  0.30E+00   12.0     0.00302213     -3690.5675267395  4.10E-06
   185 Broy./SMGL  0.30E+00   12.0     0.00143136     -3690.5675397185 -1.30E-05
   186 Broy./SMGL  0.30E+00   12.0     0.00290750     -3690.5675312813  8.44E-06
   187 Broy./SMGL  0.30E+00   12.0     0.00113168     -3690.5675241037  7.18E-06
   188 Broy./SMGL  0.30E+00   12.0     0.00022552     -3690.5675273230 -3.22E-06
   189 Broy./SMGL  0.30E+00   12.0     0.00077263     -3690.5675248915  2.43E-06
   190 Broy./SMGL  0.30E+00   12.0     0.00181566     -3690.5675262035 -1.31E-06
   191 Broy./SMGL  0.30E+00   12.0     0.00096757     -3690.5675294376 -3.23E-06
   192 Broy./SMGL  0.30E+00   12.0     0.00357356     -3690.5675287348  7.03E-07
   193 Broy./SMGL  0.30E+00   12.0     0.00405358     -3690.5675317563 -3.02E-06
   194 Broy./SMGL  0.30E+00   12.0     0.00029383     -3690.5675283711  3.39E-06
   195 Broy./SMGL  0.30E+00   12.0     0.00226742     -3690.5675273021  1.07E-06
