ATOMS
H             3.25353201      5.72009504     18.92650888             0.00000451      0.03873380     -0.70604511
H             3.25943370      5.72541280     19.67648495             0.00000451      0.03873380     -0.70604511
