ATOMS
H             3.25353201      5.72009504     18.92650888            -0.03156357      0.70638655     -0.00466743
H             3.25943370      5.72541280     19.67648495             0.03156357     -0.70638655      0.00466743
