ATOMS
H             3.25353201      5.72009504     18.92650888            -0.70638235     -0.03152719      0.00547787
H             3.25943370      5.72541280     19.67648495             0.70638235      0.03152719     -0.00547787
