ATOMS
H             3.25353201      5.72009504     18.92650888            -0.00526419     -0.00490716     -0.70707016
H             3.25943370      5.72541280     19.67648495             0.00526419      0.00490716      0.70707016
