ATOMS
H             0.00000000      0.00000000     -0.00998254             0.70710486      0.00164551      0.00008228
H             0.00000000      0.00000000      0.73998166            -0.70710486     -0.00164551     -0.00008228
