ATOMS
H             0.00000000      0.00000000     -0.00998254             0.00000002      0.09297700     -0.70096739
H             0.00000000      0.00000000      0.73998166             0.00000002      0.09297700     -0.70096739
