Siesta Version: ismeagol.1.0
Architecture  : thomas-intel2017update1-intelmpi-mkl
Compiler flags: mpif90 -O2 -fPIC -g -ftree-vectorize -xHost
PARALLEL version

* Running on    2 nodes in parallel
>> Start of run:   1-NOV-2023  17:05:59

                           ***********************       
                           *  WELCOME TO SIESTA  *       
                           ***********************       

reinit: Reading from standard input
************************** Dump of input data file ****************************
SystemName		     dft_wfn		# Descriptive name of the system
SystemLabel 			dft_wfn		# Short name for naming files
NumberOfAtoms    12
NumberOfSpecies			1               # Number of species
PAO.BasisType			split		
%block ChemicalSpeciesLabel
  1   3  Li
%endblock ChemicalSpeciesLabel
%block PAO.Basis
Li   1
n=2 0 1
0.0
1.0
%endblock PAO.Basis
%block PS.lmax
 Li   1
%endblock PS.lmax
LatticeConstant 1.000 Ang
%block LatticeVectors
  12.0    0.000   0.000   1
  0.000  12.0   0.000   1
  0.000   0.000     36.0 1
%endblock LatticeVectors
AtomicCoordinatesFormat Ang
%block AtomicCoordinatesAndAtomicSpecies
0.0 0.0 0.0 1 Li
0.0 0.0 3.0 1 Li
0.0 0.0 6.0 1 Li
0.0 0.0 9.0 1 Li
0.0 0.0 12.0 1 Li
0.0 0.0 15.0 1 Li
0.0 0.0 18.0 1 Li
0.0 0.0 21.0 1 Li
0.0 0.0 24.0 1 Li
0.0 0.0 27.0 1 Li
0.0 0.0 30.0 1 Li
0.0 0.0 33.0 1 Li
%endblock AtomicCoordinatesAndAtomicSpecies 	
%block kgrid_Monkhorst_Pack
  2   0   0     0.0
  0   2   0     0.0
  0   0   1     0.0
%endblock kgrid_Monkhorst_Pack
xc.functional		LDA		# 'LDA', 'GGA'
xc.authors 	 		CA		# 'CA'='PZ', 'PW92', 'PBE'
SpinPolarized			F		# 'T', 'F'		
#FixSpin           F
#TotalSpin        0.0
NonCollinearSpin		F		# 'T', 'F'
MeshCutoff 	 		    200 Ry		# Equivalent plane wave cutoff for the grid
MaxSCFIterations                10000                2                10000                10000		10000
DM.MixingWeight			0.1
DM.NumberPulay			4	# Pulay convergency accelerator
DM.MixSCF1			    T
MixHamiltonian      T
DM.PulayOnFile			F		# Store in memory ('F') or in files ('T')
#DM.NumberKick         30
#DM.KickMixingWeight   0.1
DM.Tolerance 		1.0E-4
NeglNonOverlapInt		F		# 'F'=do not neglect
SolutionMethod			diagon
ElectronicTemperature		300 K		# Default value
DM.UseSaveDM 			T
#MD.UseSaveXV			T
#MD.UseSaveCG			T
WriteForces      T
WriteCoorXmol			T		# Write Atoms coordinates
SaveElectrostaticPotential      T
#SaveHS				T		# Save the Hamiltonian and Overlap matrices
SaveRho				T		# Save the valence pseudocharge density
#SaveDeltaRho			T
#WriteDenchar			T		# Write Denchar output
WriteMullikenPop		0 #write mulliken population of aromic and orbital charges
************************** End of input data file *****************************

reinit: -----------------------------------------------------------------------
reinit: System Name: dft_wfn
reinit: -----------------------------------------------------------------------
reinit: System Label: dft_wfn                                                     
reinit: -----------------------------------------------------------------------

initatom: Reading input for the pseudopotentials and atomic orbitals ----------
 Species number:            1  Label: Li Atomic number:           3
Ground state valence configuration:   2s01
Reading pseudopotential information in formatted form from Li.psf

Valence configuration for pseudopotential generation:
2s( 1.00) rc: 2.26
2p( 0.00) rc: 2.26
3d( 0.00) rc: 2.59
4f( 0.00) rc: 2.59
relmxkb: Read Max KB Ang. Momentum=    1 for species Li

<basis_specs>
===============================================================================
Li                   Z=   3    Mass=  6.9400        Charge= 0.17977+309
Lmxo=0 Lmxkb= 1    BasisType=split      Semic=F
L=0  Nsemic=0  Cnfigmx=2
          n=1  nzeta=1  polorb=0
            splnorm:   0.15000    
               vcte:    0.0000    
               rinn:    0.0000    
                rcs:    0.0000    
            lambdas:    1.0000    
-------------------------------------------------------------------------------
L=0  Nkbl=1  erefs: 0.17977+309
L=1  Nkbl=1  erefs: 0.17977+309
===============================================================================
</basis_specs>

atom: Called for Li                    (Z =   3)

read_vps: Pseudopotential generation method:
read_vps: ATM3      Troullier-Martins                       
Total valence charge:    1.00000

read_vps: Pseudopotential includes a core correction:
read_vps: Pseudo-core for xc-correction

xc_check: Exchange-correlation functional:
xc_check: Ceperley-Alder
xc_check: WARNING: Pseudopotential generated with GGA Perdew, Burke & Ernzerhof 1996 functional
V l=0 = -2*Zval/r beyond r=  2.4014
V l=1 = -2*Zval/r beyond r=  2.4014
All V_l potentials equal beyond r=  2.2001
This should be close to max(r_c) in ps generation
All pots = -2*Zval/r beyond r=  2.4014

VLOCAL1: 99.0% of the norm of Vloc inside      8.968 Ry
VLOCAL1: 99.9% of the norm of Vloc inside     20.437 Ry
atom: Maximum radius for 4*pi*r*r*local-pseudopot. charge    2.55631
atom: Maximum radius for r*vlocal+2*Zval:    2.17278
GHOST: No ghost state for L =  0
GHOST: No ghost state for L =  1

KBgen: Kleinman-Bylander projectors: 
   l= 0   rc=  2.721230   el= -0.211995   Ekb=  1.936384   kbcos=  0.226371
   l= 1   rc=  2.860793   el= -0.081473   Ekb= -0.871273   kbcos= -0.142848

KBgen: Total number of  Kleinman-Bylander projectors:    4
atom: -------------------------------------------------------------------------

atom: SANKEY-TYPE ORBITALS:

SPLIT: Orbitals with angular momentum L= 0

SPLIT: Basis orbitals for state 2s

SPLIT: PAO cut-off radius determined from an
SPLIT: energy shift=  0.020000 Ry

   izeta = 1
                 lambda =    1.000000
                     rc =    7.777862
                 energy =   -0.192109
                kinetic =    0.194479
    potential(screened) =   -0.386588
       potential(ionic) =   -0.562300
atom: Total number of Sankey-type orbitals:  1

atm_pop: Valence configuration (for local Pseudopot. screening):
 2s( 1.00)                                                            
Vna: chval, zval:    1.00000   1.00000

Vna:  Cut-off radius for the neutral-atom potential:   7.777862
comcore: Pseudo-core radius Rcore=  3.450946

atom: _________________________________________________________________________

prinput: Basis input ----------------------------------------------------------

PAO.BasisType split     

%block ChemicalSpeciesLabel
    1    3 Li                      # Species index, atomic number, species label
%endblock ChemicalSpeciesLabel

%block PAO.Basis                 # Define Basis set
Li                    1                    # Species label, number of l-shells
 n=2   0   1                         # n, l, Nzeta 
   7.778   
   1.000   
%endblock PAO.Basis

prinput: ----------------------------------------------------------------------

coor:   Atomic-coordinates input format  =     Cartesian coordinates
coor:                                          (in Angstroms)

siesta: Atomic coordinates (Bohr) and species
siesta:      0.00000   0.00000   0.00000  1        1
siesta:      0.00000   0.00000   5.66918  1        2
siesta:      0.00000   0.00000  11.33836  1        3
siesta:      0.00000   0.00000  17.00754  1        4
siesta:      0.00000   0.00000  22.67672  1        5
siesta:      0.00000   0.00000  28.34590  1        6
siesta:      0.00000   0.00000  34.01508  1        7
siesta:      0.00000   0.00000  39.68426  1        8
siesta:      0.00000   0.00000  45.35345  1        9
siesta:      0.00000   0.00000  51.02263  1       10
siesta:      0.00000   0.00000  56.69181  1       11
siesta:      0.00000   0.00000  62.36099  1       12

siesta: System type = chain     

initatomlists: Number of atoms, orbitals, and projectors:     12    12    48

SMEAGOL: ******************* SMEAGOL Simulation parameters ********************
SMEAGOL:
SMEAGOL:       The following are some of the SMEAGOL parameters of the
SMEAGOL:       simulation. A complete list of the parameters used,
SMEAGOL:       including default values, can be found in file fdf.log.
SMEAGOL:
redata: Transport in extended molecule                =      F
redata: # of points in real energy axis integral      =   6000
redata: # of contour points in semi-circle            =     34
redata: # of contour points in line region            =     20
redata: # of poles in the Fermi function              =      5
redata: Initial value of the bias potential           =      0.0000 Ry
redata: Final value of the bias potential             =      0.1000 Ry
redata: # of bias potential points                    =     10
redata: Small imaginary part                          =      0.00010
redata: Lower bound for the contour integral          =     -5.0000 Ry
redata: 1 = Leads with different spin                 =      0
redata: Atom of the lead where bias slope starts      =      1
redata: Atom of the lead where bias slope ends        =     12
redata: # of bulk slices to include in EM             =      1
redata: Calculate transmission coefficients           =      F
redata: Set bulk transversal cell                     =      F
redata: Bulk transversal cell size                    =      3
redata: Write leads H and S matrices at .HSL          =      F
redata: Init transport                                =      F
redata: Force super cell in z direction = 3           =      F
redata: Calculated electronic structure for           =     LR
redata: Write converged DM (at bias/MD selected step) =      F
redata: Hartree Leads Left                            =      0.0000 Bohr
redata: Hartree Leads Right                           =      0.0000 Bohr
redata: Hartree Leads Bottom                          =      0.0000 Ry
redata: Periodic leads in perpendicular directions    =      F
redata: Thresholds at generalized SVD                 =      0.000000001000
redata: Write .orb, .ef and .gHS files                =      F
redata: Write .onlyS files                            =      F
redata: Electron-phonon interaction                   =      F
redata: Invert only central region    =      F
redata: Calculate Forces    =      F
redata: ***********************************************************************

siesta: ******************** SIESTA Simulation parameters *********************
siesta:
siesta:       The following are some of the SIESTA parameters of the
siesta:       simulation. A complete list of the parameters used,
siesta:       including default values, can be found in file fdf.log.
siesta:
redata: Non-Collinear-spin run             =       F
redata: SpinPolarized (Up/Down) run        =       F
redata: Number of spin components          =       1
redata: Long output                        =       F
redata: Number of Atomic Species           =       1
redata: Charge density info will appear in .RHO file
redata: Write Mulliken Pop.                =      NO
redata: Mesh Cutoff                        =     200.0000  Ry
redata: Net charge of the system           =       0.0000 |e|
redata: Max. number of SCF Iter            =   10000
redata: Performing Pulay mixing using      =       4 iterations
redata: Mix DM in first SCF step ?         =       T
redata: Write Pulay info on disk?          =       F
redata: Discard 1st Pulay DM after kick    =       F
redata: New DM Mixing Weight               =       0.1000
redata: New DM Occupancy tolerance         =       0.000000000001
redata: No kicks to SCF
redata: DM Mixing Weight for Kicks         =       0.5000
redata: DM Tolerance for SCF               =       0.000100
redata: Require Energy convergence for SCF =       F
redata: DM Energy tolerance for SCF        =       0.000100 eV
redata: Require Harris convergence for SCF =       F
redata: DM Harris energy tolerance for SCF =       0.000100 eV
redata: Using Saved Data (generic)         =       F
redata: Use continuation files for DM      =       T
redata: Neglect nonoverlap interactions    =       F
redata: Method of Calculation              =     Diagonalization
redata: Divide and Conquer                 =       T
redata: Electronic Temperature             =       0.0019  Ry
redata: Fix the spin of the system         =       F
redata: Dynamics option                    =     Verlet MD run
redata: Initial MD time step               =       1
redata: Final MD time step                 =       1
redata: Length of MD time step             =       1.0000  fs
redata: Initial Temperature of MD run      =       0.0000  K
redata: Perform a MD quench                =       F
redata: ***********************************************************************

Total number of electrons:    12.000000
Total ionic charge:    12.000000

* ProcessorY, Blocksize:    1   6

k-point displ. along   1 input, could be:     0.00    0.50
k-point displ. along   2 input, could be:     0.00    0.50
 Kpoints in:            4 . Kpoints trimmed:            4

siesta: k-grid: Number of k-points =     4
siesta: k-grid: Cutoff (effective) =    12.000 Ang
siesta: k-grid: Supercell and displacements
siesta: k-grid:    2   0   0      0.000
siesta: k-grid:    0   2   0      0.000
siesta: k-grid:    0   0   1      0.000
siesta: overlap:  rmaxh   veclen  direction
siesta: overlap:  21.2773 22.6767   1
siesta: overlap:  rmaxh   veclen  direction
siesta: overlap:  21.2773 22.6767   2
siesta: overlap:  rmaxh   veclen  direction
siesta: overlap:  21.2773 68.0302   3
Naive supercell factors:     2    2    1

superc: Internal auxiliary supercell:     2 x     2 x     1  =       4
superc: Number of atoms, orbitals, and projectors:     48     48    192

* Maximum dynamic memory allocated =     1 MB

siesta:                 ===============================
                            Begin MD step =      1
                        ===============================

superc: Internal auxiliary supercell:     2 x     2 x     1  =       4
superc: Number of atoms, orbitals, and projectors:     48     48    192

outcell: Unit cell vectors (Ang):
       12.000000    0.000000    0.000000
        0.000000   12.000000    0.000000
        0.000000    0.000000   36.000000

outcell: Cell vector modules (Ang)   :   12.000000   12.000000   36.000000
outcell: Cell angles (23,13,12) (deg):     90.0000     90.0000     90.0000
outcell: Cell volume (Ang**3)        :   5184.0000
New_DM. Step:     1
Initializing Density Matrix...

InitMesh: MESH =   108 x   108 x   320 =     3732480
InitMesh: Mesh cutoff (required, used) =   200.000   218.372 Ry

* Maximum dynamic memory allocated =   131 MB

stepf: Fermi-Dirac step function

siesta: Program's energy decomposition (eV):
siesta: Ebs     =       -43.337830
siesta: Eions   =       132.671799
siesta: Ena     =        63.210749
siesta: Ekin    =        31.738355
siesta: Enl     =        20.034121
siesta: DEna    =         0.000000
siesta: DUscf   =         0.000000
siesta: DUext   =         0.000000
siesta: Exc     =      -134.296697
siesta: eta*DQ  =         0.000000
siesta: Emadel  =         0.000000
siesta: Emeta   =         0.000000
siesta: Emolmec =         0.000000
siesta: Ekinion =         0.000000
siesta: Eharris =      -157.625918
siesta: Etot    =      -151.985272
siesta: FreeEng =      -151.985272

siesta: iscf   Eharris(eV)      E_KS(eV)   FreeEng(eV)   dDmax  Ef(eV)
siesta:    1     -157.6259     -151.9853     -151.9853  0.3901 -2.9736
timer: Routine,Calls,Time,% = IterSCF        1       1.922  93.82
elaps: Routine,Calls,Wall,% = IterSCF        1       0.965  93.27
siesta:    2     -157.6287     -152.5495     -152.6212  0.3511 -2.9672
siesta:    3     -157.6406     -157.6406     -157.7122  0.0000 -2.9071

siesta: E_KS(eV) =             -157.6406

siesta: E_KS - E_eggbox =      -157.6406

siesta: Atomic forces (eV/Ang):
     1   -0.000000   -0.000000   -0.000000
     2    0.000000    0.000000    0.000607
     3    0.000000    0.000000   -0.000607
     4   -0.000000    0.000000    0.000000
     5    0.000000    0.000000    0.000607
     6    0.000000    0.000000   -0.000607
     7   -0.000000    0.000000    0.000000
     8   -0.000000    0.000000    0.000607
     9    0.000000    0.000000   -0.000607
    10   -0.000000    0.000000    0.000000
    11   -0.000000   -0.000000    0.000607
    12    0.000000    0.000000   -0.000607
----------------------------------------
   Tot   -0.000000    0.000000    0.000001
----------------------------------------
   Max    0.000607
   Res    0.000286    sqrt( Sum f_i^2 / 3N )
----------------------------------------
   Max    0.000607    constrained

Stress-tensor-Voigt (kbar):       -0.00       -0.00       -0.14        0.00        0.00       -0.00
(Free)E + p*V (eV/cell)     -157.5619
Target enthalpy (eV/cell)     -157.7122

siesta: Stress tensor (static) (eV/Ang**3):
        -0.000001    0.000000   -0.000000
         0.000000   -0.000001    0.000000
        -0.000000    0.000000   -0.000084

siesta: Pressure (static):          0.04647091  kBar

siesta: Stress tensor (total) (eV/Ang**3):
        -0.000001    0.000000   -0.000000
         0.000000   -0.000001    0.000000
        -0.000000    0.000000   -0.000084

siesta: Pressure (total):          0.04647091  kBar

siesta: Temp_ion =       0.000 K

* Maximum dynamic memory allocated =   131 MB

coxmol: Writing XMOL coordinates into file dft_wfn.xyz                                                     

siesta: Program's energy decomposition (eV):
siesta: Ebs     =       -42.560998
siesta: Eions   =       132.671799
siesta: Ena     =        63.210749
siesta: Ekin    =        26.165814
siesta: Enl     =        21.041961
siesta: DEna    =        -0.552922
siesta: DUscf   =         0.021955
siesta: DUext   =         0.000000
siesta: Exc     =      -134.856324
siesta: eta*DQ  =         0.000000
siesta: Emadel  =         0.000000
siesta: Emeta   =         0.000000
siesta: Emolmec =         0.000000
siesta: Ekinion =         0.000000
siesta: Eharris =      -157.640567
siesta: Etot    =      -157.640567
siesta: FreeEng =      -157.712244

siesta: Final energy (eV):
siesta:  Band Struct. =     -42.560998
siesta:       Kinetic =      26.165814
siesta:       Hartree =      40.977941
siesta:    Ext. field =       0.000000
siesta:   Exch.-corr. =    -134.856324
siesta:  Ion-electron =     -90.774822
siesta:       Ion-ion =       0.846824
siesta:       Ekinion =       0.000000
siesta:         Total =    -157.640567

siesta: Stress tensor (static) (eV/Ang**3):
siesta:    -0.000001    0.000000   -0.000000
siesta:     0.000000   -0.000001    0.000000
siesta:    -0.000000    0.000000   -0.000084

siesta: Cell volume =       5184.000000 Ang**3

siesta: Pressure (static):
siesta:                Solid            Molecule  Units
siesta:           0.00000032          0.00000032  Ry/Bohr**3
siesta:           0.00002900          0.00002947  eV/Ang**3
siesta:           0.04647091          0.04722115  kBar
(Free)E+ p_basis*V_orbitals  =        -153.337342
(Free)Eharris+ p_basis*V_orbitals  =        -153.337342

siesta: Electric dipole (a.u.)  =    0.000000    0.000000    0.000000
siesta: Electric dipole (Debye) =    0.000000    0.000000    0.000000

* Maximum dynamic memory allocated : Node    0 =   131 MB
* Maximum dynamic memory allocated : Node    1 =   131 MB

* Maximum memory occured during redistribXZ                   

timer: CPU execution times:
timer:  Routine       Calls   Time/call    Tot.time        %
timer:  siesta            1       6.174       6.174   100.00
timer:  Setup             1       0.122       0.122     1.97
timer:  bands             1       0.000       0.000     0.01
timer:  writewave         1       0.001       0.001     0.02
timer:  KSV_init          1       0.000       0.000     0.00
timer:  IterMD            1       4.880       4.880    79.04
timer:  hsparse           1       0.000       0.000     0.00
timer:  overlap           1       0.001       0.001     0.01
timer:  IterSCF           3       1.179       3.538    57.30
timer:  kinefsm           2       0.000       0.000     0.00
timer:  nlefsm            2       0.002       0.004     0.06
timer:  DHSCF             5       1.184       5.921    95.90
timer:  DHSCF1            1       0.204       0.204     3.30
timer:  DHSCF2            1       0.854       0.854    13.83
timer:  REORD            56       0.003       0.169     2.73
timer:  POISON            6       0.520       3.121    50.55
timer:  DHSCF3            5       0.874       4.368    70.75
timer:  rhoofd            5       0.016       0.079     1.27
timer:  cellXC            5       0.178       0.889    14.39
timer:  vmat              4       0.015       0.059     0.96
timer:  MolMec            2       0.000       0.000     0.00
timer:  diagon            3       0.008       0.025     0.41
timer:  c-eigval         12       0.001       0.013     0.21
timer:  c-buildHS        12       0.000       0.000     0.00
timer:  cdiag            24       0.001       0.023     0.37
timer:  cdiag1           24       0.000       0.002     0.04
timer:  cdiag2           24       0.000       0.002     0.04
timer:  cdiag3           24       0.000       0.011     0.18
timer:  cdiag4           24       0.000       0.001     0.02
timer:  c-eigvec         12       0.001       0.010     0.17
timer:  c-buildD         12       0.000       0.000     0.01
timer:  DHSCF4            1       0.446       0.446     7.23
timer:  dfscf             1       0.256       0.256     4.14
timer:  overfsm           1       0.000       0.000     0.00
timer:  optical           1       0.034       0.034     0.55
  

elaps: ELAPSED times:
elaps:  Routine       Calls   Time/call    Tot.time        %
elaps:  siesta            1       3.136       3.136   100.00
elaps:  Setup             1       0.067       0.067     2.12
elaps:  bands             1       0.000       0.000     0.01
elaps:  writewave         1       0.001       0.001     0.02
elaps:  KSV_init          1       0.000       0.000     0.00
elaps:  IterMD            1       2.462       2.462    78.50
elaps:  hsparse           1       0.000       0.000     0.00
elaps:  overlap           1       0.000       0.000     0.01
elaps:  IterSCF           3       0.592       1.776    56.62
elaps:  kinefsm           2       0.000       0.000     0.01
elaps:  nlefsm            2       0.001       0.002     0.07
elaps:  DHSCF             5       0.595       2.975    94.84
elaps:  DHSCF1            1       0.106       0.106     3.37
elaps:  DHSCF2            1       0.425       0.425    13.54
elaps:  REORD            56       0.002       0.084     2.68
elaps:  POISON            6       0.261       1.564    49.86
elaps:  DHSCF3            5       0.439       2.195    69.97
elaps:  rhoofd            5       0.008       0.041     1.29
elaps:  cellXC            5       0.089       0.445    14.17
elaps:  vmat              4       0.007       0.030     0.94
elaps:  MolMec            2       0.000       0.000     0.00
elaps:  diagon            3       0.005       0.014     0.45
elaps:  c-eigval         12       0.001       0.006     0.20
elaps:  c-buildHS        12       0.000       0.000     0.00
elaps:  cdiag            24       0.000       0.010     0.33
elaps:  cdiag1           24       0.000       0.001     0.05
elaps:  cdiag2           24       0.000       0.001     0.03
elaps:  cdiag3           24       0.000       0.006     0.18
elaps:  cdiag4           24       0.000       0.000     0.02
elaps:  c-eigvec         12       0.000       0.004     0.13
elaps:  c-buildD         12       0.000       0.000     0.00
elaps:  DHSCF4            1       0.226       0.226     7.20
elaps:  dfscf             1       0.129       0.129     4.11
elaps:  overfsm           1       0.000       0.000     0.00
elaps:  optical           1       0.000       0.000     0.00
  
>> End of run:   1-NOV-2023  17:06:02
