     192
 i =        1, E =     -6383.3976673699
 Au         1.4843232000        0.8569744000        0.0000000000
 Au         4.4529696000        0.8569744000        0.0000000000
 Au         7.4216160000        0.8569744000        0.0000000000
 Au        10.3902624000        0.8569744000        0.0000000000
 Au        13.3589088000        0.8569744000        0.0000000000
 Au        16.3275552000        0.8569744000        0.0000000000
 Au         0.0000000000        3.4278976000        0.0000000000
 Au         2.9686464000        3.4278976000        0.0000000000
 Au         5.9372928000        3.4278976000        0.0000000000
 Au         8.9059392000        3.4278976000        0.0000000000
 Au        11.8745856000        3.4278976000        0.0000000000
 Au        14.8432320000        3.4278976000        0.0000000000
 Au         1.4843232000        5.9988207900        0.0000000000
 Au         4.4529696000        5.9988207900        0.0000000000
 Au         7.4216160000        5.9988207900        0.0000000000
 Au        10.3902624000        5.9988207900        0.0000000000
 Au        13.3589088000        5.9988207900        0.0000000000
 Au        16.3275552000        5.9988207900        0.0000000000
 Au         0.0000000000        8.5697439900        0.0000000000
 Au         2.9686464000        8.5697439900        0.0000000000
 Au         5.9372928000        8.5697439900        0.0000000000
 Au         8.9059392000        8.5697439900        0.0000000000
 Au        11.8745856000        8.5697439900        0.0000000000
 Au        14.8432320000        8.5697439900        0.0000000000
 Au         1.4843232000       11.1406671900        0.0000000000
 Au         4.4529696000       11.1406671900        0.0000000000
 Au         7.4216160000       11.1406671900        0.0000000000
 Au        10.3902624000       11.1406671900        0.0000000000
 Au        13.3589088000       11.1406671900        0.0000000000
 Au        16.3275552000       11.1406671900        0.0000000000
 Au         0.0000000000       13.7115903800        0.0000000000
 Au         2.9686464000       13.7115903800        0.0000000000
 Au         5.9372928000       13.7115903800        0.0000000000
 Au         8.9059392000       13.7115903800        0.0000000000
 Au        11.8745856000       13.7115903800        0.0000000000
 Au        14.8432320000       13.7115903800        0.0000000000
 Au         0.0000000001        1.7140611051        2.4233143522
 Au         2.9686429519        1.7138592924        2.4232165307
 Au         5.9372719047        1.7139844217        2.4233525513
 Au         8.9059392000        1.7140794461        2.4234639667
 Au        11.8746064953        1.7139844217        2.4233525513
 Au        14.8432354481        1.7138592924        2.4232165307
 Au         1.4842557515        4.2848598821        2.4231802870
 Au         4.4534149937        4.2851636863        2.4239344133
 Au         7.4221475609        4.2850342461        2.4236510460
 Au        10.3897308391        4.2850342461        2.4236510460
 Au        13.3584634063        4.2851636863        2.4239344133
 Au        16.3276226484        4.2848598821        2.4231802870
 Au         0.0000000001        6.8557526271        2.4232226813
 Au         2.9687101004        6.8557730434        2.4232745717
 Au         5.9376634337        6.8561875592        2.4236292810
 Au         8.9059392000        6.8557377984        2.4229063841
 Au        11.8742149663        6.8561875592        2.4236292810
 Au        14.8431682995        6.8557730434        2.4232745717
 Au         1.4844157674        9.4267461435        2.4233070218
 Au         4.4531413533        9.4265933540        2.4234134557
 Au         7.4214663993        9.4261901911        2.4236262373
 Au        10.3904120007        9.4261901911        2.4236262373
 Au        13.3587370467        9.4265933540        2.4234134557
 Au        16.3274626326        9.4267461435        2.4233070218
 Au         0.0000000001       11.9976147155        2.4233117415
 Au         2.9686730026       11.9976386773        2.4232575924
 Au         5.9372972116       11.9975320078        2.4233689851
 Au         8.9059392000       11.9971252759        2.4239349265
 Au        11.8745811884       11.9975320078        2.4233689851
 Au        14.8432053974       11.9976386773        2.4232575924
 Au         1.4843128086       14.5685783672        2.4232976851
 Au         4.4529540768       14.5686081642        2.4232603387
 Au         7.4216527786       14.5686521749        2.4231990346
 Au        10.3902256213       14.5686521749        2.4231990346
 Au        13.3589243232       14.5686081642        2.4232603387
 Au        16.3275655914       14.5685783672        2.4232976851
 Au         0.0000000001        0.0000163396        4.8492391173
 Au         2.9686528476       -0.0000114784        4.8491861086
 Au         5.9372973098       -0.0000055804        4.8492377452
 Au         8.9059392000        0.0000016943        4.8492123168
 Au        11.8745810902       -0.0000055804        4.8492377452
 Au        14.8432255523       -0.0000114785        4.8491861086
 Au         1.4842206806        2.5708504917        4.8492421026
 Au         4.4528605540        2.5707199376        4.8491688954
 Au         7.4213271613        2.5699943348        4.8491971209
 Au        10.3905512387        2.5699943348        4.8491971209
 Au        13.3590178460        2.5707199376        4.8491688954
 Au        16.3276577193        2.5708504917        4.8492421027
 Au         0.0000000001        5.1418078915        4.8491534840
 Au         2.9684308858        5.1418377823        4.8491899593
 Au         5.9369028810        5.1416224411        4.8537200335
 Au         8.9059392000        5.1390322962        4.8525995878
 Au        11.8749755190        5.1416224411        4.8537200334
 Au        14.8434475142        5.1418377822        4.8491899593
 Au         1.4843778117        7.7128179191        4.8492450345
 Au         4.4521319505        7.7129534360        4.8492757193
 Au         7.4190964776        7.7141976128        4.8525494867
 Au        10.3927819224        7.7141976128        4.8525494867
 Au        13.3597464495        7.7129534360        4.8492757193
 Au        16.3275005883        7.7128179192        4.8492450345
 Au         0.0000000001       10.2836045090        4.8491668320
 Au         2.9685984066       10.2837387300        4.8492167731
 Au         5.9366278925       10.2843187131        4.8491974983
 Au         8.9059392000       10.2840581102        4.8536559685
 Au        11.8752505075       10.2843187132        4.8491974983
 Au        14.8432799933       10.2837387300        4.8492167731
 Au         1.4844077215       12.8546302402        4.8492166703
 Au         4.4529501764       12.8545763155        4.8492386633
 Au         7.4215231959       12.8548955313        4.8491482470
 Au        10.3903552041       12.8548955313        4.8491482470
 Au        13.3589282236       12.8545763155        4.8492386633
 Au        16.3274706785       12.8546302402        4.8492166703
 Au         7.4257190846        6.0011796193        7.2692152024
 Au        10.3861593154        6.0011796193        7.2692152025
 Au         8.9059392000        8.5650199384        7.2691402032
 Au         8.9059392000        6.8557414033        9.6581830612
 Au         8.9059392000        6.8558252248       12.1187124818
 Au         8.9059392000        6.8558661797       14.5455597854
 Au         8.9059392000        6.8557181414       16.9703695718
 Au         8.9059392000        6.8557685321       19.3970050233
 Au         8.9059392000        6.8558574508       21.8576313371
 Au         8.9059392000        5.1465492605       24.2467339981
 Au         7.4257099683        7.7104164826       24.2466318420
 Au        10.3861684317        7.7104164826       24.2466318420
 Au         0.0000000001        1.7139000213       26.6667796596
 Au         2.9686638900        1.7140071734       26.6666698947
 Au         5.9369782380        1.7138174442       26.6668696983
 Au         8.9059392000        1.7132734545       26.6664336610
 Au        11.8749001620        1.7138174442       26.6668696983
 Au        14.8432145099        1.7140071734       26.6666698947
 Au         1.4844640286        4.2848361622       26.6667264627
 Au         4.4525546765        4.2846021187       26.6670571087
 Au         7.4218414268        4.2834079801       26.6630830312
 Au        10.3900369732        4.2834079800       26.6630830312
 Au        13.3593237235        4.2846021187       26.6670571087
 Au        16.3274143714        4.2848361621       26.6667264626
 Au         0.0000000001        6.8558883064       26.6667768248
 Au         2.9684307196        6.8556902331       26.6667616737
 Au         5.9360930485        6.8567584600       26.6630909864
 Au         8.9059392000        6.8558351941       26.6647996935
 Au        11.8757853515        6.8567584600       26.6630909865
 Au        14.8434476804        6.8556902331       26.6667616737
 Au         1.4842095147        9.4267347474       26.6667261177
 Au         4.4524391481        9.4270142135       26.6663484109
 Au         7.4201891032        9.4272719454       26.6630957632
 Au        10.3916892968        9.4272719454       26.6630957632
 Au        13.3594392519        9.4270142135       26.6663484109
 Au        16.3276688853        9.4267347475       26.6667261176
 Au         0.0000000001       11.9976460259       26.6667405649
 Au         2.9686347676       11.9976861758       26.6667388034
 Au         5.9373060879       11.9979750395       26.6668584879
 Au         8.9059392000       11.9981814597       26.6670924659
 Au        11.8745723121       11.9979750395       26.6668584879
 Au        14.8432436323       11.9976861758       26.6667388034
 Au         1.4843052241       14.5684920761       26.6667484037
 Au         4.4530070680       14.5685688028       26.6667466394
 Au         7.4216271002       14.5685625551       26.6666848707
 Au        10.3902512999       14.5685625550       26.6666848708
 Au        13.3588713320       14.5685688029       26.6667466394
 Au        16.3275731759       14.5684920761       26.6667484037
 Au         0.0000000001       -0.0000412224       29.0926461944
 Au         2.9686699483        0.0000471407       29.0926645309
 Au         5.9372868679       -0.0000333422       29.0927234285
 Au         8.9059392000        0.0001365351       29.0925290060
 Au        11.8745915321       -0.0000333422       29.0927234285
 Au        14.8432084517        0.0000471407       29.0926645309
 Au         1.4843878776        2.5709971832       29.0926668918
 Au         4.4530044658        2.5708152660       29.0926396833
 Au         7.4214382111        2.5712292575       29.0925210663
 Au        10.3904401889        2.5712292575       29.0925210663
 Au        13.3588739342        2.5708152660       29.0926396833
 Au        16.3274905224        2.5709971832       29.0926668918
 Au         0.0000000001        5.1418377169       29.0926900514
 Au         2.9685661009        5.1418670376       29.0926822953
 Au         5.9374052002        5.1419384012       29.0918623087
 Au         8.9059392000        5.1426597858       29.0927325429
 Au        11.8744731998        5.1419384012       29.0918623087
 Au        14.8433122991        5.1418670376       29.0926822952
 Au         1.4843103463        7.7127613124       29.0927234495
 Au         4.4531493850        7.7125398578       29.0925580765
 Au         7.4223295575        7.7123809138       29.0927293159
 Au        10.3895488426        7.7123809138       29.0927293159
 Au        13.3587290151        7.7125398578       29.0925580765
 Au        16.3275680537        7.7127613124       29.0927234495
 Au         0.0000000001       10.2837382717       29.0926697262
 Au         2.9688536603       10.2835424665       29.0925874915
 Au         5.9375714320       10.2836771831       29.0925207884
 Au         8.9059392000       10.2835748863       29.0918946654
 Au        11.8743069680       10.2836771831       29.0925207884
 Au        14.8430247396       10.2835424665       29.0925874915
 Au         1.4843145200       12.8546432029       29.0926978491
 Au         4.4529271271       12.8546157985       29.0926631731
 Au         7.4215703226       12.8546024290       29.0926361086
 Au        10.3903080774       12.8546024290       29.0926361086
 Au        13.3589512729       12.8546157985       29.0926631731
 Au        16.3275638800       12.8546432029       29.0926978491
     192
 i =        2, E =     -6383.4387084077
 Au         1.4843232000        0.8569744000        0.0000000000
 Au         4.4529696000        0.8569744000        0.0000000000
 Au         7.4216160000        0.8569744000        0.0000000000
 Au        10.3902624000        0.8569744000        0.0000000000
 Au        13.3589088000        0.8569744000        0.0000000000
 Au        16.3275552000        0.8569744000        0.0000000000
 Au         0.0000000000        3.4278976000        0.0000000000
 Au         2.9686464000        3.4278976000        0.0000000000
 Au         5.9372928000        3.4278976000        0.0000000000
 Au         8.9059392000        3.4278976000        0.0000000000
 Au        11.8745856000        3.4278976000        0.0000000000
 Au        14.8432320000        3.4278976000        0.0000000000
 Au         1.4843232000        5.9988207900        0.0000000000
 Au         4.4529696000        5.9988207900        0.0000000000
 Au         7.4216160000        5.9988207900        0.0000000000
 Au        10.3902624000        5.9988207900        0.0000000000
 Au        13.3589088000        5.9988207900        0.0000000000
 Au        16.3275552000        5.9988207900        0.0000000000
 Au         0.0000000000        8.5697439900        0.0000000000
 Au         2.9686464000        8.5697439900        0.0000000000
 Au         5.9372928000        8.5697439900        0.0000000000
 Au         8.9059392000        8.5697439900        0.0000000000
 Au        11.8745856000        8.5697439900        0.0000000000
 Au        14.8432320000        8.5697439900        0.0000000000
 Au         1.4843232000       11.1406671900        0.0000000000
 Au         4.4529696000       11.1406671900        0.0000000000
 Au         7.4216160000       11.1406671900        0.0000000000
 Au        10.3902624000       11.1406671900        0.0000000000
 Au        13.3589088000       11.1406671900        0.0000000000
 Au        16.3275552000       11.1406671900        0.0000000000
 Au         0.0000000000       13.7115903800        0.0000000000
 Au         2.9686464000       13.7115903800        0.0000000000
 Au         5.9372928000       13.7115903800        0.0000000000
 Au         8.9059392000       13.7115903800        0.0000000000
 Au        11.8745856000       13.7115903800        0.0000000000
 Au        14.8432320000       13.7115903800        0.0000000000
 Au         0.0000000007        1.7148056009        2.4192736158
 Au         2.9686203861        1.7133092920        2.4185155877
 Au         5.9371289641        1.7143011125        2.4195439428
 Au         8.9059392000        1.7149646597        2.4203927584
 Au        11.8747494359        1.7143011122        2.4195439426
 Au        14.8432580135        1.7133092922        2.4185155879
 Au         1.4838740267        4.2847661001        2.4182417037
 Au         4.4566949601        4.2872847118        2.4243259019
 Au         7.4256222269        4.2864025397        2.4223458056
 Au        10.3862561731        4.2864025397        2.4223458056
 Au        13.3551834398        4.2872847118        2.4243259019
 Au        16.3280043728        4.2847661001        2.4182417037
 Au         0.0000000007        6.8554855418        2.4185972609
 Au         2.9691866660        6.8555928462        2.4189503525
 Au         5.9403530273        6.8585890374        2.4221672600
 Au         8.9059392001        6.8553583385        2.4172733367
 Au        11.8715253727        6.8585890374        2.4221672597
 Au        14.8426917336        6.8555928461        2.4189503526
 Au         1.4850473567        9.4269271968        2.4192192719
 Au         4.4542751345        9.4257548362        2.4200182135
 Au         7.4207676070        9.4225823261        2.4221376962
 Au        10.3911107929        9.4225823261        2.4221376962
 Au        13.3576032654        9.4257548363        2.4200182135
 Au        16.3268310427        9.4269271973        2.4192192724
 Au         0.0000000008       11.9974401457        2.4192832689
 Au         2.9688555292       11.9976233525        2.4188292353
 Au         5.9373803885       11.9967798844        2.4196772300
 Au         8.9059392001       11.9933202418        2.4243332220
 Au        11.8744980117       11.9967798845        2.4196772299
 Au        14.8430228704       11.9976233523        2.4188292353
 Au         1.4842301927       14.5686672311        2.4191516654
 Au         4.4528583720       14.5688853525        2.4188588489
 Au         7.4219102027       14.5692125180        2.4183637006
 Au        10.3899681973       14.5692125182        2.4183637007
 Au        13.3590200281       14.5688853526        2.4188588489
 Au        16.3276482071       14.5686672311        2.4191516655
 Au         0.0000000006        0.0001064466        4.8580537163
 Au         2.9686784146       -0.0001131469        4.8576350375
 Au         5.9372814983       -0.0000932603        4.8580494626
 Au         8.9059392000       -0.0000525358        4.8578618583
 Au        11.8745969018       -0.0000932605        4.8580494632
 Au        14.8431999850       -0.0001131465        4.8576350372
 Au         1.4835235360        2.5703475131        4.8580655817
 Au         4.4520839138        2.5693807045        4.8575149605
 Au         7.4192399963        2.5636111297        4.8577447191
 Au        10.3926384037        2.5636111297        4.8577447191
 Au        13.3597944862        2.5693807046        4.8575149605
 Au        16.3283548639        2.5703475136        4.8580655819
 Au         0.0000000007        5.1415540690        4.8573543743
 Au         2.9669827393        5.1417264535        4.8576690183
 Au         5.9342098843        5.1400699412        4.8929453633
 Au         8.9059392001        5.1199019580        4.8831439739
 Au        11.8776685157        5.1400699412        4.8929453631
 Au        14.8448956603        5.1417264534        4.8576690185
 Au         1.4846698166        7.7131427463        4.8580807526
 Au         4.4463099903        7.7141375616        4.8583652084
 Au         7.4019853660        7.7238967897        4.8827519738
 Au        10.4098930340        7.7238967897        4.8827519736
 Au        13.3655684096        7.7141375616        4.8583652084
 Au        16.3272085834        7.7131427477        4.8580807515
 Au         0.0000000005       10.2830209154        4.8574496608
 Au         2.9681953973       10.2840917036        4.8578808896
 Au         5.9321014031       10.2887236190        4.8577503286
 Au         8.9059392000       10.2865936442        4.8924181307
 Au        11.8797769970       10.2887236190        4.8577503286
 Au        14.8436830025       10.2840917034        4.8578808900
 Au         1.4849547565       12.8547402138        4.8578555515
 Au         4.4527907375       12.8543746002        4.8580546359
 Au         7.4209207623       12.8567778680        4.8573326609
 Au        10.3909576377       12.8567778681        4.8573326609
 Au        13.3590876626       12.8543746002        4.8580546359
 Au        16.3269236433       12.8547402142        4.8578555513
 Au         7.4510935229        6.0157405540        7.2497154601
 Au        10.3607848771        6.0157405540        7.2497154603
 Au         8.9059391999        8.5358314341        7.2491346288
 Au         8.9059391997        6.8553757576        9.4402693474
 Au         8.9059392001        6.8560374978       12.0759147543
 Au         8.9059391998        6.8563691791       14.5547318303
 Au         8.9059392000        6.8551765970       16.9918749747
 Au         8.9059391997        6.8555755836       19.4695485974
 Au         8.9059392000        6.8562789936       22.1053419877
 Au         8.9059392000        5.1756027782       24.2972640238
 Au         7.4510301884        7.6958934350       24.2964894049
 Au        10.3608482118        7.6958934349       24.2964894050
 Au         0.0000000006        1.7135585062       26.6895263117
 Au         2.9687231715        1.7143372810       26.6886290491
 Au         5.9348388317        1.7128943732       26.6901765476
 Au         8.9059392000        1.7085820380       26.6868059272
 Au        11.8770395681        1.7128943731       26.6901765476
 Au        14.8431552281        1.7143372811       26.6886290491
 Au         1.4853369914        4.2845880290       26.6890882464
 Au         4.4498894463        4.2828615562       26.6916546287
 Au         7.4231705537        4.2734468166       26.6609070323
 Au        10.3887078463        4.2734468166       26.6609070323
 Au        13.3619889537        4.2828615561       26.6916546288
 Au        16.3265414087        4.2845880292       26.6890882460
 Au         0.0000000006        6.8564992897       26.6894987107
 Au         2.9669337786        6.8549866635       26.6893421724
 Au         5.9278277284        6.8631285944       26.6609525068
 Au         8.9059392001        6.8561310298       26.6762525110
 Au        11.8840506716        6.8631285945       26.6609525072
 Au        14.8449446210        6.8549866634       26.6893421724
 Au         1.4834023876        9.4268595428       26.6890841714
 Au         4.4487180782        9.4290985146       26.6861126831
 Au         7.4105953237        9.4312153276       26.6609912757
 Au        10.4012830763        9.4312153276       26.6609912757
 Au        13.3631603217        9.4290985146       26.6861126831
 Au        16.3284760124        9.4268595444       26.6890841696
 Au         0.0000000005       11.9976732637       26.6891930511
 Au         2.9685285262       11.9980211036       26.6891761332
 Au         5.9373806555       12.0002567607       26.6900825924
 Au         8.9059392000       12.0016836408       26.6919294184
 Au        11.8744977446       12.0002567606       26.6900825924
 Au        14.8433498734       11.9980211039       26.6891761331
 Au         1.4842021585       14.5679999274       26.6892521315
 Au         4.4532219596       14.5686016962       26.6892375957
 Au         7.4216547243       14.5685740154       26.6887424465
 Au        10.3902236757       14.5685740152       26.6887424466
 Au        13.3586564403       14.5686016961       26.6892375956
 Au        16.3276762413       14.5679999282       26.6892521304
 Au         0.0000000006       -0.0002861642       29.1278150944
 Au         2.9688021798        0.0003567799       29.1279379266
 Au         5.9372736869       -0.0002648830       29.1284128431
 Au         8.9059391999        0.0011291795       29.1269156115
 Au        11.8746047130       -0.0002648830       29.1284128431
 Au        14.8430762197        0.0003567798       29.1279379266
 Au         1.4847960275        2.5714720507       29.1279607113
 Au         4.4532496468        2.5701125695       29.1277960294
 Au         7.4203406296        2.5735424869       29.1266476619
 Au        10.3915377705        2.5735424869       29.1266476619
 Au        13.3586287532        2.5701125694       29.1277960294
 Au        16.3270823724        2.5714720507       29.1279607113
 Au         0.0000000006        5.1417746441       29.1281149258
 Au         2.9680619165        5.1420141575       29.1281143515
 Au         5.9383554017        5.1426816030       29.1212443690
 Au         8.9059392000        5.1479499197       29.1278435337
 Au        11.8735229982        5.1426816030       29.1212443692
 Au        14.8438164830        5.1420141575       29.1281143513
 Au         1.4842363328        7.7127214665       29.1284024502
 Au         4.4546315585        7.7109336520       29.1269293619
 Au         7.4269761405        7.7098614941       29.1278206472
 Au        10.3849022596        7.7098614941       29.1278206474
 Au        13.3572468416        7.7109336520       29.1269293619
 Au        16.3276420670        7.7127214673       29.1284024505
 Au         0.0000000006       10.2840605741       29.1279927831
 Au         2.9703017855       10.2824984362       29.1273484748
 Au         5.9396273103       10.2833630697       29.1266394220
 Au         8.9059391999       10.2825258808       29.1214943679
 Au        11.8722510896       10.2833630697       29.1266394220
 Au        14.8415766139       10.2824984363       29.1273484749
 Au         1.4842731846       12.8548085962       29.1282080201
 Au         4.4526169905       12.8545966041       29.1279548246
 Au         7.4212679468       12.8545064390       29.1277696888
 Au        10.3906104533       12.8545064388       29.1277696888
 Au        13.3592614093       12.8545966040       29.1279548246
 Au        16.3276052153       12.8548085967       29.1282080203
     192
 i =        3, E =     -6383.4453685350
 Au         1.4843232000        0.8569744000        0.0000000000
 Au         4.4529696000        0.8569744000        0.0000000000
 Au         7.4216160000        0.8569744000        0.0000000000
 Au        10.3902624000        0.8569744000        0.0000000000
 Au        13.3589088000        0.8569744000        0.0000000000
 Au        16.3275552000        0.8569744000        0.0000000000
 Au         0.0000000000        3.4278976000        0.0000000000
 Au         2.9686464000        3.4278976000        0.0000000000
 Au         5.9372928000        3.4278976000        0.0000000000
 Au         8.9059392000        3.4278976000        0.0000000000
 Au        11.8745856000        3.4278976000        0.0000000000
 Au        14.8432320000        3.4278976000        0.0000000000
 Au         1.4843232000        5.9988207900        0.0000000000
 Au         4.4529696000        5.9988207900        0.0000000000
 Au         7.4216160000        5.9988207900        0.0000000000
 Au        10.3902624000        5.9988207900        0.0000000000
 Au        13.3589088000        5.9988207900        0.0000000000
 Au        16.3275552000        5.9988207900        0.0000000000
 Au         0.0000000000        8.5697439900        0.0000000000
 Au         2.9686464000        8.5697439900        0.0000000000
 Au         5.9372928000        8.5697439900        0.0000000000
 Au         8.9059392000        8.5697439900        0.0000000000
 Au        11.8745856000        8.5697439900        0.0000000000
 Au        14.8432320000        8.5697439900        0.0000000000
 Au         1.4843232000       11.1406671900        0.0000000000
 Au         4.4529696000       11.1406671900        0.0000000000
 Au         7.4216160000       11.1406671900        0.0000000000
 Au        10.3902624000       11.1406671900        0.0000000000
 Au        13.3589088000       11.1406671900        0.0000000000
 Au        16.3275552000       11.1406671900        0.0000000000
 Au         0.0000000000       13.7115903800        0.0000000000
 Au         2.9686464000       13.7115903800        0.0000000000
 Au         5.9372928000       13.7115903800        0.0000000000
 Au         8.9059392000       13.7115903800        0.0000000000
 Au        11.8745856000       13.7115903800        0.0000000000
 Au        14.8432320000       13.7115903800        0.0000000000
 Au         0.0000000010        1.7151096761        2.4176195279
 Au         2.9686169396        1.7131472205        2.4165749659
 Au         5.9370635987        1.7145397286        2.4179510252
 Au         8.9059392000        1.7153628276        2.4191016110
 Au        11.8748148013        1.7145397284        2.4179510251
 Au        14.8432614598        1.7131472207        2.4165749660
 Au         1.4838116517        4.2847118991        2.4162075704
 Au         4.4584430745        4.2883824549        2.4248673567
 Au         7.4269960810        4.2873071668        2.4224071683
 Au        10.3848823190        4.2873071668        2.4224071683
 Au        13.3534353254        4.2883824548        2.4248673567
 Au        16.3280667477        4.2847118991        2.4162075705
 Au         0.0000000010        6.8553945953        2.4167301551
 Au         2.9694537852        6.8554741328        2.4171514516
 Au         5.9417342841        6.8593438594        2.4221503634
 Au         8.9059392001        6.8552045539        2.4162019119
 Au        11.8701441159        6.8593438594        2.4221503632
 Au        14.8424246142        6.8554741327        2.4171514517
 Au         1.4853305998        9.4269963200        2.4175473247
 Au         4.4547434615        9.4253964642        2.4186094775
 Au         7.4208228516        9.4209744800        2.4221018922
 Au        10.3910555484        9.4209744800        2.4221018922
 Au        13.3571349384        9.4253964643        2.4186094775
 Au        16.3265477995        9.4269963207        2.4175473252
 Au         0.0000000011       11.9973729229        2.4176708919
 Au         2.9689399669       11.9976221346        2.4170002493
 Au         5.9374885004       11.9964369345        2.4181429049
 Au         8.9059392001       11.9912914070        2.4248835740
 Au        11.8743898997       11.9964369346        2.4181429049
 Au        14.8429384326       11.9976221344        2.4170002493
 Au         1.4841809079       14.5687030302        2.4174585933
 Au         4.4528302585       14.5689854909        2.4170514476
 Au         7.4220359063       14.5694089235        2.4163472885
 Au        10.3898424937       14.5694089237        2.4163472886
 Au        13.3590481416       14.5689854910        2.4170514476
 Au        16.3276974918       14.5687030302        2.4174585934
 Au         0.0000000008        0.0001197154        4.8611536269
 Au         2.9686654117       -0.0001894704        4.8605668868
 Au         5.9372083915       -0.0001987647        4.8611550059