     116
 i =        1, E =     -3518.3369134813
 Au         0.0000000000        0.0000000000        0.0000000000
 Au         0.0000000000        4.1460000000        0.0000000000
 Au         2.0730000000        2.0730000000        0.0000000000
 Au         2.0730000000        6.2190000000        0.0000000000
 Au         4.1460000000        0.0000000000        0.0000000000
 Au         4.1460000000        4.1460000000        0.0000000000
 Au         6.2190000000        2.0730000000        0.0000000000
 Au         6.2190000000        6.2190000000        0.0000000000
 Au         0.0000000000        2.0730000000        2.0730000000
 Au         0.0000000000        6.2190000000        2.0730000000
 Au         2.0730000000        0.0000000000        2.0730000000
 Au         2.0730000000        4.1460000000        2.0730000000
 Au         4.1460000000        2.0730000000        2.0730000000
 Au         4.1460000000        6.2190000000        2.0730000000
 Au         6.2190000000        0.0000000000        2.0730000000
 Au         6.2190000000        4.1460000000        2.0730000000
 Au         0.0000000000        0.0000000000        4.1460000000
 Au         0.0000000000        4.1460000000        4.1460000000
 Au         2.0730000000        2.0730000000        4.1460000000
 Au         2.0730000000        6.2190000000        4.1460000000
 Au         4.1460000000        0.0000000000        4.1460000000
 Au         4.1460000000        4.1460000000        4.1460000000
 Au         6.2190000000        2.0730000000        4.1460000000
 Au         6.2190000000        6.2190000000        4.1460000000
 Au         0.0000000000        2.0730000000        6.2190000000
 Au         0.0000000000        6.2190000000        6.2190000000
 Au         2.0730000000        0.0000000000        6.2190000000
 Au         2.0730000000        4.1460000000        6.2190000000
 Au         4.1460000000        2.0730000000        6.2190000000
 Au         4.1460000000        6.2190000000        6.2190000000
 Au         6.2190000000        0.0000000000        6.2190000000
 Au         6.2190000000        4.1460000000        6.2190000000
 Au         0.0000000000        0.0000000000        8.2920000000
 Au         0.0000000000        4.1460000000        8.2920000000
 Au         2.0730000000        2.0730000000        8.2920000000
 Au         2.0730000000        6.2190000000        8.2920000000
 Au         4.1460000000        0.0000000000        8.2920000000
 Au         4.1460000000        4.1460000000        8.2920000000
 Au         6.2190000000        2.0730000000        8.2920000000
 Au         6.2190000000        6.2190000000        8.2920000000
 Au        -0.0000220608        2.0729783779       10.3799333058
 Au        -0.0000188373        6.2189518941       10.3628516156
 Au         2.0679134636       -0.0041012942       10.3507108114
 Au         2.0679074542        4.1501805864       10.3506357703
 Au         4.1459975470        2.0729009741       10.2565063455
 Au         4.1459899965        6.2188748994       10.3774503351
 Au         6.2240798410       -0.0041027196       10.3506596865
 Au         6.2240864803        4.1501822557       10.3505836392
 Au         0.0000475755       -0.0106685397       12.4373848436
 Au         0.0000483120        4.1567662353       12.4375317241
 Au         1.9465353518        2.0730942626       12.4456085922
 Au         2.0604543920        6.2189211190       12.4361540660
 Au         4.1459760314       -0.1289590447       12.4365109777
 Au         4.1459775189        4.2753407812       12.4360430620
 Au         6.3454104658        2.0730968177       12.4455286938
 Au         6.2315577856        6.2189221434       12.4361614968
  S         4.1461882764        2.0748844785       13.7038167738
  C         4.1442464980        2.0881761293       15.4663021843
  H         1.9937418146        2.0984507128       15.5672399396
  H         6.2950796640        2.0983187865       15.5765984249
  C         2.9144106192        2.0759930130       16.1221681457
  C         5.3694719039        2.0761251027       16.1236490512
  C         2.9122909171        2.0680547086       17.5175270615
  C         5.3672381612        2.0681079394       17.5185501906
  H         1.9851431961        2.0457147653       18.0648458123
  H         6.2887701305        2.0455574583       18.0740189577
  C         4.1378258408        2.0563631949       18.1752987038
  S         4.1429221400        2.0709223683       19.9375973962
 Au         0.0005434088       -0.0090505241       21.2052325209
 Au         0.0005383258        4.1549459961       21.2053968521
 Au         1.9446121511        2.0729372300       21.1976233590
 Au         2.0615860622        6.2190500258       21.2066312952
 Au         4.1466210280       -0.1314531796       21.2069417988
 Au         4.1466274340        4.2770978987       21.2064299907
 Au         6.3466471538        2.0729404307       21.1969176047
 Au         6.2190000000        6.2190000000       21.2040000000
 Au         0.0000000000        2.0730000000       23.2770000000
 Au         0.0000000000        6.2190000000       23.2770000000
 Au         2.0730000000        0.0000000000       23.2770000000
 Au         2.0730000000        4.1460000000       23.2770000000
 Au         4.1460000000        2.0730000000       23.2770000000
 Au         4.1460000000        6.2190000000       23.2770000000
 Au         6.2190000000        0.0000000000       23.2770000000
 Au         6.2190000000        4.1460000000       23.2770000000
 Au         0.0000000000        0.0000000000       25.3500000000
 Au         0.0000000000        4.1460000000       25.3500000000
 Au         2.0730000000        2.0730000000       25.3500000000
 Au         2.0730000000        6.2190000000       25.3500000000
 Au         4.1460000000        0.0000000000       25.3500000000
 Au         4.1460000000        4.1460000000       25.3500000000
 Au         6.2190000000        2.0730000000       25.3500000000
 Au         6.2190000000        6.2190000000       25.3500000000
 Au         0.0000000000        2.0730000000       27.4230000000
 Au         0.0000000000        6.2190000000       27.4230000000
 Au         2.0730000000        0.0000000000       27.4230000000
 Au         2.0730000000        4.1460000000       27.4230000000
 Au         4.1460000000        2.0730000000       27.4230000000
 Au         4.1460000000        6.2190000000       27.4230000000
 Au         6.2190000000        0.0000000000       27.4230000000
 Au         6.2190000000        4.1460000000       27.4230000000
 Au         0.0000000000        0.0000000000       29.4960000000
 Au         0.0000000000        4.1460000000       29.4960000000
 Au         2.0730000000        2.0730000000       29.4960000000
 Au         2.0730000000        6.2190000000       29.4960000000
 Au         4.1460000000        0.0000000000       29.4960000000
 Au         4.1460000000        4.1460000000       29.4960000000
 Au         6.2190000000        2.0730000000       29.4960000000
 Au         6.2190000000        6.2190000000       29.4960000000
 Au         0.0000000000        2.0730000000       31.5690000000
 Au         0.0000000000        6.2190000000       31.5690000000
 Au         2.0730000000        0.0000000000       31.5690000000
 Au         2.0730000000        4.1460000000       31.5690000000
 Au         4.1460000000        2.0730000000       31.5690000000
 Au         4.1460000000        6.2190000000       31.5690000000
 Au         6.2190000000        0.0000000000       31.5690000000
 Au         6.2190000000        4.1460000000       31.5690000000
     116
 i =        2, E =     -3518.3423231523
 Au         0.0000000000        0.0000000000        0.0000000000
 Au         0.0000000000        4.1460000000        0.0000000000
 Au         2.0730000000        2.0730000000        0.0000000000
 Au         2.0730000000        6.2190000000        0.0000000000
 Au         4.1460000000        0.0000000000        0.0000000000
 Au         4.1460000000        4.1460000000        0.0000000000
 Au         6.2190000000        2.0730000000        0.0000000000
 Au         6.2190000000        6.2190000000        0.0000000000
 Au         0.0000000000        2.0730000000        2.0730000000
 Au         0.0000000000        6.2190000000        2.0730000000
 Au         2.0730000000        0.0000000000        2.0730000000
 Au         2.0730000000        4.1460000000        2.0730000000
 Au         4.1460000000        2.0730000000        2.0730000000
 Au         4.1460000000        6.2190000000        2.0730000000
 Au         6.2190000000        0.0000000000        2.0730000000
 Au         6.2190000000        4.1460000000        2.0730000000
 Au         0.0000000000        0.0000000000        4.1460000000
 Au         0.0000000000        4.1460000000        4.1460000000
 Au         2.0730000000        2.0730000000        4.1460000000
 Au         2.0730000000        6.2190000000        4.1460000000
 Au         4.1460000000        0.0000000000        4.1460000000
 Au         4.1460000000        4.1460000000        4.1460000000
 Au         6.2190000000        2.0730000000        4.1460000000
 Au         6.2190000000        6.2190000000        4.1460000000
 Au         0.0000000000        2.0730000000        6.2190000000
 Au         0.0000000000        6.2190000000        6.2190000000
 Au         2.0730000000        0.0000000000        6.2190000000
 Au         2.0730000000        4.1460000000        6.2190000000
 Au         4.1460000000        2.0730000000        6.2190000000
 Au         4.1460000000        6.2190000000        6.2190000000
 Au         6.2190000000        0.0000000000        6.2190000000
 Au         6.2190000000        4.1460000000        6.2190000000
 Au         0.0000000000        0.0000000000        8.2920000000
 Au         0.0000000000        4.1460000000        8.2920000000
 Au         2.0730000000        2.0730000000        8.2920000000
 Au         2.0730000000        6.2190000000        8.2920000000
 Au         4.1460000000        0.0000000000        8.2920000000
 Au         4.1460000000        4.1460000000        8.2920000000
 Au         6.2190000000        2.0730000000        8.2920000000
 Au         6.2190000000        6.2190000000        8.2920000000
 Au        -0.0000063508        2.0729814005       10.3581701639
 Au        -0.0000480932        6.2189213070       10.3628519696
 Au         2.0758709950        0.0053772555       10.3581388400
 Au         2.0757999598        4.1406661241       10.3578557614
 Au         4.1460223924        2.0727615220       10.2933970617
 Au         4.1460000253        6.2187301418       10.3502935018
 Au         6.2161371519        0.0053548860       10.3581408713
 Au         6.2162111168        4.1406902440       10.3578553472
 Au         0.0000760965       -0.0444806174       12.4451859769
 Au         0.0000780822        4.1907048949       12.4454940710
 Au         1.9246546585        2.0729168964       12.4480088977
 Au         2.0237559637        6.2191097770       12.4428803544
 Au         4.1459351399       -0.1513061296       12.4314836700
 Au         4.1459344770        4.2988315150       12.4302841648
 Au         6.3671536516        2.0729175619       12.4480695148
 Au         6.2682500772        6.2191115316       12.4427915278
  S         4.1458737546        2.0785341573       13.7012049236
  C         4.1441152419        2.0782741700       15.4563093012
  H         1.9967019922        2.0921922735       15.5591292313
  H         6.2911202692        2.0921103819       15.5668221386
  C         2.9273902423        2.0894649425       16.1282899256
  C         5.3579005428        2.0893008527       16.1320507895
  C         2.9240479801        2.0551226398       17.5074248930
  C         5.3549043572        2.0550160639       17.5108340681
  H         1.9906088442        2.0519736799       18.0739400837
  H         6.2853576354        2.0518266186       18.0816283449
  C         4.1382414190        2.0662720876       18.1821624628
  S         4.1414526636        2.0671660365       19.9358817528
 Au        -0.0012091799       -0.0426338831       21.1962730905
 Au        -0.0012045995        4.1883404444       21.1966171017
 Au         1.9148423948        2.0731845094       21.1851363855
 Au         2.0257529565        6.2188484670       21.1978664481
 Au         4.1450648461       -0.1603987821       21.2011504024
 Au         4.1450577552        4.3048066161       21.1998973121
 Au         6.3763492284        2.0731812043       21.1842860564
 Au         6.2190000000        6.2190000000       21.2040000000
 Au         0.0000000000        2.0730000000       23.2770000000
 Au         0.0000000000        6.2190000000       23.2770000000
 Au         2.0730000000        0.0000000000       23.2770000000
 Au         2.0730000000        4.1460000000       23.2770000000
 Au         4.1460000000        2.0730000000       23.2770000000
 Au         4.1460000000        6.2190000000       23.2770000000
 Au         6.2190000000        0.0000000000       23.2770000000
 Au         6.2190000000        4.1460000000       23.2770000000
 Au         0.0000000000        0.0000000000       25.3500000000
 Au         0.0000000000        4.1460000000       25.3500000000
 Au         2.0730000000        2.0730000000       25.3500000000
 Au         2.0730000000        6.2190000000       25.3500000000
 Au         4.1460000000        0.0000000000       25.3500000000
 Au         4.1460000000        4.1460000000       25.3500000000
 Au         6.2190000000        2.0730000000       25.3500000000
 Au         6.2190000000        6.2190000000       25.3500000000
 Au         0.0000000000        2.0730000000       27.4230000000
 Au         0.0000000000        6.2190000000       27.4230000000
 Au         2.0730000000        0.0000000000       27.4230000000
 Au         2.0730000000        4.1460000000       27.4230000000
 Au         4.1460000000        2.0730000000       27.4230000000
 Au         4.1460000000        6.2190000000       27.4230000000
 Au         6.2190000000        0.0000000000       27.4230000000
 Au         6.2190000000        4.1460000000       27.4230000000
 Au         0.0000000000        0.0000000000       29.4960000000
 Au         0.0000000000        4.1460000000       29.4960000000
 Au         2.0730000000        2.0730000000       29.4960000000
 Au         2.0730000000        6.2190000000       29.4960000000
 Au         4.1460000000        0.0000000000       29.4960000000
 Au         4.1460000000        4.1460000000       29.4960000000
 Au         6.2190000000        2.0730000000       29.4960000000
 Au         6.2190000000        6.2190000000       29.4960000000
 Au         0.0000000000        2.0730000000       31.5690000000
 Au         0.0000000000        6.2190000000       31.5690000000
 Au         2.0730000000        0.0000000000       31.5690000000
 Au         2.0730000000        4.1460000000       31.5690000000
 Au         4.1460000000        2.0730000000       31.5690000000
 Au         4.1460000000        6.2190000000       31.5690000000
 Au         6.2190000000        0.0000000000       31.5690000000
 Au         6.2190000000        4.1460000000       31.5690000000
     116
 i =        3, E =     -3518.3430538622
 Au         0.0000000000        0.0000000000        0.0000000000
 Au         0.0000000000        4.1460000000        0.0000000000
 Au         2.0730000000        2.0730000000        0.0000000000
 Au         2.0730000000        6.2190000000        0.0000000000
 Au         4.1460000000        0.0000000000        0.0000000000
 Au         4.1460000000        4.1460000000        0.0000000000
 Au         6.2190000000        2.0730000000        0.0000000000
 Au         6.2190000000        6.2190000000        0.0000000000
 Au         0.0000000000        2.0730000000        2.0730000000
 Au         0.0000000000        6.2190000000        2.0730000000
 Au         2.0730000000        0.0000000000        2.0730000000
 Au         2.0730000000        4.1460000000        2.0730000000
 Au         4.1460000000        2.0730000000        2.0730000000
 Au         4.1460000000        6.2190000000        2.0730000000
 Au         6.2190000000        0.0000000000        2.0730000000
 Au         6.2190000000        4.1460000000        2.0730000000
 Au         0.0000000000        0.0000000000        4.1460000000
 Au         0.0000000000        4.1460000000        4.1460000000
 Au         2.0730000000        2.0730000000        4.1460000000
 Au         2.0730000000        6.2190000000        4.1460000000
 Au         4.1460000000        0.0000000000        4.1460000000
 Au         4.1460000000        4.1460000000        4.1460000000
 Au         6.2190000000        2.0730000000        4.1460000000
 Au         6.2190000000        6.2190000000        4.1460000000
 Au         0.0000000000        2.0730000000        6.2190000000
 Au         0.0000000000        6.2190000000        6.2190000000
 Au         2.0730000000        0.0000000000        6.2190000000
 Au         2.0730000000        4.1460000000        6.2190000000
 Au         4.1460000000        2.0730000000        6.2190000000
 Au         4.1460000000        6.2190000000        6.2190000000
 Au         6.2190000000        0.0000000000        6.2190000000
 Au         6.2190000000        4.1460000000        6.2190000000
 Au         0.0000000000        0.0000000000        8.2920000000
 Au         0.0000000000        4.1460000000        8.2920000000
 Au         2.0730000000        2.0730000000        8.2920000000
 Au         2.0730000000        6.2190000000        8.2920000000
 Au         4.1460000000        0.0000000000        8.2920000000
 Au         4.1460000000        4.1460000000        8.2920000000
 Au         6.2190000000        2.0730000000        8.2920000000
 Au         6.2190000000        6.2190000000        8.2920000000
 Au        -0.0000740140        2.0730118082       10.3491727707
 Au        -0.0000544397        6.2188988469       10.3389839449
 Au         2.0823043181        0.0137786026       10.3676677637
 Au         2.0819972388        4.1319588002       10.3673254969
 Au         4.1460345833        2.0727838842       10.3272339760
 Au         4.1459807132        6.2191961394       10.3353531088
 Au         6.2097938914        0.0137744871       10.3677367321
 Au         6.2101043776        4.1319652500       10.3673948909
 Au         0.0000874450       -0.0590041666       12.4551809625
 Au         0.0000868188        4.2052950699       12.4554232566
 Au         1.9028888124        2.0725268594       12.4549978626
 Au         2.0059760753        6.2195771190       12.4509377422
 Au         4.1458855232       -0.1740172487       12.4286284010
 Au         4.1458854027        4.3224558733       12.4275637562
 Au         6.3889433347        2.0725302849       12.4551134180
 Au         6.2860072829        6.2195764321       12.4507775014
  S         4.1457822242        2.0804550672       13.6991207744
  C         4.1434203929        2.0996875009       15.4478176862
  H         1.9974797853        2.0901957293       15.5552199751
  H         6.2895237516        2.0900722000       15.5624578103
  C         2.9324350873        2.0664256836       16.1301830742
  C         5.3528191461        2.0663086145       16.1345891495
  C         2.9288772249        2.0782340851       17.5029769497
  C         5.3508617933        2.0780386834       17.5072287434
  H         1.9931527615        2.0540747693       18.0774979488
  H         6.2847019233        2.0539222008       18.0847320534
  C         4.1391091533        2.0453514800       18.1867164887
  S         4.1398689903        2.0651032799       19.9319706740
 Au        -0.0075174213       -0.0691281300       21.1837646556
 Au        -0.0075537208        4.2147489211       21.1840699200
 Au         1.8931560140        2.0736316945       21.1718795647
 Au         1.9996799772        6.2183238304       21.1836058824
 Au         4.1363666691       -0.1739056450       21.1927746031
 Au         4.1364663418        4.3174135210       21.1916762119
 Au         6.3972467385        2.0736417095       21.1707081257
 Au         6.2190000000        6.2190000000       21.2040000000
 Au         0.0000000000        2.0730000000       23.2770000000
 Au         0.0000000000        6.2190000000       23.2770000000
 Au         2.0730000000        0.0000000000       23.2770000000
 Au         2.0730000000        4.1460000000       23.2770000000
 Au         4.1460000000        2.0730000000       23.2770000000
 Au         4.1460000000        6.2190000000       23.2770000000
 Au         6.2190000000        0.0000000000       23.2770000000
 Au         6.2190000000        4.1460000000       23.2770000000
 Au         0.0000000000        0.0000000000       25.3500000000
 Au         0.0000000000        4.1460000000       25.3500000000
 Au         2.0730000000        2.0730000000       25.3500000000
 Au         2.0730000000        6.2190000000       25.3500000000
 Au         4.1460000000        0.0000000000       25.3500000000
 Au         4.1460000000        4.1460000000       25.3500000000
 Au         6.2190000000        2.0730000000       25.3500000000
 Au         6.2190000000        6.2190000000       25.3500000000
 Au         0.0000000000        2.0730000000       27.4230000000
 Au         0.0000000000        6.2190000000       27.4230000000
 Au         2.0730000000        0.0000000000       27.4230000000
 Au         2.0730000000        4.1460000000       27.4230000000
 Au         4.1460000000        2.0730000000       27.4230000000
 Au         4.1460000000        6.2190000000       27.4230000000
 Au         6.2190000000        0.0000000000       27.4230000000
 Au         6.2190000000        4.1460000000       27.4230000000
 Au         0.0000000000        0.0000000000       29.4960000000
 Au         0.0000000000        4.1460000000       29.4960000000
 Au         2.0730000000        2.0730000000       29.4960000000
 Au         2.0730000000        6.2190000000       29.4960000000
 Au         4.1460000000        0.0000000000       29.4960000000
 Au         4.1460000000        4.1460000000       29.4960000000
 Au         6.2190000000        2.0730000000       29.4960000000
 Au         6.2190000000        6.2190000000       29.4960000000
 Au         0.0000000000        2.0730000000       31.5690000000
 Au         0.0000000000        6.2190000000       31.5690000000
 Au         2.0730000000        0.0000000000       31.5690000000
 Au         2.0730000000        4.1460000000       31.5690000000
 Au         4.1460000000        2.0730000000       31.5690000000
 Au         4.1460000000        6.2190000000       31.5690000000
 Au         6.2190000000        0.0000000000       31.5690000000
 Au         6.2190000000        4.1460000000       31.5690000000
     116
 i =        4, E =     -3518.3439309911
 Au         0.0000000000        0.0000000000        0.0000000000
 Au         0.0000000000        4.1460000000        0.0000000000
 Au         2.0730000000        2.0730000000        0.0000000000
 Au         2.0730000000        6.2190000000        0.0000000000
 Au         4.1460000000        0.0000000000        0.0000000000
 Au         4.1460000000        4.1460000000        0.0000000000
 Au         6.2190000000        2.0730000000        0.0000000000
 Au         6.2190000000        6.2190000000        0.0000000000
 Au         0.0000000000        2.0730000000        2.0730000000
 Au         0.0000000000        6.2190000000        2.0730000000
 Au         2.0730000000        0.0000000000        2.0730000000
 Au         2.0730000000        4.1460000000        2.0730000000
 Au         4.1460000000        2.0730000000        2.0730000000
 Au         4.1460000000        6.2190000000        2.0730000000
 Au         6.2190000000        0.0000000000        2.0730000000
 Au         6.2190000000        4.1460000000        2.0730000000
 Au         0.0000000000        0.0000000000        4.1460000000
 Au         0.0000000000        4.1460000000        4.1460000000
 Au         2.0730000000        2.0730000000        4.1460000000
 Au         2.0730000000        6.2190000000        4.1460000000
 Au         4.1460000000        0.0000000000        4.1460000000
 Au         4.1460000000        4.1460000000        4.1460000000
 Au         6.2190000000        2.0730000000        4.1460000000
 Au         6.2190000000        6.2190000000        4.1460000000
 Au         0.0000000000        2.0730000000        6.2190000000
 Au         0.0000000000        6.2190000000        6.2190000000
 Au         2.0730000000        0.0000000000        6.2190000000
 Au         2.0730000000        4.1460000000        6.2190000000
 Au         4.1460000000        2.0730000000        6.2190000000
 Au         4.1460000000        6.2190000000        6.2190000000
 Au         6.2190000000        0.0000000000        6.2190000000
 Au         6.2190000000        4.1460000000        6.2190000000
 Au         0.0000000000        0.0000000000        8.2920000000
 Au         0.0000000000        4.1460000000        8.2920000000
 Au         2.0730000000        2.0730000000        8.2920000000
 Au         2.0730000000        6.2190000000        8.2920000000
 Au         4.1460000000        0.0000000000        8.2920000000
 Au         4.1460000000        4.1460000000        8.2920000000
 Au         6.2190000000        2.0730000000        8.2920000000
 Au         6.2190000000        6.2190000000        8.2920000000
 Au        -0.0000772678        2.0729065759       10.3510288127
 Au        -0.0000163236        6.2188315819       10.3273787556
 Au         2.0824183875        0.0153640364       10.3717903990
 Au         2.0822175126        4.1304284569       10.3715375864
 Au         4.1460315395        2.0727409478       10.3329560394
 Au         4.1459689833        6.2189887085       10.3344462112
 Au         6.2096934464        0.0153626688       10.3718915031
 Au         6.2099008404        4.1304316681       10.3716381711
 Au         0.0000807203       -0.0565123204       12.4584018771
 Au         0.0000800508        4.2028893040       12.4585717050
 Au         1.8956514677        2.0721532410       12.4624201547
 Au         2.0069688858        6.2198283450       12.4527792509
 Au         4.1458977651       -0.1814138849       12.4315317426
 Au         4.1458943510        4.3311872025       12.4301703164
 Au         6.3962439194        2.0721600022       12.4625707144
 Au         6.2849637742        6.2198293391       12.4526526219
  S         4.1457829962        2.0832313294       13.7012007265
  C         4.1431654218        2.0843224499       15.4481956095
  H         1.9949369551        2.0867573751       15.5557421453
  H         6.2918996591        2.0866100953       15.5631761404
  C         2.9294454102        2.0803733119       16.1285097335
  C         5.3553410141        2.0803310359       16.1324822196
  C         2.9273157698        2.0643754266       17.5033624147
  C         5.3530624740        2.0642897798       17.5072645257
  H         1.9919762949        2.0576039895       18.0751108347
  H         6.2863563486        2.0574262268       18.0824608403
  C         4.1393606909        2.0605511983       18.1862391383
  S         4.1393622677        2.0623942218       19.9296136037
 Au        -0.0123871840       -0.0699750327       21.1774525565
 Au        -0.0125417812        4.2156417157       21.1776766998
 Au         1.8871574609        2.0740192893       21.1672577815
 Au         2.0004791541        6.2179959027       21.1757481992
 Au         4.1289562794       -0.1726416606       21.1898014017
 Au         4.1292272140        4.3149484372       21.1885771452
 Au         6.4011460961        2.0740368278       21.1661719363
 Au         6.2190000000        6.2190000000       21.2040000000
 Au         0.0000000000        2.0730000000       23.2770000000
 Au         0.0000000000        6.2190000000       23.2770000000
 Au         2.0730000000        0.0000000000       23.2770000000
 Au         2.0730000000        4.1460000000       23.2770000000
 Au         4.1460000000        2.0730000000       23.2770000000
 Au         4.1460000000        6.2190000000       23.2770000000
 Au         6.2190000000        0.0000000000       23.2770000000
 Au         6.2190000000        4.1460000000       23.2770000000
 Au         0.0000000000        0.0000000000       25.3500000000
 Au         0.0000000000        4.1460000000       25.3500000000
 Au         2.0730000000        2.0730000000       25.3500000000
 Au         2.0730000000        6.2190000000       25.3500000000
 Au         4.1460000000        0.0000000000       25.3500000000
 Au         4.1460000000        4.1460000000       25.3500000000
 Au         6.2190000000        2.0730000000       25.3500000000
 Au         6.2190000000        6.2190000000       25.3500000000
 Au         0.0000000000        2.0730000000       27.4230000000
 Au         0.0000000000        6.2190000000       27.4230000000
 Au         2.0730000000        0.0000000000       27.4230000000
 Au         2.0730000000        4.1460000000       27.4230000000
 Au         4.1460000000        2.0730000000       27.4230000000
 Au         4.1460000000        6.2190000000       27.4230000000
 Au         6.2190000000        0.0000000000       27.4230000000
 Au         6.2190000000        4.1460000000       27.4230000000
 Au         0.0000000000        0.0000000000       29.4960000000
 Au         0.0000000000        4.1460000000       29.4960000000
 Au         2.0730000000        2.0730000000       29.4960000000
 Au         2.0730000000        6.2190000000       29.4960000000
 Au         4.1460000000        0.0000000000       29.4960000000
 Au         4.1460000000        4.1460000000       29.4960000000
 Au         6.2190000000        2.0730000000       29.4960000000
 Au         6.2190000000        6.2190000000       29.4960000000
 Au         0.0000000000        2.0730000000       31.5690000000
 Au         0.0000000000        6.2190000000       31.5690000000