     116
 i =        1, E =     -3518.0836003829
 Au         0.0000000000        0.0000000000        0.0000000000
 Au         0.0000000000        4.1460000000        0.0000000000
 Au         2.0730000000        2.0730000000        0.0000000000
 Au         2.0730000000        6.2190000000        0.0000000000
 Au         4.1460000000        0.0000000000        0.0000000000
 Au         4.1460000000        4.1460000000        0.0000000000
 Au         6.2190000000        2.0730000000        0.0000000000
 Au         6.2190000000        6.2190000000        0.0000000000
 Au         0.0000000000        2.0730000000        2.0730000000
 Au         0.0000000000        6.2190000000        2.0730000000
 Au         2.0730000000        0.0000000000        2.0730000000
 Au         2.0730000000        4.1460000000        2.0730000000
 Au         4.1460000000        2.0730000000        2.0730000000
 Au         4.1460000000        6.2190000000        2.0730000000
 Au         6.2190000000        0.0000000000        2.0730000000
 Au         6.2190000000        4.1460000000        2.0730000000
 Au         0.0000000000        0.0000000000        4.1460000000
 Au         0.0000000000        4.1460000000        4.1460000000
 Au         2.0730000000        2.0730000000        4.1460000000
 Au         2.0730000000        6.2190000000        4.1460000000
 Au         4.1460000000        0.0000000000        4.1460000000
 Au         4.1460000000        4.1460000000        4.1460000000
 Au         6.2190000000        2.0730000000        4.1460000000
 Au         6.2190000000        6.2190000000        4.1460000000
 Au         0.0000000000        2.0730000000        6.2190000000
 Au         0.0000000000        6.2190000000        6.2190000000
 Au         2.0730000000        0.0000000000        6.2190000000
 Au         2.0730000000        4.1460000000        6.2190000000
 Au         4.1460000000        2.0730000000        6.2190000000
 Au         4.1460000000        6.2190000000        6.2190000000
 Au         6.2190000000        0.0000000000        6.2190000000
 Au         6.2190000000        4.1460000000        6.2190000000
 Au         0.0000000000        0.0000000000        8.2920000000
 Au         0.0000000000        4.1460000000        8.2920000000
 Au         2.0730000000        2.0730000000        8.2920000000
 Au         2.0730000000        6.2190000000        8.2920000000
 Au         4.1460000000        0.0000000000        8.2920000000
 Au         4.1460000000        4.1460000000        8.2920000000
 Au         6.2190000000        2.0730000000        8.2920000000
 Au         6.2190000000        6.2190000000        8.2920000000
 Au        -0.0000450615        2.0729810433       10.3782923310
 Au        -0.0000114006        6.2189479560       10.3584103669
 Au         2.0726808818        0.0004600531       10.3558477409
 Au         2.0726911860        4.1456482663       10.3557876840
 Au         4.1459853289        2.0729210291       10.3170263292
 Au         4.1459986832        6.2188227066       10.3774137845
 Au         6.2193272659        0.0004632531       10.3558360019
 Au         6.2193175305        4.1456452327       10.3557747783
 Au         0.0000180651       -0.0064952332       12.4425026590
 Au         0.0000186882        4.1525930770       12.4425716158
 Au         1.9839703365        2.0730511389       12.4511451379
 Au         2.0661262026        6.2189725635       12.4420315579
 Au         4.1459867292       -0.0974089517       12.4366239413
 Au         4.1459878672        4.2428902570       12.4369099044
 Au         6.3079804530        2.0730531119       12.4511835375
 Au         6.2258769766        6.2189732289       12.4420350170
  S         4.1463743479        2.0759156762       14.0858097507
  C         4.1432873136        2.0907745590       15.8734713030
  H         1.9847228518        2.0974232062       16.0151179584
  H         6.3036388736        2.0972692115       16.0251482394
  C         2.9145545597        2.0744434135       16.5583203960
  C         5.3685725460        2.0746061390       16.5600573468
  C         2.9133621776        2.0695630800       17.9639349580
  C         5.3673595284        2.0696457434       17.9651347417
  H         1.9768014980        2.0467742770       18.4993799954
  H         6.2977529715        2.0465931216       18.5096510611
  C         4.1390321572        2.0541740774       18.6499882083
  S         4.1408619095        2.0696434108       20.4385410978
 Au         0.0001440059       -0.0055138337       22.0816739024
 Au         0.0001380564        4.1514212933       22.0817433688
 Au         1.9821489527        2.0729744833       22.0736724984
 Au         2.0670162970        6.2189855164       22.0822068511
 Au         4.1462302172       -0.0989790105       22.0879919865
 Au         4.1462359908        4.2456788482       22.0883577707
 Au         6.3102979474        2.0729777848       22.0738859927
 Au         6.2190000000        6.2190000000       22.0860000000
 Au         0.0000000000        2.0730000000       24.1590000000
 Au         0.0000000000        6.2190000000       24.1590000000
 Au         2.0730000000        0.0000000000       24.1590000000
 Au         2.0730000000        4.1460000000       24.1590000000
 Au         4.1460000000        2.0730000000       24.1590000000
 Au         4.1460000000        6.2190000000       24.1590000000
 Au         6.2190000000        0.0000000000       24.1590000000
 Au         6.2190000000        4.1460000000       24.1590000000
 Au         0.0000000000        0.0000000000       26.2320000000
 Au         0.0000000000        4.1460000000       26.2320000000
 Au         2.0730000000        2.0730000000       26.2320000000
 Au         2.0730000000        6.2190000000       26.2320000000
 Au         4.1460000000        0.0000000000       26.2320000000
 Au         4.1460000000        4.1460000000       26.2320000000
 Au         6.2190000000        2.0730000000       26.2320000000
 Au         6.2190000000        6.2190000000       26.2320000000
 Au         0.0000000000        2.0730000000       28.3050000000
 Au         0.0000000000        6.2190000000       28.3050000000
 Au         2.0730000000        0.0000000000       28.3050000000
 Au         2.0730000000        4.1460000000       28.3050000000
 Au         4.1460000000        2.0730000000       28.3050000000
 Au         4.1460000000        6.2190000000       28.3050000000
 Au         6.2190000000        0.0000000000       28.3050000000
 Au         6.2190000000        4.1460000000       28.3050000000
 Au         0.0000000000        0.0000000000       30.3780000000
 Au         0.0000000000        4.1460000000       30.3780000000
 Au         2.0730000000        2.0730000000       30.3780000000
 Au         2.0730000000        6.2190000000       30.3780000000
 Au         4.1460000000        0.0000000000       30.3780000000
 Au         4.1460000000        4.1460000000       30.3780000000
 Au         6.2190000000        2.0730000000       30.3780000000
 Au         6.2190000000        6.2190000000       30.3780000000
 Au         0.0000000000        2.0730000000       32.4510000000
 Au         0.0000000000        6.2190000000       32.4510000000
 Au         2.0730000000        0.0000000000       32.4510000000
 Au         2.0730000000        4.1460000000       32.4510000000
 Au         4.1460000000        2.0730000000       32.4510000000
 Au         4.1460000000        6.2190000000       32.4510000000
 Au         6.2190000000        0.0000000000       32.4510000000
 Au         6.2190000000        4.1460000000       32.4510000000
     116
 i =        2, E =     -3518.0869276205
 Au         0.0000000000        0.0000000000        0.0000000000
 Au         0.0000000000        4.1460000000        0.0000000000
 Au         2.0730000000        2.0730000000        0.0000000000
 Au         2.0730000000        6.2190000000        0.0000000000
 Au         4.1460000000        0.0000000000        0.0000000000
 Au         4.1460000000        4.1460000000        0.0000000000
 Au         6.2190000000        2.0730000000        0.0000000000
 Au         6.2190000000        6.2190000000        0.0000000000
 Au         0.0000000000        2.0730000000        2.0730000000
 Au         0.0000000000        6.2190000000        2.0730000000
 Au         2.0730000000        0.0000000000        2.0730000000
 Au         2.0730000000        4.1460000000        2.0730000000
 Au         4.1460000000        2.0730000000        2.0730000000
 Au         4.1460000000        6.2190000000        2.0730000000
 Au         6.2190000000        0.0000000000        2.0730000000
 Au         6.2190000000        4.1460000000        2.0730000000
 Au         0.0000000000        0.0000000000        4.1460000000
 Au         0.0000000000        4.1460000000        4.1460000000
 Au         2.0730000000        2.0730000000        4.1460000000
 Au         2.0730000000        6.2190000000        4.1460000000
 Au         4.1460000000        0.0000000000        4.1460000000
 Au         4.1460000000        4.1460000000        4.1460000000
 Au         6.2190000000        2.0730000000        4.1460000000
 Au         6.2190000000        6.2190000000        4.1460000000
 Au         0.0000000000        2.0730000000        6.2190000000
 Au         0.0000000000        6.2190000000        6.2190000000
 Au         2.0730000000        0.0000000000        6.2190000000
 Au         2.0730000000        4.1460000000        6.2190000000
 Au         4.1460000000        2.0730000000        6.2190000000
 Au         4.1460000000        6.2190000000        6.2190000000
 Au         6.2190000000        0.0000000000        6.2190000000
 Au         6.2190000000        4.1460000000        6.2190000000
 Au         0.0000000000        0.0000000000        8.2920000000
 Au         0.0000000000        4.1460000000        8.2920000000
 Au         2.0730000000        2.0730000000        8.2920000000
 Au         2.0730000000        6.2190000000        8.2920000000
 Au         4.1460000000        0.0000000000        8.2920000000
 Au         4.1460000000        4.1460000000        8.2920000000
 Au         6.2190000000        2.0730000000        8.2920000000
 Au         6.2190000000        6.2190000000        8.2920000000
 Au         0.0000271432        2.0730092403       10.3657594565
 Au         0.0000017520        6.2189394075       10.3596465129
 Au         2.0763951742        0.0069527953       10.3581939629
 Au         2.0764594779        4.1392261826       10.3580553113
 Au         4.1460188164        2.0727888860       10.3393523234
 Au         4.1459903543        6.2182935734       10.3561094417
 Au         6.2155864598        0.0069536272       10.3582135029
 Au         6.2155240633        4.1392264005       10.3580723915
 Au         0.0000387327       -0.0328328169       12.4492858838
 Au         0.0000407740        4.1790802856       12.4494096461
 Au         1.9735492787        2.0728098283       12.4743518219
 Au         2.0362245309        6.2190467788       12.4491959360
 Au         4.1459800626       -0.1116120287       12.4498441927
 Au         4.1459809660        4.2570838678       12.4503397354
 Au         6.3184752384        2.0728115483       12.4744736263
 Au         6.2557488660        6.2190488384       12.4492192512
  S         4.1458939948        2.0823364695       14.0472161944
  C         4.1438727296        2.0726219832       15.8504648196
  H         1.9813987943        2.0889045669       16.0157876297
  H         6.3052777839        2.0888446336       16.0234192472
  C         2.9265067397        2.0957585596       16.5598343658
  C         5.3586513358        2.0955569791       16.5650962486
  C         2.9240308216        2.0492851334       17.9584009267
  C         5.3554024006        2.0491998970       17.9633631865
  H         1.9767139255        2.0551921612       18.5003525940
  H         6.3008089155        2.0550598862       18.5079785831
  C         4.1385985357        2.0718650216       18.6734733395
  S         4.1392181240        2.0631738300       20.4768189217
 Au        -0.0004676160       -0.0304056826       22.0733827166
 Au        -0.0004804375        4.1761250308       22.0735059484
 Au         1.9674817431        2.0733011337       22.0459382721
 Au         2.0387968835        6.2189148239       22.0730485287
 Au         4.1455884862       -0.1160803043       22.0694999423
 Au         4.1455988410        4.2625119749       22.0700291192
 Au         6.3240956503        2.0733035507       22.0462647593
 Au         6.2190000000        6.2190000000       22.0860000000
 Au         0.0000000000        2.0730000000       24.1590000000
 Au         0.0000000000        6.2190000000       24.1590000000
 Au         2.0730000000        0.0000000000       24.1590000000
 Au         2.0730000000        4.1460000000       24.1590000000
 Au         4.1460000000        2.0730000000       24.1590000000
 Au         4.1460000000        6.2190000000       24.1590000000
 Au         6.2190000000        0.0000000000       24.1590000000
 Au         6.2190000000        4.1460000000       24.1590000000
 Au         0.0000000000        0.0000000000       26.2320000000
 Au         0.0000000000        4.1460000000       26.2320000000
 Au         2.0730000000        2.0730000000       26.2320000000
 Au         2.0730000000        6.2190000000       26.2320000000
 Au         4.1460000000        0.0000000000       26.2320000000
 Au         4.1460000000        4.1460000000       26.2320000000
 Au         6.2190000000        2.0730000000       26.2320000000
 Au         6.2190000000        6.2190000000       26.2320000000
 Au         0.0000000000        2.0730000000       28.3050000000
 Au         0.0000000000        6.2190000000       28.3050000000
 Au         2.0730000000        0.0000000000       28.3050000000
 Au         2.0730000000        4.1460000000       28.3050000000
 Au         4.1460000000        2.0730000000       28.3050000000
 Au         4.1460000000        6.2190000000       28.3050000000
 Au         6.2190000000        0.0000000000       28.3050000000
 Au         6.2190000000        4.1460000000       28.3050000000
 Au         0.0000000000        0.0000000000       30.3780000000
 Au         0.0000000000        4.1460000000       30.3780000000
 Au         2.0730000000        2.0730000000       30.3780000000
 Au         2.0730000000        6.2190000000       30.3780000000
 Au         4.1460000000        0.0000000000       30.3780000000
 Au         4.1460000000        4.1460000000       30.3780000000
 Au         6.2190000000        2.0730000000       30.3780000000
 Au         6.2190000000        6.2190000000       30.3780000000
 Au         0.0000000000        2.0730000000       32.4510000000
 Au         0.0000000000        6.2190000000       32.4510000000
 Au         2.0730000000        0.0000000000       32.4510000000
 Au         2.0730000000        4.1460000000       32.4510000000
 Au         4.1460000000        2.0730000000       32.4510000000
 Au         4.1460000000        6.2190000000       32.4510000000
 Au         6.2190000000        0.0000000000       32.4510000000
 Au         6.2190000000        4.1460000000       32.4510000000
     116
 i =        3, E =     -3518.0872913738
 Au         0.0000000000        0.0000000000        0.0000000000
 Au         0.0000000000        4.1460000000        0.0000000000
 Au         2.0730000000        2.0730000000        0.0000000000
 Au         2.0730000000        6.2190000000        0.0000000000
 Au         4.1460000000        0.0000000000        0.0000000000
 Au         4.1460000000        4.1460000000        0.0000000000
 Au         6.2190000000        2.0730000000        0.0000000000
 Au         6.2190000000        6.2190000000        0.0000000000
 Au         0.0000000000        2.0730000000        2.0730000000
 Au         0.0000000000        6.2190000000        2.0730000000
 Au         2.0730000000        0.0000000000        2.0730000000
 Au         2.0730000000        4.1460000000        2.0730000000
 Au         4.1460000000        2.0730000000        2.0730000000
 Au         4.1460000000        6.2190000000        2.0730000000
 Au         6.2190000000        0.0000000000        2.0730000000
 Au         6.2190000000        4.1460000000        2.0730000000
 Au         0.0000000000        0.0000000000        4.1460000000
 Au         0.0000000000        4.1460000000        4.1460000000
 Au         2.0730000000        2.0730000000        4.1460000000
 Au         2.0730000000        6.2190000000        4.1460000000
 Au         4.1460000000        0.0000000000        4.1460000000
 Au         4.1460000000        4.1460000000        4.1460000000
 Au         6.2190000000        2.0730000000        4.1460000000
 Au         6.2190000000        6.2190000000        4.1460000000
 Au         0.0000000000        2.0730000000        6.2190000000
 Au         0.0000000000        6.2190000000        6.2190000000
 Au         2.0730000000        0.0000000000        6.2190000000
 Au         2.0730000000        4.1460000000        6.2190000000
 Au         4.1460000000        2.0730000000        6.2190000000
 Au         4.1460000000        6.2190000000        6.2190000000
 Au         6.2190000000        0.0000000000        6.2190000000
 Au         6.2190000000        4.1460000000        6.2190000000
 Au         0.0000000000        0.0000000000        8.2920000000
 Au         0.0000000000        4.1460000000        8.2920000000
 Au         2.0730000000        2.0730000000        8.2920000000
 Au         2.0730000000        6.2190000000        8.2920000000
 Au         4.1460000000        0.0000000000        8.2920000000
 Au         4.1460000000        4.1460000000        8.2920000000
 Au         6.2190000000        2.0730000000        8.2920000000
 Au         6.2190000000        6.2190000000        8.2920000000
 Au         0.0000324722        2.0731941173       10.3656128851
 Au         0.0000006400        6.2189715585       10.3509459048
 Au         2.0813076491        0.0144387319       10.3668650617
 Au         2.0812381845        4.1313776947       10.3667533220
 Au         4.1460236842        2.0728398864       10.3691588224
 Au         4.1459680753        6.2182288957       10.3470059025
 Au         6.2107240606        0.0144560619       10.3669391226
 Au         6.2107956854        4.1313624306       10.3668262989
 Au         0.0000372788       -0.0486760575       12.4558052481
 Au         0.0000386316        4.1949124759       12.4558440023
 Au         1.9640162444        2.0722064005       12.4937545873
 Au         2.0165294180        6.2193050937       12.4550213920
 Au         4.1459868721       -0.1232523847       12.4597379733
 Au         4.1459880408        4.2711576141       12.4600418154
 Au         6.3281448917        2.0722083740       12.4938649058
 Au         6.2754150018        6.2193067228       12.4551044136
  S         4.1458179334        2.0829525199       14.0266053516
  C         4.1438229099        2.1000950163       15.8428420762
  H         1.9814788835        2.0891448077       16.0185591157
  H         6.3047288168        2.0890776512       16.0251060357
  C         2.9297605134        2.0640354862       16.5598000407
  C         5.3561834214        2.0638075854       16.5655838621
  C         2.9260010889        2.0809889410       17.9582822298
  C         5.3531099738        2.0806977109       17.9640495911
  H         1.9776986953        2.0550909115       18.4986942344
  H         6.3013230424        2.0550152645       18.5049964749
  C         4.1386400953        2.0452767380       18.6802812787
  S         4.1384826264        2.0623408820       20.4955033923
 Au        -0.0034257709       -0.0501780962       22.0649554127
 Au        -0.0034379497        4.1958333531       22.0650220319
 Au         1.9574626567        2.0739973718       22.0234835333
 Au         2.0156723444        6.2186795959       22.0625208540
 Au         4.1415477434       -0.1239011508       22.0530955929
 Au         4.1415444578        4.2674493965       22.0531897388
 Au         6.3325975650        2.0739838834       22.0235317338
 Au         6.2190000000        6.2190000000       22.0860000000
 Au         0.0000000000        2.0730000000       24.1590000000
 Au         0.0000000000        6.2190000000       24.1590000000
 Au         2.0730000000        0.0000000000       24.1590000000
 Au         2.0730000000        4.1460000000       24.1590000000
 Au         4.1460000000        2.0730000000       24.1590000000
 Au         4.1460000000        6.2190000000       24.1590000000
 Au         6.2190000000        0.0000000000       24.1590000000
 Au         6.2190000000        4.1460000000       24.1590000000
 Au         0.0000000000        0.0000000000       26.2320000000
 Au         0.0000000000        4.1460000000       26.2320000000
 Au         2.0730000000        2.0730000000       26.2320000000
 Au         2.0730000000        6.2190000000       26.2320000000
 Au         4.1460000000        0.0000000000       26.2320000000
 Au         4.1460000000        4.1460000000       26.2320000000
 Au         6.2190000000        2.0730000000       26.2320000000
 Au         6.2190000000        6.2190000000       26.2320000000
 Au         0.0000000000        2.0730000000       28.3050000000
 Au         0.0000000000        6.2190000000       28.3050000000
 Au         2.0730000000        0.0000000000       28.3050000000
 Au         2.0730000000        4.1460000000       28.3050000000
 Au         4.1460000000        2.0730000000       28.3050000000
 Au         4.1460000000        6.2190000000       28.3050000000
 Au         6.2190000000        0.0000000000       28.3050000000
 Au         6.2190000000        4.1460000000       28.3050000000
 Au         0.0000000000        0.0000000000       30.3780000000
 Au         0.0000000000        4.1460000000       30.3780000000
 Au         2.0730000000        2.0730000000       30.3780000000
 Au         2.0730000000        6.2190000000       30.3780000000
 Au         4.1460000000        0.0000000000       30.3780000000
 Au         4.1460000000        4.1460000000       30.3780000000
 Au         6.2190000000        2.0730000000       30.3780000000
 Au         6.2190000000        6.2190000000       30.3780000000
 Au         0.0000000000        2.0730000000       32.4510000000
 Au         0.0000000000        6.2190000000       32.4510000000
 Au         2.0730000000        0.0000000000       32.4510000000
 Au         2.0730000000        4.1460000000       32.4510000000
 Au         4.1460000000        2.0730000000       32.4510000000
 Au         4.1460000000        6.2190000000       32.4510000000
 Au         6.2190000000        0.0000000000       32.4510000000
 Au         6.2190000000        4.1460000000       32.4510000000
     116
 i =        4, E =     -3518.0891206097
 Au         0.0000000000        0.0000000000        0.0000000000
 Au         0.0000000000        4.1460000000        0.0000000000
 Au         2.0730000000        2.0730000000        0.0000000000
 Au         2.0730000000        6.2190000000        0.0000000000
 Au         4.1460000000        0.0000000000        0.0000000000
 Au         4.1460000000        4.1460000000        0.0000000000
 Au         6.2190000000        2.0730000000        0.0000000000
 Au         6.2190000000        6.2190000000        0.0000000000
 Au         0.0000000000        2.0730000000        2.0730000000
 Au         0.0000000000        6.2190000000        2.0730000000
 Au         2.0730000000        0.0000000000        2.0730000000
 Au         2.0730000000        4.1460000000        2.0730000000
 Au         4.1460000000        2.0730000000        2.0730000000
 Au         4.1460000000        6.2190000000        2.0730000000
 Au         6.2190000000        0.0000000000        2.0730000000
 Au         6.2190000000        4.1460000000        2.0730000000
 Au         0.0000000000        0.0000000000        4.1460000000
 Au         0.0000000000        4.1460000000        4.1460000000
 Au         2.0730000000        2.0730000000        4.1460000000
 Au         2.0730000000        6.2190000000        4.1460000000
 Au         4.1460000000        0.0000000000        4.1460000000
 Au         4.1460000000        4.1460000000        4.1460000000
 Au         6.2190000000        2.0730000000        4.1460000000
 Au         6.2190000000        6.2190000000        4.1460000000
 Au         0.0000000000        2.0730000000        6.2190000000
 Au         0.0000000000        6.2190000000        6.2190000000
 Au         2.0730000000        0.0000000000        6.2190000000
 Au         2.0730000000        4.1460000000        6.2190000000
 Au         4.1460000000        2.0730000000        6.2190000000
 Au         4.1460000000        6.2190000000        6.2190000000
 Au         6.2190000000        0.0000000000        6.2190000000
 Au         6.2190000000        4.1460000000        6.2190000000
 Au         0.0000000000        0.0000000000        8.2920000000
 Au         0.0000000000        4.1460000000        8.2920000000
 Au         2.0730000000        2.0730000000        8.2920000000
 Au         2.0730000000        6.2190000000        8.2920000000
 Au         4.1460000000        0.0000000000        8.2920000000
 Au         4.1460000000        4.1460000000        8.2920000000
 Au         6.2190000000        2.0730000000        8.2920000000
 Au         6.2190000000        6.2190000000        8.2920000000
 Au         0.0000070589        2.0732066986       10.3770171695
 Au        -0.0000088555        6.2189496301       10.3405331493
 Au         2.0827391193        0.0164349566       10.3727473186
 Au         2.0826528649        4.1292129063       10.3727670796
 Au         4.1460016114        2.0728816993       10.3753855415
 Au         4.1459663986        6.2182950821       10.3567948426
 Au         6.2093480476        0.0164528120       10.3728432236
 Au         6.2094363833        4.1291973119       10.3728627941
 Au         0.0000279012       -0.0413649613       12.4573857023
 Au         0.0000288964        4.1874992623       12.4573500929
 Au         1.9565342141        2.0717834945       12.4962996238
 Au         2.0227979886        6.2195777495       12.4552095899
 Au         4.1460030836       -0.1308301294       12.4598100188
 Au         4.1460046393        4.2800473294       12.4600673336
 Au         6.3356893015        2.0717871821       12.4963650037
 Au         6.2691353644        6.2195795443       12.4553581814
  S         4.1460058253        2.0847456682       14.0395044135
  C         4.1430689400        2.0853022065       15.8570966227
  H         1.9798972370        2.0865686828       16.0188024081
  H         6.3069892251        2.0864351412       16.0264316368
  C         2.9220810230        2.0770510616       16.5593996110
  C         5.3626738789        2.0770474295       16.5630764552
  C         2.9193173084        2.0677753021       17.9607165333
  C         5.3609872456        2.0676771700       17.9643655658
  H         1.9754294957        2.0578356600       18.4975593032
  H         6.3028594087        2.0577056568       18.5049751830
  C         4.1394076182        2.0600760134       18.6654542694
  S         4.1391700612        2.0605984289       20.4819671314
 Au        -0.0066841254       -0.0462893971       22.0629628929
 Au        -0.0067385351        4.1921603387       22.0629430643
 Au         1.9512665747        2.0744036320       22.0248455263
 Au         2.0194036175        6.2183439201       22.0591002218
 Au         4.1370739876       -0.1244817929       22.0533420900
 Au         4.1371493385        4.2666500158       22.0532998270
 Au         6.3372600562        2.0743889829       22.0244662116
 Au         6.2190000000        6.2190000000       22.0860000000
 Au         0.0000000000        2.0730000000       24.1590000000
 Au         0.0000000000        6.2190000000       24.1590000000
 Au         2.0730000000        0.0000000000       24.1590000000
 Au         2.0730000000        4.1460000000       24.1590000000
 Au         4.1460000000        2.0730000000       24.1590000000
 Au         4.1460000000        6.2190000000       24.1590000000
 Au         6.2190000000        0.0000000000       24.1590000000
 Au         6.2190000000        4.1460000000       24.1590000000
 Au         0.0000000000        0.0000000000       26.2320000000
 Au         0.0000000000        4.1460000000       26.2320000000
 Au         2.0730000000        2.0730000000       26.2320000000
 Au         2.0730000000        6.2190000000       26.2320000000
 Au         4.1460000000        0.0000000000       26.2320000000
 Au         4.1460000000        4.1460000000       26.2320000000
 Au         6.2190000000        2.0730000000       26.2320000000
 Au         6.2190000000        6.2190000000       26.2320000000
 Au         0.0000000000        2.0730000000       28.3050000000
 Au         0.0000000000        6.2190000000       28.3050000000
 Au         2.0730000000        0.0000000000       28.3050000000
 Au         2.0730000000        4.1460000000       28.3050000000
 Au         4.1460000000        2.0730000000       28.3050000000
 Au         4.1460000000        6.2190000000       28.3050000000
 Au         6.2190000000        0.0000000000       28.3050000000
 Au         6.2190000000        4.1460000000       28.3050000000
 Au         0.0000000000        0.0000000000       30.3780000000
 Au         0.0000000000        4.1460000000       30.3780000000
 Au         2.0730000000        2.0730000000       30.3780000000
 Au         2.0730000000        6.2190000000       30.3780000000
 Au         4.1460000000        0.0000000000       30.3780000000
 Au         4.1460000000        4.1460000000       30.3780000000
 Au         6.2190000000        2.0730000000       30.3780000000
 Au         6.2190000000        6.2190000000       30.3780000000
 Au         0.0000000000        2.0730000000       32.4510000000
 Au         0.0000000000        6.2190000000       32.4510000000