     116
 i =        1, E =     -3518.0752037057
 Au         0.0000000000        0.0000000000        0.0000000000
 Au         0.0000000000        4.1460000000        0.0000000000
 Au         2.0730000000        2.0730000000        0.0000000000
 Au         2.0730000000        6.2190000000        0.0000000000
 Au         4.1460000000        0.0000000000        0.0000000000
 Au         4.1460000000        4.1460000000        0.0000000000
 Au         6.2190000000        2.0730000000        0.0000000000
 Au         6.2190000000        6.2190000000        0.0000000000
 Au         0.0000000000        2.0730000000        2.0730000000
 Au         0.0000000000        6.2190000000        2.0730000000
 Au         2.0730000000        0.0000000000        2.0730000000
 Au         2.0730000000        4.1460000000        2.0730000000
 Au         4.1460000000        2.0730000000        2.0730000000
 Au         4.1460000000        6.2190000000        2.0730000000
 Au         6.2190000000        0.0000000000        2.0730000000
 Au         6.2190000000        4.1460000000        2.0730000000
 Au         0.0000000000        0.0000000000        4.1460000000
 Au         0.0000000000        4.1460000000        4.1460000000
 Au         2.0730000000        2.0730000000        4.1460000000
 Au         2.0730000000        6.2190000000        4.1460000000
 Au         4.1460000000        0.0000000000        4.1460000000
 Au         4.1460000000        4.1460000000        4.1460000000
 Au         6.2190000000        2.0730000000        4.1460000000
 Au         6.2190000000        6.2190000000        4.1460000000
 Au         0.0000000000        2.0730000000        6.2190000000
 Au         0.0000000000        6.2190000000        6.2190000000
 Au         2.0730000000        0.0000000000        6.2190000000
 Au         2.0730000000        4.1460000000        6.2190000000
 Au         4.1460000000        2.0730000000        6.2190000000
 Au         4.1460000000        6.2190000000        6.2190000000
 Au         6.2190000000        0.0000000000        6.2190000000
 Au         6.2190000000        4.1460000000        6.2190000000
 Au         0.0000000000        0.0000000000        8.2920000000
 Au         0.0000000000        4.1460000000        8.2920000000
 Au         2.0730000000        2.0730000000        8.2920000000
 Au         2.0730000000        6.2190000000        8.2920000000
 Au         4.1460000000        0.0000000000        8.2920000000
 Au         4.1460000000        4.1460000000        8.2920000000
 Au         6.2190000000        2.0730000000        8.2920000000
 Au         6.2190000000        6.2190000000        8.2920000000
 Au        -0.0000053297        2.0729828697       10.3700480392
 Au        -0.0000154111        6.2189574061       10.3653339163
 Au         2.0673022308       -0.0050315046       10.3486335908
 Au         2.0673053151        4.1510985375       10.3485753303
 Au         4.1459927765        2.0729142543       10.2519472738
 Au         4.1459919214        6.2188772711       10.3678979146
 Au         6.2246889384       -0.0050361934       10.3485893910
 Au         6.2246863301        4.1511033926       10.3485303867
 Au         0.0000433020       -0.0176010462       12.4389603776
 Au         0.0000436868        4.1636816138       12.4390875999
 Au         1.8923237367        2.0730220002       12.4093921087
 Au         2.0538738134        6.2189325442       12.4377672730
 Au         4.1459755696       -0.1863133719       12.3992096938
 Au         4.1459761477        4.3328549562       12.3985648923
 Au         6.3996551138        2.0730249821       12.4092852641
 Au         6.2381338831        6.2189332040       12.4377787268
  S         4.1461553681        2.0751112228       13.7363781447
  C         4.1432173572        2.0901176517       15.5120798058
  H         1.9616865650        2.0980796981       15.5551292240
  H         6.3266278746        2.0979223834       15.5651627258
  C         2.8792594704        2.0748960940       16.1204340837
  C         5.4038756020        2.0750552422       16.1226345196
  C         2.8785535978        2.0692232491       17.5186456209
  C         5.4021137342        2.0692880085       17.5201908049
  H         1.9539815704        2.0461334992       18.0757809458
  H         6.3206301666        2.0459475967       18.0856518820
  C         4.1391771652        2.0547624480       18.1302330926
  S         4.1422515274        2.0706731349       19.9060844847
 Au         0.0008697065       -0.0149876504       21.2041447573
 Au         0.0008632019        4.1609020147       21.2042870376
 Au         1.8898419805        2.0730147940       21.2343801459
 Au         2.0556801120        6.2190398059       21.2055120462
 Au         4.1469643730       -0.1896590036       21.2447216417
 Au         4.1469693758        4.3351548898       21.2439811434
 Au         6.4010245706        2.0730163682       21.2329834367
 Au         6.2190000000        6.2190000000       21.2040000000
 Au         0.0000000000        2.0730000000       23.2770000000
 Au         0.0000000000        6.2190000000       23.2770000000
 Au         2.0730000000        0.0000000000       23.2770000000
 Au         2.0730000000        4.1460000000       23.2770000000
 Au         4.1460000000        2.0730000000       23.2770000000
 Au         4.1460000000        6.2190000000       23.2770000000
 Au         6.2190000000        0.0000000000       23.2770000000
 Au         6.2190000000        4.1460000000       23.2770000000
 Au         0.0000000000        0.0000000000       25.3500000000
 Au         0.0000000000        4.1460000000       25.3500000000
 Au         2.0730000000        2.0730000000       25.3500000000
 Au         2.0730000000        6.2190000000       25.3500000000
 Au         4.1460000000        0.0000000000       25.3500000000
 Au         4.1460000000        4.1460000000       25.3500000000
 Au         6.2190000000        2.0730000000       25.3500000000
 Au         6.2190000000        6.2190000000       25.3500000000
 Au         0.0000000000        2.0730000000       27.4230000000
 Au         0.0000000000        6.2190000000       27.4230000000
 Au         2.0730000000        0.0000000000       27.4230000000
 Au         2.0730000000        4.1460000000       27.4230000000
 Au         4.1460000000        2.0730000000       27.4230000000
 Au         4.1460000000        6.2190000000       27.4230000000
 Au         6.2190000000        0.0000000000       27.4230000000
 Au         6.2190000000        4.1460000000       27.4230000000
 Au         0.0000000000        0.0000000000       29.4960000000
 Au         0.0000000000        4.1460000000       29.4960000000
 Au         2.0730000000        2.0730000000       29.4960000000
 Au         2.0730000000        6.2190000000       29.4960000000
 Au         4.1460000000        0.0000000000       29.4960000000
 Au         4.1460000000        4.1460000000       29.4960000000
 Au         6.2190000000        2.0730000000       29.4960000000
 Au         6.2190000000        6.2190000000       29.4960000000
 Au         0.0000000000        2.0730000000       31.5690000000
 Au         0.0000000000        6.2190000000       31.5690000000
 Au         2.0730000000        0.0000000000       31.5690000000
 Au         2.0730000000        4.1460000000       31.5690000000
 Au         4.1460000000        2.0730000000       31.5690000000
 Au         4.1460000000        6.2190000000       31.5690000000
 Au         6.2190000000        0.0000000000       31.5690000000
 Au         6.2190000000        4.1460000000       31.5690000000
     116
 i =        2, E =     -3518.0860304953
 Au         0.0000000000        0.0000000000        0.0000000000
 Au         0.0000000000        4.1460000000        0.0000000000
 Au         2.0730000000        2.0730000000        0.0000000000
 Au         2.0730000000        6.2190000000        0.0000000000
 Au         4.1460000000        0.0000000000        0.0000000000
 Au         4.1460000000        4.1460000000        0.0000000000
 Au         6.2190000000        2.0730000000        0.0000000000
 Au         6.2190000000        6.2190000000        0.0000000000
 Au         0.0000000000        2.0730000000        2.0730000000
 Au         0.0000000000        6.2190000000        2.0730000000
 Au         2.0730000000        0.0000000000        2.0730000000
 Au         2.0730000000        4.1460000000        2.0730000000
 Au         4.1460000000        2.0730000000        2.0730000000
 Au         4.1460000000        6.2190000000        2.0730000000
 Au         6.2190000000        0.0000000000        2.0730000000
 Au         6.2190000000        4.1460000000        2.0730000000
 Au         0.0000000000        0.0000000000        4.1460000000
 Au         0.0000000000        4.1460000000        4.1460000000
 Au         2.0730000000        2.0730000000        4.1460000000
 Au         2.0730000000        6.2190000000        4.1460000000
 Au         4.1460000000        0.0000000000        4.1460000000
 Au         4.1460000000        4.1460000000        4.1460000000
 Au         6.2190000000        2.0730000000        4.1460000000
 Au         6.2190000000        6.2190000000        4.1460000000
 Au         0.0000000000        2.0730000000        6.2190000000
 Au         0.0000000000        6.2190000000        6.2190000000
 Au         2.0730000000        0.0000000000        6.2190000000
 Au         2.0730000000        4.1460000000        6.2190000000
 Au         4.1460000000        2.0730000000        6.2190000000
 Au         4.1460000000        6.2190000000        6.2190000000
 Au         6.2190000000        0.0000000000        6.2190000000
 Au         6.2190000000        4.1460000000        6.2190000000
 Au         0.0000000000        0.0000000000        8.2920000000
 Au         0.0000000000        4.1460000000        8.2920000000
 Au         2.0730000000        2.0730000000        8.2920000000
 Au         2.0730000000        6.2190000000        8.2920000000
 Au         4.1460000000        0.0000000000        8.2920000000
 Au         4.1460000000        4.1460000000        8.2920000000
 Au         6.2190000000        2.0730000000        8.2920000000
 Au         6.2190000000        6.2190000000        8.2920000000
 Au        -0.0000041275        2.0729870796       10.3224112986
 Au        -0.0000469134        6.2189243686       10.3632556277
 Au         2.0739189011        0.0031818924       10.3533642699
 Au         2.0738333773        4.1428126778       10.3531610777
 Au         4.1460126268        2.0727946901       10.2811390310
 Au         4.1460024987        6.2189129820       10.3128534261
 Au         6.2181022778        0.0031632790       10.3533601303
 Au         6.2181899127        4.1428324994       10.3531548693
 Au         0.0000635724       -0.0582007469       12.4491525176
 Au         0.0000653780        4.2043211190       12.4493894543
 Au         1.8837046870        2.0728947869       12.4170186960
 Au         2.0100414968        6.2191252588       12.4476854656
 Au         4.1459408562       -0.1966577848       12.4009956371
 Au         4.1459405769        4.3445140797       12.3992449933
 Au         6.4081537453        2.0728971725       12.4171631186
 Au         6.2819546819        6.2191264513       12.4476149315
  S         4.1459136824        2.0788794292       13.6845651894
  C         4.1438468025        2.0755711407       15.4590980222
  H         1.9852043706        2.0911143191       15.5548055434
  H         6.3024190654        2.0910570166       15.5623541644
  C         2.9124465357        2.0934505822       16.1225375988
  C         5.3727848054        2.0932553328       16.1264231720
  C         2.9085036099        2.0514256836       17.5143536198
  C         5.3707176308        2.0513251900       17.5178526510
  H         1.9783968349        2.0530108358       18.0790605701
  H         6.2980193172        2.0528785643       18.0864329562
  C         4.1386186276        2.0690643361       18.1791289926
  S         4.1412076511        2.0668958906       19.9517013121
 Au        -0.0014298969       -0.0594525743       21.1917887409
 Au        -0.0014299873        4.2052839748       21.1920522335
 Au         1.8789392265        2.0731871473       21.2164535633
 Au         2.0092019845        6.2188368700       21.1926344196
 Au         4.1438424987       -0.1998340134       21.2321634444
 Au         4.1438420490        4.3439733684       21.2302972657
 Au         6.4120563185        2.0731849161       21.2149644491
 Au         6.2190000000        6.2190000000       21.2040000000
 Au         0.0000000000        2.0730000000       23.2770000000
 Au         0.0000000000        6.2190000000       23.2770000000
 Au         2.0730000000        0.0000000000       23.2770000000
 Au         2.0730000000        4.1460000000       23.2770000000
 Au         4.1460000000        2.0730000000       23.2770000000
 Au         4.1460000000        6.2190000000       23.2770000000
 Au         6.2190000000        0.0000000000       23.2770000000
 Au         6.2190000000        4.1460000000       23.2770000000
 Au         0.0000000000        0.0000000000       25.3500000000
 Au         0.0000000000        4.1460000000       25.3500000000
 Au         2.0730000000        2.0730000000       25.3500000000
 Au         2.0730000000        6.2190000000       25.3500000000
 Au         4.1460000000        0.0000000000       25.3500000000
 Au         4.1460000000        4.1460000000       25.3500000000
 Au         6.2190000000        2.0730000000       25.3500000000
 Au         6.2190000000        6.2190000000       25.3500000000
 Au         0.0000000000        2.0730000000       27.4230000000
 Au         0.0000000000        6.2190000000       27.4230000000
 Au         2.0730000000        0.0000000000       27.4230000000
 Au         2.0730000000        4.1460000000       27.4230000000
 Au         4.1460000000        2.0730000000       27.4230000000
 Au         4.1460000000        6.2190000000       27.4230000000
 Au         6.2190000000        0.0000000000       27.4230000000
 Au         6.2190000000        4.1460000000       27.4230000000
 Au         0.0000000000        0.0000000000       29.4960000000
 Au         0.0000000000        4.1460000000       29.4960000000
 Au         2.0730000000        2.0730000000       29.4960000000
 Au         2.0730000000        6.2190000000       29.4960000000
 Au         4.1460000000        0.0000000000       29.4960000000
 Au         4.1460000000        4.1460000000       29.4960000000
 Au         6.2190000000        2.0730000000       29.4960000000
 Au         6.2190000000        6.2190000000       29.4960000000
 Au         0.0000000000        2.0730000000       31.5690000000
 Au         0.0000000000        6.2190000000       31.5690000000
 Au         2.0730000000        0.0000000000       31.5690000000
 Au         2.0730000000        4.1460000000       31.5690000000
 Au         4.1460000000        2.0730000000       31.5690000000
 Au         4.1460000000        6.2190000000       31.5690000000
 Au         6.2190000000        0.0000000000       31.5690000000
 Au         6.2190000000        4.1460000000       31.5690000000
     116
 i =        3, E =     -3518.0852889247
 Au         0.0000000000        0.0000000000        0.0000000000
 Au         0.0000000000        4.1460000000        0.0000000000
 Au         2.0730000000        2.0730000000        0.0000000000
 Au         2.0730000000        6.2190000000        0.0000000000
 Au         4.1460000000        0.0000000000        0.0000000000
 Au         4.1460000000        4.1460000000        0.0000000000
 Au         6.2190000000        2.0730000000        0.0000000000
 Au         6.2190000000        6.2190000000        0.0000000000
 Au         0.0000000000        2.0730000000        2.0730000000
 Au         0.0000000000        6.2190000000        2.0730000000
 Au         2.0730000000        0.0000000000        2.0730000000
 Au         2.0730000000        4.1460000000        2.0730000000
 Au         4.1460000000        2.0730000000        2.0730000000
 Au         4.1460000000        6.2190000000        2.0730000000
 Au         6.2190000000        0.0000000000        2.0730000000
 Au         6.2190000000        4.1460000000        2.0730000000
 Au         0.0000000000        0.0000000000        4.1460000000
 Au         0.0000000000        4.1460000000        4.1460000000
 Au         2.0730000000        2.0730000000        4.1460000000
 Au         2.0730000000        6.2190000000        4.1460000000
 Au         4.1460000000        0.0000000000        4.1460000000
 Au         4.1460000000        4.1460000000        4.1460000000
 Au         6.2190000000        2.0730000000        4.1460000000
 Au         6.2190000000        6.2190000000        4.1460000000
 Au         0.0000000000        2.0730000000        6.2190000000
 Au         0.0000000000        6.2190000000        6.2190000000
 Au         2.0730000000        0.0000000000        6.2190000000
 Au         2.0730000000        4.1460000000        6.2190000000
 Au         4.1460000000        2.0730000000        6.2190000000
 Au         4.1460000000        6.2190000000        6.2190000000
 Au         6.2190000000        0.0000000000        6.2190000000
 Au         6.2190000000        4.1460000000        6.2190000000
 Au         0.0000000000        0.0000000000        8.2920000000
 Au         0.0000000000        4.1460000000        8.2920000000
 Au         2.0730000000        2.0730000000        8.2920000000
 Au         2.0730000000        6.2190000000        8.2920000000
 Au         4.1460000000        0.0000000000        8.2920000000
 Au         4.1460000000        4.1460000000        8.2920000000
 Au         6.2190000000        2.0730000000        8.2920000000
 Au         6.2190000000        6.2190000000        8.2920000000
 Au        -0.0001053711        2.0729935103       10.3091519954
 Au        -0.0000641810        6.2189018032       10.3383714141
 Au         2.0794194502        0.0103630664       10.3651018755
 Au         2.0790893096        4.1353420433       10.3647947325
 Au         4.1460241650        2.0728356520       10.3083267528
 Au         4.1459854342        6.2195944963       10.2938453697
 Au         6.2127023994        0.0103681854       10.3651552722
 Au         6.2130349208        4.1353394462       10.3648478008
 Au         0.0000719640       -0.0698096034       12.4583381275
 Au         0.0000718326        4.2159492857       12.4585018837
 Au         1.8701113783        2.0724884728       12.4227459832
 Au         1.9949622634        6.2196042244       12.4557635874
 Au         4.1458987291       -0.2124990853       12.3986020941
 Au         4.1458984881        4.3611855053       12.3970930729
 Au         6.4218070644        2.0724924614       12.4230463821
 Au         6.2970137604        6.2196034592       12.4556487015
  S         4.1458668033        2.0795634023       13.6566544746
  C         4.1435208536        2.1094594049       15.4362055692
  H         1.9906720411        2.0928814215       15.5582168504
  H         6.2963728974        2.0927685214       15.5650995301
  C         2.9212841285        2.0546638996       16.1204246147
  C         5.3640371034        2.0546092508       16.1242996872
  C         2.9169551062        2.0899072459       17.5131091580
  C         5.3628505802        2.0896785048       17.5168122102
  H         1.9861469076        2.0514672167       18.0760244629
  H         6.2918541004        2.0513517934       18.0826798061
  C         4.1391021858        2.0361749267       18.1957353146
  S         4.1403744010        2.0661507547       19.9694758484
 Au        -0.0095110080       -0.0865655798       21.1772613233
 Au        -0.0095541922        4.2323850487       21.1774507910
 Au         1.8689290513        2.0736253657       21.1975560878
 Au         1.9839485042        6.2183146888       21.1755153725
 Au         4.1316855854       -0.1993419037       21.2156176651
 Au         4.1318314310        4.3427627456       21.2141058429
 Au         6.4209845042        2.0736326993       21.1956125032
 Au         6.2190000000        6.2190000000       21.2040000000
 Au         0.0000000000        2.0730000000       23.2770000000
 Au         0.0000000000        6.2190000000       23.2770000000
 Au         2.0730000000        0.0000000000       23.2770000000
 Au         2.0730000000        4.1460000000       23.2770000000
 Au         4.1460000000        2.0730000000       23.2770000000
 Au         4.1460000000        6.2190000000       23.2770000000
 Au         6.2190000000        0.0000000000       23.2770000000
 Au         6.2190000000        4.1460000000       23.2770000000
 Au         0.0000000000        0.0000000000       25.3500000000
 Au         0.0000000000        4.1460000000       25.3500000000
 Au         2.0730000000        2.0730000000       25.3500000000
 Au         2.0730000000        6.2190000000       25.3500000000
 Au         4.1460000000        0.0000000000       25.3500000000
 Au         4.1460000000        4.1460000000       25.3500000000
 Au         6.2190000000        2.0730000000       25.3500000000
 Au         6.2190000000        6.2190000000       25.3500000000
 Au         0.0000000000        2.0730000000       27.4230000000
 Au         0.0000000000        6.2190000000       27.4230000000
 Au         2.0730000000        0.0000000000       27.4230000000
 Au         2.0730000000        4.1460000000       27.4230000000
 Au         4.1460000000        2.0730000000       27.4230000000
 Au         4.1460000000        6.2190000000       27.4230000000
 Au         6.2190000000        0.0000000000       27.4230000000
 Au         6.2190000000        4.1460000000       27.4230000000
 Au         0.0000000000        0.0000000000       29.4960000000
 Au         0.0000000000        4.1460000000       29.4960000000
 Au         2.0730000000        2.0730000000       29.4960000000
 Au         2.0730000000        6.2190000000       29.4960000000
 Au         4.1460000000        0.0000000000       29.4960000000
 Au         4.1460000000        4.1460000000       29.4960000000
 Au         6.2190000000        2.0730000000       29.4960000000
 Au         6.2190000000        6.2190000000       29.4960000000
 Au         0.0000000000        2.0730000000       31.5690000000
 Au         0.0000000000        6.2190000000       31.5690000000
 Au         2.0730000000        0.0000000000       31.5690000000
 Au         2.0730000000        4.1460000000       31.5690000000
 Au         4.1460000000        2.0730000000       31.5690000000
 Au         4.1460000000        6.2190000000       31.5690000000
 Au         6.2190000000        0.0000000000       31.5690000000
 Au         6.2190000000        4.1460000000       31.5690000000
     116
 i =        4, E =     -3518.0883403425
 Au         0.0000000000        0.0000000000        0.0000000000
 Au         0.0000000000        4.1460000000        0.0000000000
 Au         2.0730000000        2.0730000000        0.0000000000
 Au         2.0730000000        6.2190000000        0.0000000000
 Au         4.1460000000        0.0000000000        0.0000000000
 Au         4.1460000000        4.1460000000        0.0000000000
 Au         6.2190000000        2.0730000000        0.0000000000
 Au         6.2190000000        6.2190000000        0.0000000000
 Au         0.0000000000        2.0730000000        2.0730000000
 Au         0.0000000000        6.2190000000        2.0730000000
 Au         2.0730000000        0.0000000000        2.0730000000
 Au         2.0730000000        4.1460000000        2.0730000000
 Au         4.1460000000        2.0730000000        2.0730000000
 Au         4.1460000000        6.2190000000        2.0730000000
 Au         6.2190000000        0.0000000000        2.0730000000
 Au         6.2190000000        4.1460000000        2.0730000000
 Au         0.0000000000        0.0000000000        4.1460000000
 Au         0.0000000000        4.1460000000        4.1460000000
 Au         2.0730000000        2.0730000000        4.1460000000
 Au         2.0730000000        6.2190000000        4.1460000000
 Au         4.1460000000        0.0000000000        4.1460000000
 Au         4.1460000000        4.1460000000        4.1460000000
 Au         6.2190000000        2.0730000000        4.1460000000
 Au         6.2190000000        6.2190000000        4.1460000000
 Au         0.0000000000        2.0730000000        6.2190000000
 Au         0.0000000000        6.2190000000        6.2190000000
 Au         2.0730000000        0.0000000000        6.2190000000
 Au         2.0730000000        4.1460000000        6.2190000000
 Au         4.1460000000        2.0730000000        6.2190000000
 Au         4.1460000000        6.2190000000        6.2190000000
 Au         6.2190000000        0.0000000000        6.2190000000
 Au         6.2190000000        4.1460000000        6.2190000000
 Au         0.0000000000        0.0000000000        8.2920000000
 Au         0.0000000000        4.1460000000        8.2920000000
 Au         2.0730000000        2.0730000000        8.2920000000
 Au         2.0730000000        6.2190000000        8.2920000000
 Au         4.1460000000        0.0000000000        8.2920000000
 Au         4.1460000000        4.1460000000        8.2920000000
 Au         6.2190000000        2.0730000000        8.2920000000
 Au         6.2190000000        6.2190000000        8.2920000000
 Au        -0.0001265517        2.0728958605       10.3154994642
 Au        -0.0000345252        6.2188409931       10.3281636057
 Au         2.0797117484        0.0116357660       10.3702908114
 Au         2.0794647407        4.1341293432       10.3700167352
 Au         4.1460239475        2.0727694558       10.3112426602
 Au         4.1459736706        6.2194724631       10.2986335212
 Au         6.2124198650        0.0116505092       10.3703758683
 Au         6.2126722420        4.1341161362       10.3701012234
 Au         0.0000650595       -0.0654176129       12.4603461470
 Au         0.0000644524        4.2116315066       12.4605038752
 Au         1.8629920114        2.0722085273       12.4260856671
 Au         1.9979016672        6.2197792804       12.4569780476
 Au         4.1459171740       -0.2195729537       12.3993513483
 Au         4.1459140216        4.3698780318       12.3968601525
 Au         6.4289676237        2.0722157728       12.4264638357
 Au         6.2940335539        6.2197800093       12.4569140465
  S         4.1458313284        2.0825349394       13.6612086867
  C         4.1432418533        2.0845852435       15.4443196682
  H         1.9836672499        2.0880179038       15.5590672078
  H         6.3032195977        2.0878874085       15.5661658432
  C         2.9142755303        2.0790025707       16.1185550771
  C         5.3705573435        2.0789987230       16.1220429389
  C         2.9118943174        2.0656581753       17.5119253581
  C         5.3686865210        2.0655588343       17.5152564544
  H         1.9814836696        2.0564080700       18.0727411104
  H         6.2969602995        2.0562552460       18.0796255085
  C         4.1395122278        2.0605554833       18.1860227279
  S         4.1403962194        2.0633525166       19.9627089837
 Au        -0.0144519504       -0.0849481569       21.1717326630
 Au        -0.0145967037        4.2307831907       21.1719043311
 Au         1.8616660489        2.0739308756       21.1923307135
 Au         1.9874584043        6.2180862067       21.1685453850
 Au         4.1244161249       -0.2000906494       21.2116460220
 Au         4.1247044501        4.3420393613       21.2093575672
 Au         6.4261955555        2.0739412400       21.1904319942
 Au         6.2190000000        6.2190000000       21.2040000000
 Au         0.0000000000        2.0730000000       23.2770000000
 Au         0.0000000000        6.2190000000       23.2770000000
 Au         2.0730000000        0.0000000000       23.2770000000
 Au         2.0730000000        4.1460000000       23.2770000000
 Au         4.1460000000        2.0730000000       23.2770000000
 Au         4.1460000000        6.2190000000       23.2770000000
 Au         6.2190000000        0.0000000000       23.2770000000
 Au         6.2190000000        4.1460000000       23.2770000000
 Au         0.0000000000        0.0000000000       25.3500000000
 Au         0.0000000000        4.1460000000       25.3500000000
 Au         2.0730000000        2.0730000000       25.3500000000
 Au         2.0730000000        6.2190000000       25.3500000000
 Au         4.1460000000        0.0000000000       25.3500000000
 Au         4.1460000000        4.1460000000       25.3500000000
 Au         6.2190000000        2.0730000000       25.3500000000
 Au         6.2190000000        6.2190000000       25.3500000000
 Au         0.0000000000        2.0730000000       27.4230000000
 Au         0.0000000000        6.2190000000       27.4230000000
 Au         2.0730000000        0.0000000000       27.4230000000
 Au         2.0730000000        4.1460000000       27.4230000000
 Au         4.1460000000        2.0730000000       27.4230000000
 Au         4.1460000000        6.2190000000       27.4230000000
 Au         6.2190000000        0.0000000000       27.4230000000
 Au         6.2190000000        4.1460000000       27.4230000000
 Au         0.0000000000        0.0000000000       29.4960000000
 Au         0.0000000000        4.1460000000       29.4960000000
 Au         2.0730000000        2.0730000000       29.4960000000
 Au         2.0730000000        6.2190000000       29.4960000000
 Au         4.1460000000        0.0000000000       29.4960000000
 Au         4.1460000000        4.1460000000       29.4960000000
 Au         6.2190000000        2.0730000000       29.4960000000
 Au         6.2190000000        6.2190000000       29.4960000000
 Au         0.0000000000        2.0730000000       31.5690000000
 Au         0.0000000000        6.2190000000       31.5690000000