 DBCSR| CPU Multiplication driver                                           BLAS
 DBCSR| Multrec recursion limit                                              512
 DBCSR| Multiplication stack size                                           1000
 DBCSR| Maximum elements for images                                    UNLIMITED
 DBCSR| Multiplicative factor virtual images                                   1
 DBCSR| Use multiplication densification                                       T
 DBCSR| Multiplication size stacks                                             3
 DBCSR| Use memory pool for CPU allocation                                     F
 DBCSR| Number of 3D layers                                               SINGLE
 DBCSR| Use MPI memory allocation                                              F
 DBCSR| Use RMA algorithm                                                      F
 DBCSR| Use Communication thread                                               T
 DBCSR| Communication thread load                                             87
 DBCSR| MPI: My node id                                                        0
 DBCSR| MPI: Number of nodes                                                  64
 DBCSR| OMP: Current number of threads                                         1
 DBCSR| OMP: Max number of threads                                             1
 DBCSR| Split modifier for TAS multiplication algorithm                  1.0E+00


  **** **** ******  **  PROGRAM STARTED AT               2023-09-12 09:26:26.424
 ***** ** ***  *** **   PROGRAM STARTED ON                             nid005809
 **    ****   ******    PROGRAM STARTED BY                                cahart
 ***** **    ** ** **   PROGRAM PROCESS ID                                107094
  **** **  *******  **  PROGRAM STARTED IN /mnt/lustre/a2fs-work2/work/e05/e05/c
                                           ahart/postdoc/transport/AuH2/cp2k-sme
                                           agol/archer_pbe/geo_opt/NEnergReal-64
                                           _kpoints-3-3-20_omp-1_ParallelOverKNu
                                           m-1/1.7

 CP2K| version string:                 CP2K version 2022.1 (Development Version)
 CP2K| source code revision number:                                  git:5518aa6
 CP2K| cp2kflags: omp libint fftw3 libxc elpa parallel mpi3 scalapack mkl       
 CP2K| is freely available from                            https://www.cp2k.org/
 CP2K| Program compiled at                          Tue 12 Sep 09:20:02 BST 2023
 CP2K| Program compiled on                                                  ln01
 CP2K| Program compiled for                                                local
 CP2K| Data directory path    /work/e05/e05/cahart/smeagol/smgl/cp2k-private-ser
 CP2K| Input file name                                                   4_V.inp

 GLOBAL| Force Environment number                                              1
 GLOBAL| Basis set file name                                        BASIS_MOLOPT
 GLOBAL| Potential file name                                      GTH_POTENTIALS
 GLOBAL| MM Potential file name                                     MM_POTENTIAL
 GLOBAL| Coordinate file name                                             em.xyz
 GLOBAL| Method name                                                        CP2K
 GLOBAL| Project name                                                          V
 GLOBAL| Run type                                                        GEO_OPT
 GLOBAL| FFT library                                                       FFTW3
 GLOBAL| Diagonalization library                                            ELPA
 GLOBAL| Minimum number of eigenvectors for ELPA usage                        16
 GLOBAL| Orthonormality check for eigenvectors                          DISABLED
 GLOBAL| Matrix multiplication library                                 ScaLAPACK
 GLOBAL| All-to-all communication in single precision                          F
 GLOBAL| FFTs using library dependent lengths                                  T
 GLOBAL| Grid backend                                                       AUTO
 GLOBAL| Global print level                                               MEDIUM
 GLOBAL| MPI I/O enabled                                                       T
 GLOBAL| Total number of message passing processes                            64
 GLOBAL| Number of threads for this process                                    1
 GLOBAL| This output is from process                                           0
 GLOBAL| Stack size for threads created by OpenMP (OMP_STACKSIZE)        default
 GLOBAL| CPU model name                          AMD EPYC 7742 64-Core Processor
 GLOBAL| CPUID                                                              1002

 MEMORY| system memory details [Kb]
 MEMORY|                        rank 0           min           max       average
 MEMORY| MemTotal            263341976     263341976     263341976     263341976
 MEMORY| MemFree             241909900     241909900     241911660     241911180
 MEMORY| Buffers                     0             0             0             0
 MEMORY| Cached                4676824       4676496       4676824       4676557
 MEMORY| Slab                  3209376       3209248       3209376       3209295
 MEMORY| SReclaimable           127080        127068        127080        127070
 MEMORY| MemLikelyFree       246713804     246713804     246715224     246714807


 *** Fundamental physical constants (SI units) ***

 *** Literature: B. J. Mohr and B. N. Taylor,
 ***             CODATA recommended values of the fundamental physical
 ***             constants: 2006, Web Version 5.1
 ***             http://physics.nist.gov/constants

 Speed of light in vacuum [m/s]                             2.99792458000000E+08
 Magnetic constant or permeability of vacuum [N/A**2]       1.25663706143592E-06
 Electric constant or permittivity of vacuum [F/m]          8.85418781762039E-12
 Planck constant (h) [J*s]                                  6.62606896000000E-34
 Planck constant (h-bar) [J*s]                              1.05457162825177E-34
 Elementary charge [C]                                      1.60217648700000E-19
 Electron mass [kg]                                         9.10938215000000E-31
 Electron g factor [ ]                                     -2.00231930436220E+00
 Proton mass [kg]                                           1.67262163700000E-27
 Fine-structure constant                                    7.29735253760000E-03
 Rydberg constant [1/m]                                     1.09737315685270E+07
 Avogadro constant [1/mol]                                  6.02214179000000E+23
 Boltzmann constant [J/K]                                   1.38065040000000E-23
 Atomic mass unit [kg]                                      1.66053878200000E-27
 Bohr radius [m]                                            5.29177208590000E-11

 *** Conversion factors ***

 [u] -> [a.u.]                                              1.82288848426455E+03
 [Angstrom] -> [Bohr] = [a.u.]                              1.88972613288564E+00
 [a.u.] = [Bohr] -> [Angstrom]                              5.29177208590000E-01
 [a.u.] -> [s]                                              2.41888432650478E-17
 [a.u.] -> [fs]                                             2.41888432650478E-02
 [a.u.] -> [J]                                              4.35974393937059E-18
 [a.u.] -> [N]                                              8.23872205491840E-08
 [a.u.] -> [K]                                              3.15774647902944E+05
 [a.u.] -> [kJ/mol]                                         2.62549961709828E+03
 [a.u.] -> [kcal/mol]                                       6.27509468713739E+02
 [a.u.] -> [Pa]                                             2.94210107994716E+13
 [a.u.] -> [bar]                                            2.94210107994716E+08
 [a.u.] -> [atm]                                            2.90362800883016E+08
 [a.u.] -> [eV]                                             2.72113838565563E+01
 [a.u.] -> [Hz]                                             6.57968392072181E+15
 [a.u.] -> [1/cm] (wave numbers)                            2.19474631370540E+05
 [a.u./Bohr**2] -> [1/cm]                                   5.14048714338585E+03
 

 CELL_TOP| Volume [angstrom^3]:                                      3044.391638
 CELL_TOP| Vector a [angstrom     8.867     0.000     0.000   |a| =     8.867120
 CELL_TOP| Vector b [angstrom     0.000     8.867     0.000   |b| =     8.867120
 CELL_TOP| Vector c [angstrom     0.000     0.000    38.720   |c| =    38.720000
 CELL_TOP| Angle (b,c), alpha [degree]:                                90.000000
 CELL_TOP| Angle (a,c), beta  [degree]:                                90.000000
 CELL_TOP| Angle (a,b), gamma [degree]:                                90.000000
 CELL_TOP| Numerically orthorhombic:                                         YES
 CELL_TOP| Periodicity                                                       XYZ

 GENERATE|  Preliminary Number of Bonds generated:                             0
 GENERATE|  Achieved consistency in connectivity generation.

 CELL| Volume [angstrom^3]:                                          3044.391638
 CELL| Vector a [angstrom]:       8.867     0.000     0.000   |a| =     8.867120
 CELL| Vector b [angstrom]:       0.000     8.867     0.000   |b| =     8.867120
 CELL| Vector c [angstrom]:       0.000     0.000    38.720   |c| =    38.720000
 CELL| Angle (b,c), alpha [degree]:                                    90.000000
 CELL| Angle (a,c), beta  [degree]:                                    90.000000
 CELL| Angle (a,b), gamma [degree]:                                    90.000000
 CELL| Numerically orthorhombic:                                             YES
 CELL| Periodicity                                                           XYZ

 CELL_REF| Volume [angstrom^3]:                                      3044.391638
 CELL_REF| Vector a [angstrom     8.867     0.000     0.000   |a| =     8.867120
 CELL_REF| Vector b [angstrom     0.000     8.867     0.000   |b| =     8.867120
 CELL_REF| Vector c [angstrom     0.000     0.000    38.720   |c| =    38.720000
 CELL_REF| Angle (b,c), alpha [degree]:                                90.000000
 CELL_REF| Angle (a,c), beta  [degree]:                                90.000000
 CELL_REF| Angle (a,b), gamma [degree]:                                90.000000
 CELL_REF| Numerically orthorhombic:                                         YES
 CELL_REF| Periodicity                                                       XYZ

 *** WARNING in cryssym.F:165 :: Symmetry library SPGLIB not available ***


 *******************************************************************************
                                    Kpoints
 *******************************************************************************
 BRILLOUIN| K-point scheme                                        Monkhorst-Pack
 BRILLOUIN| K-Point grid                                             3    3    1
 BRILLOUIN| Accuracy in Symmetry determination                      0.100000E-07
 BRILLOUIN| K-Point point group symmetrization                               OFF
 BRILLOUIN| Wavefunction type                                            COMPLEX
 BRILLOUIN| Use full k-point grid     
 BRILLOUIN| List of Kpoints [2 Pi/Bohr]                                        9
 BRILLOUIN| Number           Weight            X              Y              Z
 BRILLOUIN|     1           0.11111       -0.33333       -0.33333        0.00000
 BRILLOUIN|     2           0.11111       -0.33333        0.00000        0.00000
 BRILLOUIN|     3           0.11111       -0.33333        0.33333        0.00000
 BRILLOUIN|     4           0.11111        0.00000       -0.33333        0.00000
 BRILLOUIN|     5           0.11111        0.00000        0.00000        0.00000
 BRILLOUIN|     6           0.11111        0.00000        0.33333        0.00000
 BRILLOUIN|     7           0.11111        0.33333       -0.33333        0.00000
 BRILLOUIN|     8           0.11111        0.33333        0.00000        0.00000
 BRILLOUIN|     9           0.11111        0.33333        0.33333        0.00000
 *******************************************************************************

 *******************************************************************************
 *******************************************************************************
 **                                                                           **
 **     #####                         ##              ##                      **
 **    ##   ##            ##          ##              ##                      **
 **   ##     ##                       ##            ######                    **
 **   ##     ##  ##   ##  ##   #####  ##  ##   ####   ##    #####    #####    **
 **   ##     ##  ##   ##  ##  ##      ## ##   ##      ##   ##   ##  ##   ##   **
 **   ##  ## ##  ##   ##  ##  ##      ####     ###    ##   ######   ######    **
 **    ##  ###   ##   ##  ##  ##      ## ##      ##   ##   ##       ##        **
 **     #######   #####   ##   #####  ##  ##  ####    ##    #####   ##        **
 **           ##                                                    ##        **
 **                                                                           **
 **                                                ... make the atoms dance   **
 **                                                                           **
 **            Copyright (C) by CP2K developers group (2000-2022)             **
 **                      J. Chem. Phys. 152, 194103 (2020)                    **
 **                                                                           **
 *******************************************************************************

 DFT| Spin restricted Kohn-Sham (RKS) calculation                            RKS
 DFT| Multiplicity                                                             2
 DFT| Number of spin states                                                    1
 DFT| Charge                                                                   0
 DFT| Self-interaction correction (SIC)                                       NO
 DFT| Cutoffs: density                                              1.000000E-10
 DFT|          gradient                                             1.000000E-10
 DFT|          tau                                                  1.000000E-10
 DFT|          cutoff_smoothing_range                               0.000000E+00
 DFT| XC density smoothing                                                  NONE
 DFT| XC derivatives                                                          PW

 FUNCTIONAL| PBE:
 FUNCTIONAL| J.P.Perdew, K.Burke, M.Ernzerhof, Phys. Rev. Letter, vol. 77, n 18,
 FUNCTIONAL|  pp. 3865-3868, (1996){spin unpolarized}                           


 QS| Method:                                                                 GPW
 QS| Density plane wave grid type                        NON-SPHERICAL FULLSPACE
 QS| Number of grid levels:                                                    4
 QS| Density cutoff [a.u.]:                                                300.0
 QS| Multi grid cutoff [a.u.]: 1) grid level                               300.0
 QS|                           2) grid level                               100.0
 QS|                           3) grid level                                33.3
 QS|                           4) grid level                                11.1
 QS| Grid level progression factor:                                          3.0
 QS| Relative density cutoff [a.u.]:                                        30.0
 QS| Interaction thresholds: eps_pgf_orb:                                1.0E-05
 QS|                         eps_filter_matrix:                          0.0E+00
 QS|                         eps_core_charge:                            1.0E-12
 QS|                         eps_rho_gspace:                             1.0E-10
 QS|                         eps_rho_rspace:                             1.0E-10
 QS|                         eps_gvg_rspace:                             1.0E-05
 QS|                         eps_ppl:                                    1.0E-02
 QS|                         eps_ppnl:                                   1.0E-07


 ATOMIC KIND INFORMATION

  1. Atomic kind: Au                                    Number of atoms:     111

     Orbital Basis Set                                         SZV-MOLOPT-SR-GTH

       Number of orbital shell sets:                                           1
       Number of orbital shells:                                               3
       Number of primitive Cartesian functions:                                5
       Number of Cartesian basis functions:                                   10
       Number of spherical basis functions:                                    9
       Norm type:                                                              2

       Normalised Cartesian orbitals:

                        Set   Shell   Orbital            Exponent    Coefficient

                          1       1    2s                2.950008       0.074626
                                                         1.563057      -0.007898
                                                         0.666664      -0.297688
                                                         0.251083       0.136809
                                                         0.081714       0.088198

                          1       2    3px               2.950008       0.148824
                                                         1.563057       0.025430
                                                         0.666664      -0.123003
                                                         0.251083       0.033648
                                                         0.081714       0.059008
                          1       2    3py               2.950008       0.148824
                                                         1.563057       0.025430
                                                         0.666664      -0.123003
                                                         0.251083       0.033648
                                                         0.081714       0.059008
                          1       2    3pz               2.950008       0.148824
                                                         1.563057       0.025430
                                                         0.666664      -0.123003
                                                         0.251083       0.033648
                                                         0.081714       0.059008

                          1       3    4dx2              2.950008      -0.139595
                                                         1.563057       1.319655
                                                         0.666664       0.377081
                                                         0.251083       0.046872
                                                         0.081714       0.001393
                          1       3    4dxy              2.950008      -0.241786
                                                         1.563057       2.285709
                                                         0.666664       0.653124
                                                         0.251083       0.081185
                                                         0.081714       0.002412
                          1       3    4dxz              2.950008      -0.241786
                                                         1.563057       2.285709
                                                         0.666664       0.653124
                                                         0.251083       0.081185
                                                         0.081714       0.002412
                          1       3    4dy2              2.950008      -0.139595
                                                         1.563057       1.319655
                                                         0.666664       0.377081
                                                         0.251083       0.046872
                                                         0.081714       0.001393
                          1       3    4dyz              2.950008      -0.241786
                                                         1.563057       2.285709
                                                         0.666664       0.653124
                                                         0.251083       0.081185
                                                         0.081714       0.002412
                          1       3    4dz2              2.950008      -0.139595
                                                         1.563057       1.319655
                                                         0.666664       0.377081
                                                         0.251083       0.046872
                                                         0.081714       0.001393

       Atomic covalent radius [Angstrom]:                                  1.340

       Atomic van der Waals radius [Angstrom]:                             1.660

     GTH Potential information for                                   GTH-PBE-q11

       Description:                       Goedecker-Teter-Hutter pseudopotential
                                           Goedecker et al., PRB 54, 1703 (1996)
                                          Hartwigsen et al., PRB 58, 3641 (1998)
                                                      Krack, TCA 114, 145 (2005)

       Gaussian exponent of the core charge distribution:               1.436369
       Electronic configuration (s p d ...):                           1   0  10

       Parameters of the local part of the GTH pseudopotential:

                          rloc        C1          C2          C3          C4
                        0.590000   10.517179

       Parameters of the non-local part of the GTH pseudopotential:

                   l      r(l)      h(i,j,l)

                   0    0.543847    5.786811   -2.250680
                                   -2.250680    2.905615
                   1    0.609173    4.284049   -4.071285
                                   -4.071285    4.817210
                   2    0.437309   -7.403281    3.010193
                                    3.010193   -3.413238

  2. Atomic kind: H                                     Number of atoms:       2

     Orbital Basis Set                                        DZVP-MOLOPT-SR-GTH

       Number of orbital shell sets:                                           1
       Number of orbital shells:                                               3
       Number of primitive Cartesian functions:                                5
       Number of Cartesian basis functions:                                    5
       Number of spherical basis functions:                                    5
       Norm type:                                                              2

       Normalised Cartesian orbitals:

                        Set   Shell   Orbital            Exponent    Coefficient

                          1       1    2s               10.068468      -0.133023
                                                         2.680223      -0.177618
                                                         0.791502      -0.258419
                                                         0.239116      -0.107525
                                                         0.082193      -0.014019

                          1       2    3s               10.068468       0.344673
                                                         2.680223       1.819821
                                                         0.791502      -0.999069
                                                         0.239116       0.017430
                                                         0.082193       0.082660

                          1       3    3px              10.068468       0.155326
                                                         2.680223       0.367157
                                                         0.791502       0.311480
                                                         0.239116       0.080105
                                                         0.082193       0.033440
                          1       3    3py              10.068468       0.155326
                                                         2.680223       0.367157
                                                         0.791502       0.311480
                                                         0.239116       0.080105
                                                         0.082193       0.033440
                          1       3    3pz              10.068468       0.155326
                                                         2.680223       0.367157
                                                         0.791502       0.311480
                                                         0.239116       0.080105
                                                         0.082193       0.033440

       Atomic covalent radius [Angstrom]:                                  0.320

       Atomic van der Waals radius [Angstrom]:                             1.090

     GTH Potential information for                                    GTH-PBE-q1

       Description:                       Goedecker-Teter-Hutter pseudopotential
                                           Goedecker et al., PRB 54, 1703 (1996)
                                          Hartwigsen et al., PRB 58, 3641 (1998)
                                                      Krack, TCA 114, 145 (2005)

       Gaussian exponent of the core charge distribution:              12.500000
       Electronic configuration (s p d ...):                                   1

       Parameters of the local part of the GTH pseudopotential:

                          rloc        C1          C2          C3          C4
                        0.200000   -4.178900    0.724463


 MOLECULE KIND INFORMATION


 All atoms are their own molecule, skipping detailed information


 TOTAL NUMBERS AND MAXIMUM NUMBERS

  Total number of            - Atomic kinds:                                   2
                             - Atoms:                                        113
                             - Shell sets:                                   113
                             - Shells:                                       339
                             - Primitive Cartesian functions:                565
                             - Cartesian basis functions:                   1120
                             - Spherical basis functions:                   1009

  Maximum angular momentum of- Orbital basis functions:                        2
                             - Local part of the GTH pseudopotential:          2
                             - Non-local part of the GTH pseudopotential:      4


 MODULE QUICKSTEP: ATOMIC COORDINATES IN ANGSTROM

   Atom Kind Element         X             Y             Z       Z(eff)     Mass
      1    1 Au   79      1.787000      1.281000      0.000000  11.0000 196.9666
      2    1 Au   79      0.309000      2.759000      2.090000  11.0000 196.9666
      3    1 Au   79      1.787000      1.281000      4.180000  11.0000 196.9666
      4    1 Au   79      0.309000      2.759000      6.270000  11.0000 196.9666
      5    1 Au   79      4.743000      1.281000      0.000000  11.0000 196.9666
      6    1 Au   79      3.265000      2.759000      2.090000  11.0000 196.9666
      7    1 Au   79      4.743000      1.281000      4.180000  11.0000 196.9666
      8    1 Au   79      3.265000      2.759000      6.270000  11.0000 196.9666
      9    1 Au   79      7.699000      1.281000      0.000000  11.0000 196.9666
     10    1 Au   79      6.221000      2.759000      2.090000  11.0000 196.9666
     11    1 Au   79      7.699000      1.281000      4.180000  11.0000 196.9666
     12    1 Au   79      6.221000      2.759000      6.270000  11.0000 196.9666
     13    1 Au   79      1.787000      4.236000      0.000000  11.0000 196.9666
     14    1 Au   79      0.309000      5.714000      2.090000  11.0000 196.9666
     15    1 Au   79      1.787000      4.236000      4.180000  11.0000 196.9666
     16    1 Au   79      0.309000      5.714000      6.270000  11.0000 196.9666
     17    1 Au   79      4.743000      4.236000      0.000000  11.0000 196.9666
     18    1 Au   79      3.265000      5.714000      2.090000  11.0000 196.9666
     19    1 Au   79      4.743000      4.236000      4.180000  11.0000 196.9666
     20    1 Au   79      3.265000      5.714000      6.270000  11.0000 196.9666
     21    1 Au   79      7.699000      4.236000      0.000000  11.0000 196.9666
     22    1 Au   79      6.221000      5.714000      2.090000  11.0000 196.9666
     23    1 Au   79      7.699000      4.236000      4.180000  11.0000 196.9666
     24    1 Au   79      6.221000      5.714000      6.270000  11.0000 196.9666
     25    1 Au   79      1.787000      7.192000      0.000000  11.0000 196.9666
     26    1 Au   79      0.309000      8.670000      2.090000  11.0000 196.9666
     27    1 Au   79      1.787000      7.192000      4.180000  11.0000 196.9666
     28    1 Au   79      0.309000      8.670000      6.270000  11.0000 196.9666
     29    1 Au   79      4.743000      7.192000      0.000000  11.0000 196.9666
     30    1 Au   79      3.265000      8.670000      2.090000  11.0000 196.9666
     31    1 Au   79      4.743000      7.192000      4.180000  11.0000 196.9666
     32    1 Au   79      3.265000      8.670000      6.270000  11.0000 196.9666
     33    1 Au   79      7.699000      7.192000      0.000000  11.0000 196.9666
     34    1 Au   79      6.221000      8.670000      2.090000  11.0000 196.9666
     35    1 Au   79      7.699000      7.192000      4.180000  11.0000 196.9666
     36    1 Au   79      6.221000      8.670000      6.270000  11.0000 196.9666
     37    1 Au   79      1.787000      1.281000      8.360000  11.0000 196.9666
     38    1 Au   79      1.787000      4.236000      8.360000  11.0000 196.9666
     39    1 Au   79      1.787000      7.192000      8.360000  11.0000 196.9666
     40    1 Au   79      4.743000      1.281000      8.360000  11.0000 196.9666
     41    1 Au   79      4.743000      4.236000      8.360000  11.0000 196.9666
     42    1 Au   79      4.743000      7.192000      8.360000  11.0000 196.9666
     43    1 Au   79      7.699000      1.281000      8.360000  11.0000 196.9666
     44    1 Au   79      7.699000      4.236000      8.360000  11.0000 196.9666
     45    1 Au   79      7.699000      7.192000      8.360000  11.0000 196.9666
     46    1 Au   79      0.309000      2.759000     10.450000  11.0000 196.9666
     47    1 Au   79      0.309000      5.714000     10.450000  11.0000 196.9666
     48    1 Au   79      0.309000      8.670000     10.450000  11.0000 196.9666
     49    1 Au   79      3.265000      2.759000     10.450000  11.0000 196.9666
     50    1 Au   79      3.265000      5.714000     10.450000  11.0000 196.9666
     51    1 Au   79      3.265000      8.670000     10.450000  11.0000 196.9666
     52    1 Au   79      6.221000      2.759000     10.450000  11.0000 196.9666
     53    1 Au   79      6.221000      5.714000     10.450000  11.0000 196.9666
     54    1 Au   79      6.221000      8.670000     10.450000  11.0000 196.9666
     55    1 Au   79      1.767000      4.215000     12.446000  11.0000 196.9666
     56    1 Au   79      1.766000      7.214000     12.446000  11.0000 196.9666
     57    1 Au   79      4.765000      4.213000     12.446000  11.0000 196.9666
     58    1 Au   79      4.767000      7.214000     12.445000  11.0000 196.9666
     59    1 Au   79      3.270932      5.718890     14.451439  11.0000 196.9666
     60    1 Au   79      3.492865      5.932516     17.135471  11.0000 196.9666
     61    2 H     1      3.209250      5.659807     18.925096   1.0000   1.0079
     62    2 H     1      3.325638      5.772092     19.795115   1.0000   1.0079
     63    1 Au   79      3.042494      5.498844     21.584734  11.0000 196.9666
     64    1 Au   79      3.261206      5.710306     24.269238  11.0000 196.9666
     65    1 Au   79      1.765000      4.213000     26.275000  11.0000 196.9666
     66    1 Au   79      1.765000      7.214000     26.274000  11.0000 196.9666
     67    1 Au   79      4.765000      4.214000     26.274000  11.0000 196.9666
     68    1 Au   79      4.765000      7.214000     26.275000  11.0000 196.9666
     69    1 Au   79      0.309000      2.759000     28.270000  11.0000 196.9666
     70    1 Au   79      0.309000      5.714000     28.270000  11.0000 196.9666
     71    1 Au   79      0.309000      8.670000     28.270000  11.0000 196.9666
     72    1 Au   79      3.265000      2.759000     28.270000  11.0000 196.9666
     73    1 Au   79      3.265000      5.714000     28.270000  11.0000 196.9666
     74    1 Au   79      3.265000      8.670000     28.270000  11.0000 196.9666
     75    1 Au   79      6.221000      2.759000     28.270000  11.0000 196.9666
     76    1 Au   79      6.221000      5.714000     28.270000  11.0000 196.9666
     77    1 Au   79      6.221000      8.670000     28.270000  11.0000 196.9666
     78    1 Au   79      1.787000      1.281000     30.360000  11.0000 196.9666
     79    1 Au   79      0.309000      2.759000     32.450000  11.0000 196.9666
     80    1 Au   79      1.787000      1.281000     34.540000  11.0000 196.9666
     81    1 Au   79      0.309000      2.759000     36.630000  11.0000 196.9666
     82    1 Au   79      4.743000      1.281000     30.360000  11.0000 196.9666
     83    1 Au   79      3.265000      2.759000     32.450000  11.0000 196.9666
     84    1 Au   79      4.743000      1.281000     34.540000  11.0000 196.9666
     85    1 Au   79      3.265000      2.759000     36.630000  11.0000 196.9666
     86    1 Au   79      7.699000      1.281000     30.360000  11.0000 196.9666
     87    1 Au   79      6.221000      2.759000     32.450000  11.0000 196.9666
     88    1 Au   79      7.699000      1.281000     34.540000  11.0000 196.9666
     89    1 Au   79      6.221000      2.759000     36.630000  11.0000 196.9666
     90    1 Au   79      1.787000      4.236000     30.360000  11.0000 196.9666
     91    1 Au   79      0.309000      5.714000     32.450000  11.0000 196.9666
     92    1 Au   79      1.787000      4.236000     34.540000  11.0000 196.9666
     93    1 Au   79      0.309000      5.714000     36.630000  11.0000 196.9666
     94    1 Au   79      4.743000      4.236000     30.360000  11.0000 196.9666
     95    1 Au   79      3.265000      5.714000     32.450000  11.0000 196.9666
     96    1 Au   79      4.743000      4.236000     34.540000  11.0000 196.9666
     97    1 Au   79      3.265000      5.714000     36.630000  11.0000 196.9666
     98    1 Au   79      7.699000      4.236000     30.360000  11.0000 196.9666
     99    1 Au   79      6.221000      5.714000     32.450000  11.0000 196.9666
    100    1 Au   79      7.699000      4.236000     34.540000  11.0000 196.9666
    101    1 Au   79      6.221000      5.714000     36.630000  11.0000 196.9666
    102    1 Au   79      1.787000      7.192000     30.360000  11.0000 196.9666
    103    1 Au   79      0.309000      8.670000     32.450000  11.0000 196.9666
    104    1 Au   79      1.787000      7.192000     34.540000  11.0000 196.9666
    105    1 Au   79      0.309000      8.670000     36.630000  11.0000 196.9666
    106    1 Au   79      4.743000      7.192000     30.360000  11.0000 196.9666
    107    1 Au   79      3.265000      8.670000     32.450000  11.0000 196.9666
    108    1 Au   79      4.743000      7.192000     34.540000  11.0000 196.9666
    109    1 Au   79      3.265000      8.670000     36.630000  11.0000 196.9666
    110    1 Au   79      7.699000      7.192000     30.360000  11.0000 196.9666
    111    1 Au   79      6.221000      8.670000     32.450000  11.0000 196.9666
    112    1 Au   79      7.699000      7.192000     34.540000  11.0000 196.9666
    113    1 Au   79      6.221000      8.670000     36.630000  11.0000 196.9666



 SCF PARAMETERS         Density guess:                                   RESTART
                        --------------------------------------------------------
                        max_scf:                                             500
                        max_scf_history:                                       0
                        max_diis:                                              4
                        --------------------------------------------------------
                        eps_scf:                                        1.00E-08
                        eps_scf_history:                                0.00E+00
                        eps_diis:                                       1.00E-01
                        eps_eigval:                                     1.00E-05
                        --------------------------------------------------------
                        level_shift [a.u.]:                             0.000000
                        added MOs                                       100    0
                        --------------------------------------------------------
                        Mixing method:                            BROYDEN_MIXING
                                                charge density mixing in g-space
                        --------------------------------------------------------
                        Smear method:                                FERMI_DIRAC
                        Electronic temperature [K]:                        300.0
                        Electronic temperature [a.u.]:                  9.50E-04
                        Accuracy threshold:                             1.00E-10
                        --------------------------------------------------------
                        No outer SCF

 PW_GRID| Information for grid number                                          1
 PW_GRID| Grid distributed over                                    64 processors
 PW_GRID| Real space group dimensions                                    64    1
 PW_GRID| the grid is blocked:                                                NO
 PW_GRID| Cutoff [a.u.]                                                    300.0
 PW_GRID| spherical cutoff:                                                   NO
 PW_GRID|   Bounds   1            -66      65                Points:         132
 PW_GRID|   Bounds   2            -66      65                Points:         132
 PW_GRID|   Bounds   3           -288     287                Points:         576
 PW_GRID| Volume element (a.u.^3)  0.2047E-02     Volume (a.u.^3)     20544.5734
 PW_GRID| Grid span                                                    FULLSPACE
 PW_GRID|   Distribution                         Average         Max         Min
 PW_GRID|   G-Vectors                           156816.0      156816      156816
 PW_GRID|   G-Rays                                1188.0        1188        1188
 PW_GRID|   Real Space Points                   156816.0      228096      152064

 PW_GRID| Information for grid number                                          2
 PW_GRID| Number of the reference grid                                         1
 PW_GRID| Grid distributed over                                    64 processors
 PW_GRID| Real space group dimensions                                    64    1
 PW_GRID| the grid is blocked:                                                NO
 PW_GRID| Cutoff [a.u.]                                                    100.0
 PW_GRID| spherical cutoff:                                                   NO
 PW_GRID|   Bounds   1            -37      37                Points:          75
 PW_GRID|   Bounds   2            -37      37                Points:          75
 PW_GRID|   Bounds   3           -165     164                Points:         330
 PW_GRID| Volume element (a.u.^3)  0.1107E-01     Volume (a.u.^3)     20544.5734
 PW_GRID| Grid span                                                    FULLSPACE
 PW_GRID|   Distribution                         Average         Max         Min
 PW_GRID|   G-Vectors                            29003.9       30300       27525
 PW_GRID|   G-Rays                                 386.7         404         367
 PW_GRID|   Real Space Points                    29003.9       49500       24750

 PW_GRID| Information for grid number                                          3
 PW_GRID| Number of the reference grid                                         1
 PW_GRID| Grid distributed over                                    64 processors
 PW_GRID| Real space group dimensions                                     8    8
 PW_GRID| the grid is blocked:                                                NO
 PW_GRID| Cutoff [a.u.]                                                     33.3
 PW_GRID| spherical cutoff:                                                   NO
 PW_GRID|   Bounds   1            -22      21                Points:          44
 PW_GRID|   Bounds   2            -22      21                Points:          44
 PW_GRID|   Bounds   3            -96      95                Points:         192
 PW_GRID| Volume element (a.u.^3)  0.5527E-01     Volume (a.u.^3)     20544.5734
 PW_GRID| Grid span                                                    FULLSPACE
 PW_GRID|   Distribution                         Average         Max         Min
 PW_GRID|   G-Vectors                             5808.0        6292        5456
 PW_GRID|   G-Rays                                 132.0         143         124
 PW_GRID|   Real Space Points                     5808.0        6912        4800

 PW_GRID| Information for grid number                                          4
 PW_GRID| Number of the reference grid                                         1
 PW_GRID| Grid distributed over                                    64 processors
 PW_GRID| Real space group dimensions                                     8    8
 PW_GRID| the grid is blocked:                                                NO
 PW_GRID| Cutoff [a.u.]                                                     11.1
 PW_GRID| spherical cutoff:                                                   NO
 PW_GRID|   Bounds   1            -12      12                Points:          25
 PW_GRID|   Bounds   2            -12      12                Points:          25
 PW_GRID|   Bounds   3            -55      54                Points:         110
 PW_GRID| Volume element (a.u.^3)  0.2988         Volume (a.u.^3)     20544.5734
 PW_GRID| Grid span                                                    FULLSPACE
 PW_GRID|   Distribution                         Average         Max         Min
 PW_GRID|   G-Vectors                             1074.2        1400         725
 PW_GRID|   G-Rays                                  43.0          56          29
 PW_GRID|   Real Space Points                     1074.2        1760         990

 POISSON| Solver                                                        PERIODIC
 POISSON| Periodicity                                                        XYZ

 RS_GRID| Information for grid number                                          1
 RS_GRID|   Bounds   1            -66      65                Points:         132
 RS_GRID|   Bounds   2            -66      65                Points:         132
 RS_GRID|   Bounds   3           -288     287                Points:         576
 RS_GRID| Real space distribution over                                 64 groups
 RS_GRID| Real space distribution along direction                              3
 RS_GRID| Border size                                                         35
 RS_GRID|   Distribution                         Average         Max         Min
 RS_GRID|   Planes                                  79.0          79          79

 RS_GRID| Information for grid number                                          2
 RS_GRID|   Bounds   1            -37      37                Points:          75
 RS_GRID|   Bounds   2            -37      37                Points:          75
 RS_GRID|   Bounds   3           -165     164                Points:         330
 RS_GRID| Real space distribution over                                 64 groups
 RS_GRID| Real space distribution along direction                              3
 RS_GRID| Border size                                                         24
 RS_GRID|   Distribution                         Average         Max         Min
 RS_GRID|   Planes                                  53.2          54          53

 RS_GRID| Information for grid number                                          3
 RS_GRID|   Bounds   1            -22      21                Points:          44
 RS_GRID|   Bounds   2            -22      21                Points:          44
 RS_GRID|   Bounds   3            -96      95                Points:         192
 RS_GRID| Real space fully replicated
 RS_GRID| Group size                                                           1

 RS_GRID| Information for grid number                                          4
 RS_GRID|   Bounds   1            -12      12                Points:          25
 RS_GRID|   Bounds   2            -12      12                Points:          25
 RS_GRID|   Bounds   3            -55      54                Points:         110
 RS_GRID| Real space fully replicated
 RS_GRID| Group size                                                           1

 KPOINTS| Number of kpoint groups                                              1
 KPOINTS| Size of each kpoint group                                           64
 KPOINTS| Number of kpoints per group                                          9

 BFGS| Use rational function optimization for step estimation:                NO
 BFGS| Use model Hessian for initial guess:                                  YES
 BFGS| Restart Hessian:                                                       NO
 BFGS| Trust radius:                                                       0.472

 *******************************************************************************
 ***                     STARTING GEOMETRY OPTIMIZATION                      ***
 ***                                   BFGS                                  ***
 *******************************************************************************

 Number of electrons:                                                       1223
 Number of occupied orbitals:                                                612
 Number of molecular orbitals:                                               712

 Number of orbital functions:                                               1009
 Number of independent orbital functions:                                   1009

 Extrapolation method: initial_guess


 SCF WAVEFUNCTION OPTIMIZATION

  Step     Update method      Time    Convergence         Total energy    Change
  ------------------------------------------------------------------------------
 SMEAGOL DEBUG| Number of electrons in the unit cell =      1222.9673689821
     1 NoMix/SMGL  0.30E+00  130.7     1.68655714     -3690.6560969546 -3.69E+03
 SMEAGOL DEBUG| Number of electrons in the unit cell =      1223.6320748574
     2 Broy./SMGL  0.30E+00   32.5     8.23029304     -3687.3645302841  3.29E+00
 SMEAGOL DEBUG| Number of electrons in the unit cell =      1221.8892932730
     3 Broy./SMGL  0.30E+00   32.3     8.22474816     -3794.0877724082 -1.07E+02
 SMEAGOL DEBUG| Number of electrons in the unit cell =      1222.5139005412
     4 Broy./SMGL  0.30E+00   32.3     0.42000412     -3698.3886171737  9.57E+01
 SMEAGOL DEBUG| Number of electrons in the unit cell =      1223.1675081013
     5 Broy./SMGL  0.30E+00   32.3     0.10976737     -3682.8812266379  1.55E+01
 SMEAGOL DEBUG| Number of electrons in the unit cell =      1222.8152570054
     6 Broy./SMGL  0.30E+00   32.4     0.03870773     -3687.0816729329 -4.20E+00
 SMEAGOL DEBUG| Number of electrons in the unit cell =      1222.9092593469
     7 Broy./SMGL  0.30E+00   32.4     0.01800636     -3686.2201241014  8.62E-01
 SMEAGOL DEBUG| Number of electrons in the unit cell =      1223.0948567520
     8 Broy./SMGL  0.30E+00   32.4     0.02235934     -3687.1811519524 -9.61E-01
 SMEAGOL DEBUG| Number of electrons in the unit cell =      1223.1143697969
     9 Broy./SMGL  0.30E+00   32.5     0.04867438     -3688.2146479662 -1.03E+00
 SMEAGOL DEBUG| Number of electrons in the unit cell =      1223.1473786907
    10 Broy./SMGL  0.30E+00   32.4     0.01396375     -3689.5738982642 -1.36E+00
 SMEAGOL DEBUG| Number of electrons in the unit cell =      1223.1499680859
    11 Broy./SMGL  0.30E+00   32.4     0.01852326     -3690.4798307613 -9.06E-01
 SMEAGOL DEBUG| Number of electrons in the unit cell =      1223.3491610766
    12 Broy./SMGL  0.30E+00   32.4     0.07407909     -3689.6411472730  8.39E-01
 SMEAGOL DEBUG| Number of electrons in the unit cell =      1223.1801288365
    13 Broy./SMGL  0.30E+00   32.4     0.08146097     -3694.8370016609 -5.20E+00
 SMEAGOL DEBUG| Number of electrons in the unit cell =      1223.1976598640
    14 Broy./SMGL  0.30E+00   32.4     0.02251478     -3689.8293375404  5.01E+00
 SMEAGOL DEBUG| Number of electrons in the unit cell =      1223.1342211115
    15 Broy./SMGL  0.30E+00   32.4     0.03645127     -3691.4022837654 -1.57E+00
 SMEAGOL DEBUG| Number of electrons in the unit cell =      1223.0997234519
    16 Broy./SMGL  0.30E+00   32.5     0.01590819     -3689.5610745445  1.84E+00
 SMEAGOL DEBUG| Number of electrons in the unit cell =      1223.0806144374
    17 Broy./SMGL  0.30E+00   32.4     0.03058974     -3690.6264025680 -1.07E+00
 SMEAGOL DEBUG| Number of electrons in the unit cell =      1223.0554566763
    18 Broy./SMGL  0.30E+00   32.4     0.01669789     -3691.5482119922 -9.22E-01
 SMEAGOL DEBUG| Number of electrons in the unit cell =      1223.0483391972
    19 Broy./SMGL  0.30E+00   32.4     0.00964993     -3690.7047341408  8.43E-01
 SMEAGOL DEBUG| Number of electrons in the unit cell =      1223.0500843837
    20 Broy./SMGL  0.30E+00   32.4     0.00369886     -3690.8890376584 -1.84E-01
 SMEAGOL DEBUG| Number of electrons in the unit cell =      1223.0284637999
    21 Broy./SMGL  0.30E+00   32.3     0.03777925     -3690.9518154406 -6.28E-02
 SMEAGOL DEBUG| Number of electrons in the unit cell =      1223.0173163269
    22 Broy./SMGL  0.30E+00   32.4     0.03467428     -3690.0758887182  8.76E-01
 SMEAGOL DEBUG| Number of electrons in the unit cell =      1223.0128198603
    23 Broy./SMGL  0.30E+00   32.4     0.00549547     -3690.7686070799 -6.93E-01
 SMEAGOL DEBUG| Number of electrons in the unit cell =      1223.0083103889
    24 Broy./SMGL  0.30E+00   32.4     0.00700364     -3690.7356186257  3.30E-02
 SMEAGOL DEBUG| Number of electrons in the unit cell =      1223.0070047495
    25 Broy./SMGL  0.30E+00   32.4     0.00602205     -3690.5560283919  1.80E-01
 SMEAGOL DEBUG| Number of electrons in the unit cell =      1222.9884777050
    26 Broy./SMGL  0.30E+00   32.4     0.02868706     -3690.6826344212 -1.27E-01
 SMEAGOL DEBUG| Number of electrons in the unit cell =      1222.9891644389
    27 Broy./SMGL  0.30E+00   32.4     0.00392275     -3690.0991597278  5.83E-01
 SMEAGOL DEBUG| Number of electrons in the unit cell =      1222.9781614700
    28 Broy./SMGL  0.30E+00   32.4     0.00458730     -3690.1086590378 -9.50E-03
 SMEAGOL DEBUG| Number of electrons in the unit cell =      1222.9689094372
    29 Broy./SMGL  0.30E+00   32.5     0.00523414     -3690.1842222414 -7.56E-02
 SMEAGOL DEBUG| Number of electrons in the unit cell =      1222.9656829881
    30 Broy./SMGL  0.30E+00   32.4     0.00934682     -3690.0679125539  1.16E-01
 SMEAGOL DEBUG| Number of electrons in the unit cell =      1222.9672388451
    31 Broy./SMGL  0.30E+00   32.4     0.00616280     -3690.3634515227 -2.96E-01
 SMEAGOL DEBUG| Number of electrons in the unit cell =      1222.9667411501
    32 Broy./SMGL  0.30E+00   32.4     0.00566857     -3690.2332169764  1.30E-01
 SMEAGOL DEBUG| Number of electrons in the unit cell =      1222.9683124690
    33 Broy./SMGL  0.30E+00   32.4     0.00156032     -3690.3901345182 -1.57E-01
 SMEAGOL DEBUG| Number of electrons in the unit cell =      1222.9677618435
    34 Broy./SMGL  0.30E+00   32.4     0.00178593     -3690.3455099298  4.46E-02
 SMEAGOL DEBUG| Number of electrons in the unit cell =      1222.9696454234
    35 Broy./SMGL  0.30E+00   32.4     0.01157669     -3690.2671168200  7.84E-02
 SMEAGOL DEBUG| Number of electrons in the unit cell =      1222.9759103731
    36 Broy./SMGL  0.30E+00   32.4     0.01788497     -3689.8732365060  3.94E-01
 SMEAGOL DEBUG| Number of electrons in the unit cell =      1222.9673467316
    37 Broy./SMGL  0.30E+00   32.4     0.00442551     -3690.3943850809 -5.21E-01
 SMEAGOL DEBUG| Number of electrons in the unit cell =      1222.9660469755
    38 Broy./SMGL  0.30E+00   32.4     0.01315434     -3690.3957262092 -1.34E-03
 SMEAGOL DEBUG| Number of electrons in the unit cell =      1222.9641355233
    39 Broy./SMGL  0.30E+00   32.4     0.00131638     -3690.7485337606 -3.53E-01
 SMEAGOL DEBUG| Number of electrons in the unit cell =      1222.9641132920
    40 Broy./SMGL  0.30E+00   32.4     0.00601337     -3690.7311340428  1.74E-02
 SMEAGOL DEBUG| Number of electrons in the unit cell =      1222.9634042145
    41 Broy./SMGL  0.30E+00   32.4     0.01009157     -3690.5959584931  1.35E-01
 SMEAGOL DEBUG| Number of electrons in the unit cell =      1222.9654598203
    42 Broy./SMGL  0.30E+00   32.4     0.01933870     -3690.3984818039  1.97E-01
 SMEAGOL DEBUG| Number of electrons in the unit cell =      1222.9700832803
    43 Broy./SMGL  0.30E+00   32.4     0.00732918     -3690.6216296696 -2.23E-01
 SMEAGOL DEBUG| Number of electrons in the unit cell =      1222.9706705738
    44 Broy./SMGL  0.30E+00   32.4     0.00424291     -3690.4298832443  1.92E-01
 SMEAGOL DEBUG| Number of electrons in the unit cell =      1222.9651768826
    45 Broy./SMGL  0.30E+00   32.4     0.02311693     -3690.3239420198  1.06E-01
 SMEAGOL DEBUG| Number of electrons in the unit cell =      1222.9612021330
    46 Broy./SMGL  0.30E+00   32.4     0.01919838     -3690.1252227959  1.99E-01
 SMEAGOL DEBUG| Number of electrons in the unit cell =      1222.9652502100
    47 Broy./SMGL  0.30E+00   32.4     0.01388301     -3690.6165548172 -4.91E-01
 SMEAGOL DEBUG| Number of electrons in the unit cell =      1222.9628053491
    48 Broy./SMGL  0.30E+00   32.4     0.01432311     -3690.2617721180  3.55E-01
 SMEAGOL DEBUG| Number of electrons in the unit cell =      1222.9618377771
    49 Broy./SMGL  0.30E+00   32.4     0.00813720     -3690.5205291743 -2.59E-01
 SMEAGOL DEBUG| Number of electrons in the unit cell =      1222.9615231163
    50 Broy./SMGL  0.30E+00   32.4     0.00152575     -3690.4069630283  1.14E-01
 SMEAGOL DEBUG| Number of electrons in the unit cell =      1222.9613357932
    51 Broy./SMGL  0.30E+00   32.4     0.00178892     -3690.3773986065  2.96E-02
 SMEAGOL DEBUG| Number of electrons in the unit cell =      1222.9620043018
    52 Broy./SMGL  0.30E+00   32.4     0.00520860     -3690.3497525562  2.76E-02
 SMEAGOL DEBUG| Number of electrons in the unit cell =      1222.9609956001
    53 Broy./SMGL  0.30E+00   32.4     0.00405267     -3690.4505650567 -1.01E-01
 SMEAGOL DEBUG| Number of electrons in the unit cell =      1222.9599780976
    54 Broy./SMGL  0.30E+00   32.4     0.00596753     -3690.5335262584 -8.30E-02
 SMEAGOL DEBUG| Number of electrons in the unit cell =      1222.9611423196
    55 Broy./SMGL  0.30E+00   32.4     0.00708377     -3690.6274956449 -9.40E-02
 SMEAGOL DEBUG| Number of electrons in the unit cell =      1222.9603580176
    56 Broy./SMGL  0.30E+00   32.4     0.00257744     -3690.7548228698 -1.27E-01
 SMEAGOL DEBUG| Number of electrons in the unit cell =      1222.9596989212
    57 Broy./SMGL  0.30E+00   32.4     0.00214259     -3690.7383807693  1.64E-02
 SMEAGOL DEBUG| Number of electrons in the unit cell =      1222.9623378801
    58 Broy./SMGL  0.30E+00   32.4     0.00246949     -3690.7992685229 -6.09E-02
 SMEAGOL DEBUG| Number of electrons in the unit cell =      1222.9622977642
    59 Broy./SMGL  0.30E+00   32.4     0.00371617     -3690.8585123009 -5.92E-02
 SMEAGOL DEBUG| Number of electrons in the unit cell =      1222.9631653804
    60 Broy./SMGL  0.30E+00   32.5     0.00263861     -3690.7541935460  1.04E-01
 SMEAGOL DEBUG| Number of electrons in the unit cell =      1222.9604851181
    61 Broy./SMGL  0.30E+00   32.4     0.00391218     -3690.7187171742  3.55E-02
 SMEAGOL DEBUG| Number of electrons in the unit cell =      1222.9604207394
    62 Broy./SMGL  0.30E+00   32.4     0.00935832     -3690.6876022507  3.11E-02
 SMEAGOL DEBUG| Number of electrons in the unit cell =      1222.9600545373
    63 Broy./SMGL  0.30E+00   32.4     0.00391935     -3690.4821260825  2.05E-01
 SMEAGOL DEBUG| Number of electrons in the unit cell =      1222.9605979582
    64 Broy./SMGL  0.30E+00   32.4     0.00334190     -3690.5816579271 -9.95E-02
 SMEAGOL DEBUG| Number of electrons in the unit cell =      1222.9599742457
    65 Broy./SMGL  0.30E+00   32.4     0.00082028     -3690.5159522006  6.57E-02
 SMEAGOL DEBUG| Number of electrons in the unit cell =      1222.9600758889
    66 Broy./SMGL  0.30E+00   32.5     0.00206649     -3690.5377251418 -2.18E-02
 SMEAGOL DEBUG| Number of electrons in the unit cell =      1222.9599326700
    67 Broy./SMGL  0.30E+00   32.4     0.00080774     -3690.5027110811  3.50E-02
 SMEAGOL DEBUG| Number of electrons in the unit cell =      1222.9599481981
    68 Broy./SMGL  0.30E+00   32.4     0.00062171     -3690.5124311657 -9.72E-03
 SMEAGOL DEBUG| Number of electrons in the unit cell =      1222.9603121305
    69 Broy./SMGL  0.30E+00   32.4     0.00154841     -3690.5234918110 -1.11E-02
 SMEAGOL DEBUG| Number of electrons in the unit cell =      1222.9603572449
    70 Broy./SMGL  0.30E+00   32.4     0.00294557     -3690.5633750885 -3.99E-02
 SMEAGOL DEBUG| Number of electrons in the unit cell =      1222.9602021662
    71 Broy./SMGL  0.30E+00   32.4     0.00202546     -3690.6392299616 -7.59E-02
 SMEAGOL DEBUG| Number of electrons in the unit cell =      1222.9602673352
    72 Broy./SMGL  0.30E+00   32.4     0.00088527     -3690.5978487453  4.14E-02
 SMEAGOL DEBUG| Number of electrons in the unit cell =      1222.9605155482
    73 Broy./SMGL  0.30E+00   32.4     0.00048142     -3690.5803282452  1.75E-02
 SMEAGOL DEBUG| Number of electrons in the unit cell =      1222.9605556984
    74 Broy./SMGL  0.30E+00   32.5     0.00135670     -3690.5954214624 -1.51E-02
 SMEAGOL DEBUG| Number of electrons in the unit cell =      1222.9608427652
    75 Broy./SMGL  0.30E+00   32.4     0.00021555     -3690.5654334463  3.00E-02
 SMEAGOL DEBUG| Number of electrons in the unit cell =      1222.9607370990
    76 Broy./SMGL  0.30E+00   32.3     0.00039059     -3690.5748129121 -9.38E-03
 SMEAGOL DEBUG| Number of electrons in the unit cell =      1222.9608105193
    77 Broy./SMGL  0.30E+00   32.5     0.00020008     -3690.5827544030 -7.94E-03
 SMEAGOL DEBUG| Number of electrons in the unit cell =      1222.9607986789
    78 Broy./SMGL  0.30E+00   32.4     0.00002669     -3690.5776157080  5.14E-03
 SMEAGOL DEBUG| Number of electrons in the unit cell =      1222.9608182408
    79 Broy./SMGL  0.30E+00   32.4     0.00020942     -3690.5780871631 -4.71E-04
 SMEAGOL DEBUG| Number of electrons in the unit cell =      1222.9608290283
    80 Broy./SMGL  0.30E+00   32.4     0.00007458     -3690.5729399911  5.15E-03
 SMEAGOL DEBUG| Number of electrons in the unit cell =      1222.9608234110
    81 Broy./SMGL  0.30E+00   32.4     0.00005903     -3690.5749893035 -2.05E-03
 SMEAGOL DEBUG| Number of electrons in the unit cell =      1222.9608263725
    82 Broy./SMGL  0.30E+00   32.4     0.00003878     -3690.5736915590  1.30E-03
 SMEAGOL DEBUG| Number of electrons in the unit cell =      1222.9608378141
    83 Broy./SMGL  0.30E+00   32.4     0.00006223     -3690.5745285187 -8.37E-04
 SMEAGOL DEBUG| Number of electrons in the unit cell =      1222.9608543008
    84 Broy./SMGL  0.30E+00   32.5     0.00003238     -3690.5758554819 -1.33E-03
 SMEAGOL DEBUG| Number of electrons in the unit cell =      1222.9608752452
    85 Broy./SMGL  0.30E+00   32.4     0.00007796     -3690.5764806123 -6.25E-04
 SMEAGOL DEBUG| Number of electrons in the unit cell =      1222.9608849147
    86 Broy./SMGL  0.30E+00   32.4     0.00000702     -3690.5782851523 -1.80E-03
 SMEAGOL DEBUG| Number of electrons in the unit cell =      1222.9608702752
    87 Broy./SMGL  0.30E+00   32.4     0.00000945     -3690.5783968488 -1.12E-04
 SMEAGOL DEBUG| Number of electrons in the unit cell =      1222.9608644686
    88 Broy./SMGL  0.30E+00   32.4     0.00004427     -3690.5785329388 -1.36E-04
 SMEAGOL DEBUG| Number of electrons in the unit cell =      1222.9608573204
    89 Broy./SMGL  0.30E+00   32.4     0.00005440     -3690.5776001827  9.33E-04
 SMEAGOL DEBUG| Number of electrons in the unit cell =      1222.9608432921
    90 Broy./SMGL  0.30E+00   32.4     0.00001316     -3690.5788724243 -1.27E-03
 SMEAGOL DEBUG| Number of electrons in the unit cell =      1222.9608290229
    91 Broy./SMGL  0.30E+00   32.4     0.00000373     -3690.5785410750  3.31E-04
 SMEAGOL DEBUG| Number of electrons in the unit cell =      1222.9608098107
    92 Broy./SMGL  0.30E+00   32.4     0.00000633     -3690.5785901192 -4.90E-05
 SMEAGOL DEBUG| Number of electrons in the unit cell =      1222.9608002986
    93 Broy./SMGL  0.30E+00   32.4     0.00000072     -3690.5787033191 -1.13E-04
 SMEAGOL DEBUG| Number of electrons in the unit cell =      1222.9607889736
    94 Broy./SMGL  0.30E+00   32.4     0.00001177     -3690.5786784166  2.49E-05
 SMEAGOL DEBUG| Number of electrons in the unit cell =      1222.9607885067
    95 Broy./SMGL  0.30E+00   32.5     0.00000700     -3690.5784111041  2.67E-04
 SMEAGOL DEBUG| Number of electrons in the unit cell =      1222.9607855559
    96 Broy./SMGL  0.30E+00   32.4     0.00000263     -3690.5785737065 -1.63E-04
 SMEAGOL DEBUG| Number of electrons in the unit cell =      1222.9607836736
    97 Broy./SMGL  0.30E+00   32.4     0.00000047     -3690.5785149910  5.87E-05
 SMEAGOL DEBUG| Number of electrons in the unit cell =      1222.9607833441
    98 Broy./SMGL  0.30E+00   32.5     0.00000090     -3690.5785238493 -8.86E-06
 SMEAGOL DEBUG| Number of electrons in the unit cell =      1222.9607808476
    99 Broy./SMGL  0.30E+00   32.4     0.00000120     -3690.5785487750 -2.49E-05
 SMEAGOL DEBUG| Number of electrons in the unit cell =      1222.9607815563
   100 Broy./SMGL  0.30E+00   32.4     0.00000043     -3690.5785179359  3.08E-05
 SMEAGOL DEBUG| Number of electrons in the unit cell =      1222.9607824044
   101 Broy./SMGL  0.30E+00   32.4     0.00000043     -3690.5785282155 -1.03E-05
 SMEAGOL DEBUG| Number of electrons in the unit cell =      1222.9607828360
   102 Broy./SMGL  0.30E+00   32.5     0.00000065     -3690.5785371081 -8.89E-06
 SMEAGOL DEBUG| Number of electrons in the unit cell =      1222.9607831958
   103 Broy./SMGL  0.30E+00   32.4     0.00000022     -3690.5785229435  1.42E-05
 SMEAGOL DEBUG| Number of electrons in the unit cell =      1222.9607834583
   104 Broy./SMGL  0.30E+00   32.4     0.00000027     -3690.5785275831 -4.64E-06
 SMEAGOL DEBUG| Number of electrons in the unit cell =      1222.9607838175
   105 Broy./SMGL  0.30E+00   32.4     0.00000038     -3690.5785342523 -6.67E-06
 SMEAGOL DEBUG| Number of electrons in the unit cell =      1222.9607839507
   106 Broy./SMGL  0.30E+00   32.4     0.00000007     -3690.5785255470  8.71E-06
 SMEAGOL DEBUG| Number of electrons in the unit cell =      1222.9607838262
   107 Broy./SMGL  0.30E+00   32.4     0.00000006     -3690.5785274734 -1.93E-06
 SMEAGOL DEBUG| Number of electrons in the unit cell =      1222.9607836839
   108 Broy./SMGL  0.30E+00   32.4     0.00000020     -3690.5785282474 -7.74E-07
 SMEAGOL DEBUG| Number of electrons in the unit cell =      1222.9607835725
   109 Broy./SMGL  0.30E+00   32.4     0.00000003     -3690.5785326339 -4.39E-06
 SMEAGOL DEBUG| Number of electrons in the unit cell =      1222.9607835094
   110 Broy./SMGL  0.30E+00   32.4     9.7559E-09     -3690.5785315079  1.13E-06

  *** SCF run converged in   110 steps ***


  Electronic density on regular grids:      -1222.9607835094        0.0392164906
  Core density on regular grids:             1222.9999997993       -0.0000002007
  Total charge density on r-space grids:        0.0392162899
  Total charge density g-space grids:           0.0392162899

  Overlap energy of the core charge distribution:               0.00000053410942
  Self energy of the core charge distribution:              -6424.54153828207382
  Core Hamiltonian energy:                                   2052.66222986868434
  Hartree energy:                                            1264.70767111394889
  Exchange-correlation energy:                               -583.40689474256533
  Electronic entropic energy:                                   0.00000000000000
  Fermi energy:                                                 0.00000000000000

  Total energy:                                             -3690.57853150789606

 The electron density is written in cube file format to the file:

 V-ELECTRON_DENSITY-1_0.cube

 !-----------------------------------------------------------------------------!
                     Mulliken Population Analysis

 #  Atom  Element  Kind  Atomic population                           Net charge
       1     Au       1         11.000099                             -0.000099
       2     Au       1         10.999265                              0.000735
       3     Au       1         10.987834                              0.012166
       4     Au       1         10.988376                              0.011624
       5     Au       1         11.000161                             -0.000161
       6     Au       1         10.999489                              0.000511
       7     Au       1         10.987669                              0.012331
       8     Au       1         10.981127                              0.018873
       9     Au       1         10.999915                              0.000085
      10     Au       1         10.999457                              0.000543
      11     Au       1         10.989528                              0.010472
      12     Au       1         10.988076                              0.011924
      13     Au       1         10.999859                              0.000141
      14     Au       1         10.999441                              0.000559
      15     Au       1         10.987654                              0.012346
      16     Au       1         10.981101                              0.018899
      17     Au       1         10.999920                              0.000080
      18     Au       1         10.999776                              0.000224
      19     Au       1         10.987627                              0.012373
      20     Au       1         10.976922                              0.023078
      21     Au       1         10.999675                              0.000325
      22     Au       1         10.999635                              0.000365
      23     Au       1         10.987409                              0.012591
      24     Au       1         10.981453                              0.018547
      25     Au       1         11.000144                             -0.000144
      26     Au       1         10.999576                              0.000424
      27     Au       1         10.987848                              0.012152
      28     Au       1         10.988233                              0.011767
      29     Au       1         11.000205                             -0.000205
      30     Au       1         10.999801                              0.000199
      31     Au       1         10.987864                              0.012136
      32     Au       1         10.981670                              0.018330
      33     Au       1         10.999960                              0.000040
      34     Au       1         10.999771                              0.000229
      35     Au       1         10.987471                              0.012529
      36     Au       1         10.988417                              0.011583
      37     Au       1         10.986149                              0.013851
      38     Au       1         10.947426                              0.052574
      39     Au       1         10.947399                              0.052601
      40     Au       1         10.987096                              0.012904
      41     Au       1         10.947124                              0.052876
      42     Au       1         10.947687                              0.052313
      43     Au       1         11.016277                             -0.016277
      44     Au       1         10.985702                              0.014298
      45     Au       1         10.986801                              0.013199
      46     Au       1         11.083921                             -0.083921
      47     Au       1         11.029090                             -0.029090
      48     Au       1         11.084185                             -0.084185
      49     Au       1         11.029219                             -0.029219
      50     Au       1         10.884179                              0.115821
      51     Au       1         11.030846                             -0.030846
      52     Au       1         11.084113                             -0.084113
      53     Au       1         11.030491                             -0.030491
      54     Au       1         11.083956                             -0.083956
      55     Au       1         11.024549                             -0.024549
      56     Au       1         11.020190                             -0.020190
      57     Au       1         11.019814                             -0.019814
      58     Au       1         11.014844                             -0.014844
      59     Au       1         11.107119                             -0.107119
      60     Au       1         11.049348                             -0.049348
      61     H        2          0.953442                              0.046558
      62     H        2          0.959276                              0.040724
      63     Au       1         11.070385                             -0.070385
      64     Au       1         11.168586                             -0.168586
      65     Au       1         11.006584                             -0.006584
      66     Au       1         11.007843                             -0.007843
      67     Au       1         11.007886                             -0.007886
      68     Au       1         11.010729                             -0.010729
      69     Au       1         11.026409                             -0.026409
      70     Au       1         10.986778                              0.013222
      71     Au       1         11.027279                             -0.027279
      72     Au       1         10.986992                              0.013008
      73     Au       1         10.871985                              0.128015
      74     Au       1         10.988956                              0.011044
      75     Au       1         11.027177                             -0.027177
      76     Au       1         10.988594                              0.011406
      77     Au       1         11.027983                             -0.027983
      78     Au       1         10.999830                              0.000170
      79     Au       1         10.987526                              0.012474
      80     Au       1         10.999969                              0.000031
      81     Au       1         10.999680                              0.000320
      82     Au       1         10.999698                              0.000302
      83     Au       1         10.987281                              0.012719
      84     Au       1         11.000053                             -0.000053
      85     Au       1         10.999927                              0.000073
      86     Au       1         11.023175                             -0.023175
      87     Au       1         10.987028                              0.012972
      88     Au       1         10.999937                              0.000063
      89     Au       1         10.999865                              0.000135
      90     Au       1         10.966352                              0.033648
      91     Au       1         10.987226                              0.012774
      92     Au       1         10.999681                              0.000319
      93     Au       1         10.999879                              0.000121
      94     Au       1         10.965930                              0.034070
      95     Au       1         10.991835                              0.008165
      96     Au       1         10.999749                              0.000251
      97     Au       1         11.000127                             -0.000127
      98     Au       1         10.999408                              0.000592
      99     Au       1         10.987252                              0.012748
     100     Au       1         10.999544                              0.000456
     101     Au       1         11.000063                             -0.000063
     102     Au       1         10.966200                              0.033800
     103     Au       1         10.987176                              0.012824
     104     Au       1         10.999972                              0.000028
     105     Au       1         10.999984                              0.000016
     106     Au       1         10.965786                              0.034214
     107     Au       1         10.987430                              0.012570
     108     Au       1         11.000040                             -0.000040
     109     Au       1         11.000230                             -0.000230
     110     Au       1         10.999513                              0.000487
     111     Au       1         10.986583                              0.013417
     112     Au       1         10.999852                              0.000148
     113     Au       1         11.000168                             -0.000168
 # Total charge                           1222.960785                  0.039215

 !-----------------------------------------------------------------------------!

 !-----------------------------------------------------------------------------!
                           Hirshfeld Charges

  #Atom  Element  Kind  Ref Charge     Population                    Net charge
      1       Au     1      11.000         11.000                        -0.000
      2       Au     1      11.000         11.000                         0.000
      3       Au     1      11.000         10.999                         0.001
      4       Au     1      11.000         10.993                         0.007
      5       Au     1      11.000         11.000                        -0.000
      6       Au     1      11.000         11.000                         0.000
      7       Au     1      11.000         10.999                         0.001
      8       Au     1      11.000         10.996                         0.004
      9       Au     1      11.000         11.000                         0.000
     10       Au     1      11.000         11.000                         0.000
     11       Au     1      11.000         11.000                         0.000
     12       Au     1      11.000         10.992                         0.008
     13       Au     1      11.000         11.000                         0.000
     14       Au     1      11.000         11.000                         0.000
     15       Au     1      11.000         10.999                         0.001
     16       Au     1      11.000         10.996                         0.004
     17       Au     1      11.000         11.000                         0.000
     18       Au     1      11.000         11.000                        -0.000
     19       Au     1      11.000         10.999                         0.001
     20       Au     1      11.000         10.993                         0.007
     21       Au     1      11.000         11.000                         0.000
     22       Au     1      11.000         11.000                        -0.000
     23       Au     1      11.000         10.999                         0.001
     24       Au     1      11.000         10.996                         0.004
     25       Au     1      11.000         11.000                        -0.000
     26       Au     1      11.000         11.000                         0.000
     27       Au     1      11.000         10.999                         0.001
     28       Au     1      11.000         10.992                         0.008
     29       Au     1      11.000         11.000                        -0.000
     30       Au     1      11.000         11.000                        -0.000
     31       Au     1      11.000         10.999                         0.001
     32       Au     1      11.000         10.996                         0.004
     33       Au     1      11.000         11.000                         0.000
     34       Au     1      11.000         11.000                        -0.000
     35       Au     1      11.000         10.999                         0.001
     36       Au     1      11.000         10.992                         0.008
     37       Au     1      11.000         10.992                         0.008
     38       Au     1      11.000         10.995                         0.005
     39       Au     1      11.000         10.997                         0.003
     40       Au     1      11.000         10.994                         0.006
     41       Au     1      11.000         10.997                         0.003
     42       Au     1      11.000         10.996                         0.004
     43       Au     1      11.000         10.991                         0.009
     44       Au     1      11.000         10.992                         0.008
     45       Au     1      11.000         10.994                         0.006
     46       Au     1      11.000         11.032                        -0.032
     47       Au     1      11.000         11.012                        -0.012
     48       Au     1      11.000         11.034                        -0.034
     49       Au     1      11.000         11.012                        -0.012
     50       Au     1      11.000         10.973                         0.027
     51       Au     1      11.000         11.012                        -0.012
     52       Au     1      11.000         11.034                        -0.034
     53       Au     1      11.000         11.012                        -0.012
     54       Au     1      11.000         11.033                        -0.033
[...]
     19       Au     1      11.000         10.999                         0.001
     20       Au     1      11.000         10.992                         0.008
     21       Au     1      11.000         11.000                         0.000
     22       Au     1      11.000         11.000                        -0.000
     23       Au     1      11.000         10.999                         0.001
     24       Au     1      11.000         10.996                         0.004
     25       Au     1      11.000         11.000                        -0.000
     26       Au     1      11.000         11.000                         0.000
     27       Au     1      11.000         10.999                         0.001
     28       Au     1      11.000         10.992                         0.008
     29       Au     1      11.000         11.000                        -0.000
     30       Au     1      11.000         11.000                        -0.000
     31       Au     1      11.000         10.999                         0.001
     32       Au     1      11.000         10.996                         0.004
     33       Au     1      11.000         11.000                         0.000
     34       Au     1      11.000         11.000                        -0.000
     35       Au     1      11.000         10.999                         0.001
     36       Au     1      11.000         10.991                         0.009
     37       Au     1      11.000         10.991                         0.009
     38       Au     1      11.000         10.996                         0.004
     39       Au     1      11.000         10.998                         0.002
     40       Au     1      11.000         10.993                         0.007
     41       Au     1      11.000         10.998                         0.002
     42       Au     1      11.000         10.999                         0.001
     43       Au     1      11.000         10.994                         0.006
     44       Au     1      11.000         10.991                         0.009
     45       Au     1      11.000         10.993                         0.007
     46       Au     1      11.000         11.036                        -0.036
     47       Au     1      11.000         11.009                        -0.009
     48       Au     1      11.000         11.036                        -0.036
     49       Au     1      11.000         11.009                        -0.009
     50       Au     1      11.000         10.976                         0.024
     51       Au     1      11.000         11.010                        -0.010
     52       Au     1      11.000         11.036                        -0.036
     53       Au     1      11.000         11.010                        -0.010
     54       Au     1      11.000         11.036                        -0.036
     55       Au     1      11.000         10.991                         0.009
     56       Au     1      11.000         10.986                         0.014
     57       Au     1      11.000         10.986                         0.014
     58       Au     1      11.000         10.982                         0.018
     59       Au     1      11.000         11.019                        -0.019
     60       Au     1      11.000         10.967                         0.033
     61       H      2       1.000          1.041                        -0.041
     62       H      2       1.000          1.052                        -0.052
     63       Au     1      11.000         10.991                         0.009
     64       Au     1      11.000         11.071                        -0.071
     65       Au     1      11.000         10.970                         0.030
     66       Au     1      11.000         10.969                         0.031
     67       Au     1      11.000         10.969                         0.031
     68       Au     1      11.000         10.969                         0.031
     69       Au     1      11.000         11.030                        -0.030
     70       Au     1      11.000         11.012                        -0.012
     71       Au     1      11.000         11.030                        -0.030
     72       Au     1      11.000         11.012                        -0.012
     73       Au     1      11.000         10.974                         0.026
     74       Au     1      11.000         11.012                        -0.012
     75       Au     1      11.000         11.030                        -0.030
     76       Au     1      11.000         11.012                        -0.012
     77       Au     1      11.000         11.030                        -0.030
     78       Au     1      11.000         10.980                         0.020
     79       Au     1      11.000         10.998                         0.002
     80       Au     1      11.000         11.000                        -0.000
     81       Au     1      11.000         11.000                         0.000
     82       Au     1      11.000         10.980                         0.020
     83       Au     1      11.000         10.998                         0.002
     84       Au     1      11.000         11.000                        -0.000
     85       Au     1      11.000         11.000                         0.000
     86       Au     1      11.000         10.983                         0.017
     87       Au     1      11.000         10.998                         0.002
     88       Au     1      11.000         11.000                         0.000
     89       Au     1      11.000         11.000                         0.000
     90       Au     1      11.000         10.982                         0.018
     91       Au     1      11.000         10.998                         0.002
     92       Au     1      11.000         11.000                         0.000
     93       Au     1      11.000         11.000                         0.000
     94       Au     1      11.000         10.982                         0.018
     95       Au     1      11.000         10.999                         0.001
     96       Au     1      11.000         11.000                         0.000
     97       Au     1      11.000         11.000                        -0.000
     98       Au     1      11.000         10.980                         0.020
     99       Au     1      11.000         10.998                         0.002
    100       Au     1      11.000         11.000                         0.000
    101       Au     1      11.000         11.000                        -0.000
    102       Au     1      11.000         10.982                         0.018
    103       Au     1      11.000         10.998                         0.002
    104       Au     1      11.000         11.000                        -0.000
    105       Au     1      11.000         11.000                         0.000
    106       Au     1      11.000         10.982                         0.018
    107       Au     1      11.000         10.998                         0.002
    108       Au     1      11.000         11.000                        -0.000
    109       Au     1      11.000         11.000                        -0.000
    110       Au     1      11.000         10.980                         0.020
    111       Au     1      11.000         10.998                         0.002
    112       Au     1      11.000         11.000                         0.000
    113       Au     1      11.000         11.000                        -0.000

  Total Charge                                                            0.039
 !-----------------------------------------------------------------------------!
 Calculating transmission coefficient
 SMEAGOL DEBUG| Number of electrons in the unit cell =      1222.9605527701

 ENERGY| Total FORCE_EVAL ( QS ) energy [a.u.]:            -3690.575486050134259

 ATOMIC FORCES in [a.u.]

 # Atom   Kind   Element          X              Y              Z
      1      1      Au          0.00000000     0.00000000     0.00000000
      2      1      Au          0.00000000     0.00000000     0.00000000
      3      1      Au          0.00000000     0.00000000     0.00000000
      4      1      Au          0.00000000     0.00000000     0.00000000
      5      1      Au          0.00000000     0.00000000     0.00000000
      6      1      Au          0.00000000     0.00000000     0.00000000
      7      1      Au          0.00000000     0.00000000     0.00000000
      8      1      Au          0.00000000     0.00000000     0.00000000
      9      1      Au          0.00000000     0.00000000     0.00000000
     10      1      Au          0.00000000     0.00000000     0.00000000
     11      1      Au          0.00000000     0.00000000     0.00000000
     12      1      Au          0.00000000     0.00000000     0.00000000
     13      1      Au          0.00000000     0.00000000     0.00000000
     14      1      Au          0.00000000     0.00000000     0.00000000
     15      1      Au          0.00000000     0.00000000     0.00000000
     16      1      Au          0.00000000     0.00000000     0.00000000
     17      1      Au          0.00000000     0.00000000     0.00000000
     18      1      Au          0.00000000     0.00000000     0.00000000
     19      1      Au          0.00000000     0.00000000     0.00000000
     20      1      Au          0.00000000     0.00000000     0.00000000
     21      1      Au          0.00000000     0.00000000     0.00000000
     22      1      Au          0.00000000     0.00000000     0.00000000
     23      1      Au          0.00000000     0.00000000     0.00000000
     24      1      Au          0.00000000     0.00000000     0.00000000
     25      1      Au          0.00000000     0.00000000     0.00000000
     26      1      Au          0.00000000     0.00000000     0.00000000
     27      1      Au          0.00000000     0.00000000     0.00000000
     28      1      Au          0.00000000     0.00000000     0.00000000
     29      1      Au          0.00000000     0.00000000     0.00000000
     30      1      Au          0.00000000     0.00000000     0.00000000
     31      1      Au          0.00000000     0.00000000     0.00000000
     32      1      Au          0.00000000     0.00000000     0.00000000
     33      1      Au          0.00000000     0.00000000     0.00000000
     34      1      Au          0.00000000     0.00000000     0.00000000
     35      1      Au          0.00000000     0.00000000     0.00000000
     36      1      Au          0.00000000     0.00000000     0.00000000
     37      1      Au          0.00000000     0.00000000     0.00000000
     38      1      Au          0.00000000     0.00000000     0.00000000
     39      1      Au          0.00000000     0.00000000     0.00000000
     40      1      Au          0.00000000     0.00000000     0.00000000
     41      1      Au          0.00000000     0.00000000     0.00000000
     42      1      Au          0.00000000     0.00000000     0.00000000
     43      1      Au          0.00000000     0.00000000     0.00000000
     44      1      Au          0.00000000     0.00000000     0.00000000
     45      1      Au          0.00000000     0.00000000     0.00000000
     46      1      Au          0.00000000     0.00000000     0.00000000
     47      1      Au          0.00000000     0.00000000     0.00000000
     48      1      Au          0.00000000     0.00000000     0.00000000
     49      1      Au          0.00000000     0.00000000     0.00000000
     50      1      Au          0.00000000     0.00000000     0.00000000
     51      1      Au          0.00000000     0.00000000     0.00000000
     52      1      Au          0.00000000     0.00000000     0.00000000
     53      1      Au          0.00000000     0.00000000     0.00000000
     54      1      Au          0.00000000     0.00000000     0.00000000
     55      1      Au          0.00000000     0.00000000     0.00000000
     56      1      Au          0.00000000     0.00000000     0.00000000
     57      1      Au          0.00000000     0.00000000     0.00000000
     58      1      Au          0.00000000     0.00000000     0.00000000
     59      1      Au         -0.00001084    -0.00000957     0.00024394
     60      1      Au         -0.00006900    -0.00006347     0.00045140
     61      2      H           0.00000232     0.00000278    -0.00033927
     62      2      H           0.00009574     0.00009319    -0.00005325
     63      1      Au          0.00026205     0.00025361     0.00039480
     64      1      Au         -0.00004361    -0.00004232     0.00028970
     65      1      Au          0.00000000     0.00000000     0.00000000
     66      1      Au          0.00000000     0.00000000     0.00000000
     67      1      Au          0.00000000     0.00000000     0.00000000
     68      1      Au          0.00000000     0.00000000     0.00000000
     69      1      Au          0.00000000     0.00000000     0.00000000
     70      1      Au          0.00000000     0.00000000     0.00000000
     71      1      Au          0.00000000     0.00000000     0.00000000
     72      1      Au          0.00000000     0.00000000     0.00000000
     73      1      Au          0.00000000     0.00000000     0.00000000
     74      1      Au          0.00000000     0.00000000     0.00000000
     75      1      Au          0.00000000     0.00000000     0.00000000
     76      1      Au          0.00000000     0.00000000     0.00000000
     77      1      Au          0.00000000     0.00000000     0.00000000
     78      1      Au          0.00000000     0.00000000     0.00000000
     79      1      Au          0.00000000     0.00000000     0.00000000
     80      1      Au          0.00000000     0.00000000     0.00000000
     81      1      Au          0.00000000     0.00000000     0.00000000
     82      1      Au          0.00000000     0.00000000     0.00000000
     83      1      Au          0.00000000     0.00000000     0.00000000
     84      1      Au          0.00000000     0.00000000     0.00000000
     85      1      Au          0.00000000     0.00000000     0.00000000
     86      1      Au          0.00000000     0.00000000     0.00000000
     87      1      Au          0.00000000     0.00000000     0.00000000
     88      1      Au          0.00000000     0.00000000     0.00000000
     89      1      Au          0.00000000     0.00000000     0.00000000
     90      1      Au          0.00000000     0.00000000     0.00000000
     91      1      Au          0.00000000     0.00000000     0.00000000
     92      1      Au          0.00000000     0.00000000     0.00000000
     93      1      Au          0.00000000     0.00000000     0.00000000
     94      1      Au          0.00000000     0.00000000     0.00000000
     95      1      Au          0.00000000     0.00000000     0.00000000
     96      1      Au          0.00000000     0.00000000     0.00000000
     97      1      Au          0.00000000     0.00000000     0.00000000
     98      1      Au          0.00000000     0.00000000     0.00000000
     99      1      Au          0.00000000     0.00000000     0.00000000
    100      1      Au          0.00000000     0.00000000     0.00000000
    101      1      Au          0.00000000     0.00000000     0.00000000
    102      1      Au          0.00000000     0.00000000     0.00000000
    103      1      Au          0.00000000     0.00000000     0.00000000
    104      1      Au          0.00000000     0.00000000     0.00000000
    105      1      Au          0.00000000     0.00000000     0.00000000
    106      1      Au          0.00000000     0.00000000     0.00000000
    107      1      Au          0.00000000     0.00000000     0.00000000
    108      1      Au          0.00000000     0.00000000     0.00000000
    109      1      Au          0.00000000     0.00000000     0.00000000
    110      1      Au          0.00000000     0.00000000     0.00000000
    111      1      Au          0.00000000     0.00000000     0.00000000
    112      1      Au          0.00000000     0.00000000     0.00000000
    113      1      Au          0.00000000     0.00000000     0.00000000
 SUM OF ATOMIC FORCES           0.00023667     0.00023422     0.00098732     0.00104196

 --------  Informations at step =    24 ------------
  Optimization Method        =                 BFGS
  Total Energy               =     -3690.5754860501
  Real energy change         =        -0.0026494641
  Predicted change in energy =        -0.0000124762
  Scaling factor             =         0.0000000000
  Step size                  =         0.0254870238
  Trust radius               =         0.4724315332
  Decrease in energy         =                   NO
  Used time                  =             2360.466

  Convergence check :
  Max. step size             =         0.0254870238
  Conv. limit for step size  =         0.0010000000
  Convergence in step size   =                   NO
  RMS step size              =         0.0024248055
  Conv. limit for RMS step   =         0.0010000000
  Convergence in RMS step    =                   NO
  Max. gradient              =         0.0004514024
  Conv. limit for gradients  =         0.0010000000
  Conv. in gradients         =                  YES
  RMS gradient               =         0.0000481074
  Conv. limit for RMS grad.  =         0.0010000000
  Conv. in RMS gradients     =                  YES
 ---------------------------------------------------
 Estimated peak process memory after this step [MiB]                         700

 --------------------------
 OPTIMIZATION STEP:     25
 --------------------------
 its          25
 iter_nr           0

 Number of electrons:                                                       1223
 Number of occupied orbitals:                                                612
 Number of molecular orbitals:                                               712

 Number of orbital functions:                                               1009
 Number of independent orbital functions:                                   1009

 Extrapolation method: initial_guess


 SCF WAVEFUNCTION OPTIMIZATION

  Step     Update method      Time    Convergence         Total energy    Change
  ------------------------------------------------------------------------------
 SMEAGOL DEBUG| Number of electrons in the unit cell =      1222.9409198079
     1 Broy./SMGL  0.30E+00   34.1     1.68762414     -3690.6563179148 -3.69E+03
 SMEAGOL DEBUG| Number of electrons in the unit cell =      1224.4152437339
     2 Broy./SMGL  0.30E+00   32.3     6.87788517     -3685.9274190527  4.73E+00
 SMEAGOL DEBUG| Number of electrons in the unit cell =      1222.6492379892
     3 Broy./SMGL  0.30E+00   32.3     6.86730590     -3778.5398477056 -9.26E+01
 SMEAGOL DEBUG| Number of electrons in the unit cell =      1222.8349196614
     4 Broy./SMGL  0.30E+00   32.3     0.24818157     -3697.9522020894  8.06E+01
 SMEAGOL DEBUG| Number of electrons in the unit cell =      1223.1990347355
     5 Broy./SMGL  0.30E+00   32.3     0.10017323     -3684.0091904499  1.39E+01
 SMEAGOL DEBUG| Number of electrons in the unit cell =      1223.0463127874
     6 Broy./SMGL  0.30E+00   32.4     0.02152043     -3687.1242389911 -3.12E+00
 SMEAGOL DEBUG| Number of electrons in the unit cell =      1223.0968560793
     7 Broy./SMGL  0.30E+00   32.4     0.00810699     -3687.1025239149  2.17E-02
 SMEAGOL DEBUG| Number of electrons in the unit cell =      1223.1947615850
     8 Broy./SMGL  0.30E+00   32.4     0.02204173     -3687.7181720210 -6.16E-01
 SMEAGOL DEBUG| Number of electrons in the unit cell =      1223.2022600883
     9 Broy./SMGL  0.30E+00   32.4     0.03368480     -3688.9044248270 -1.19E+00
 SMEAGOL DEBUG| Number of electrons in the unit cell =      1223.1985049684
