SIESTA 1.3.7  -- [1.3f1 release] (04 Feb 2004)
Architecture  : mpif90
Compiler flags:  -O2 -openmp 
PARALLEL version

* Running on    8 nodes in parallel
 OMP_NUM_THREADS environment variable=1                                        0
 MKL_NUM_THREADS environment variable=1                                        0
 OMP_NUM_THREADS environment variable=1                                        1
 MKL_NUM_THREADS environment variable=1                                        1
 Maximum number of Threads, node index:           1           0
 Maximum number of Threads, node index:           1           1
 Maximum number of Threads, node index:           1           2
 Maximum number of Threads, node index:           1           3
 Maximum number of Threads, node index:           1           4
 Maximum number of Threads, node index:           1           7
 Maximum number of Threads, node index:           1           5
 Maximum number of Threads, node index:           1           6
 In parallel region?  F
 Number of Threads in parallel region           1
 Node index, Thread index           0           0
>> Start of run:  26-AUG-2013   0:49:55

                           ***********************       
                           *  WELCOME TO SIESTA  *       
                           ***********************       

reinit: Reading from standard input
************************** Dump of input data file ****************************
SystemName  Au wire
SystemLabel Au_sp
#********************************************************
# Specification of atomic species and positions
#********************************************************
# Chemical species
NumberOfSpecies 1
%block ChemicalSpeciesLabel
 1 79 Au
%endblock ChemicalSpeciesLabel
# UNIT CELL
LatticeConstant       1.0 Ang
%block LatticeVectors
  9.000   0.000   0.000	  1
  0.000   9.000   0.000   1
  0.000   0.000  22.400   1
%endblock LatticeVectors
# ATOMIC POSITIONS
NumberOfAtoms    9
AtomicCoordinatesFormat Ang
%block AtomicCoordinatesAndAtomicSpecies
   0.000   0.000  0.000   1  Au
   0.000   0.000  2.800   1  Au
   0.000   0.000  5.600   1  Au
   0.000   0.000  8.400   1  Au
   0.000   0.000 11.200   1  Au
   2.800   0.000 11.200   1  Au
   0.000   0.000 14.000   1  Au
   0.000   0.000 16.800   1  Au
   0.000   0.000 19.600   1  Au
%endblock AtomicCoordinatesAndAtomicSpecies 	
#********************************************************
# DFT options
#********************************************************
# Basis set variables
PAO.BasisType split
PAO.SplitNorm			0.15		# Amount of norm carried by the second zeta
%block PAO.Basis
  Au  1
n=6  0  1  P 0 E 20 4
  5.5
%endblock PAO.Basis
%block PS.lmax
 Au   1
%endblock PS.lmax
# k-mesh for Brillouin zone integration
%block kgrid_Monkhorst_Pack
  1   0   0     0.0
  0   1   0     0.0
  0   0   1     0.0
%endblock kgrid_Monkhorst_Pack
# General variables
ElectronicTemperature  300 K
MeshCutoff             200 Ry
xc.functional          LDA           # Exchange-correlation functional
xc.authors             CA
SpinPolarized          T
# SCF variables
DM.MixSCF1            T
MaxSCFIterations      1000           # Maximum number of SCF iter
DM.MixingWeight       0.1            # New DM amount for next SCF cycle
DM.Tolerance          2.0d-4         # Tolerance in maximum difference
DM.UseSaveDM          true           # to use continuation files
DM.NumberPulay        4
# Output variables
WriteMullikenPop                0
WriteBands                      F
SaveRho                         T
SaveElectrostaticPotential      T
SaveTotalPotential              F
WriteCoorXmol                   T
WriteMDXmol                     T
#********************************************************
# SMEAGOL options
#********************************************************
# perform a transport calculation
EMTransport               T
# set number of energy points for integrals
NEnergReal              320
NEnergImCircle           16
NEnergImLine             16
NPoles                   16
#set bias range
VInitial                 0.00d0 eV
VFinal                   0.00d0 eV
NIVPoints                0
# General variables
Delta                    1.d-4
EnergLowestBound        -4.4d0 Ry
NSlices                  1
PeriodicTransp           T
SaveMemTranspK           F
WriteDMT                 F
# Matching of Hartree potential with the leads
HartreeLeadsBottom      -1.79978740  eV
HartreeLeadsLeft         0.000      Ang
HartreeLeadsRight        0.000      Ang
# print transmission coefficient
TrCoefficients           T
NTransmPoints            200
TransmissionOverK        F
TRCScaleEF               T
InitTransmRange         -10.0  eV
FinalTransmRange         10.0  eV
TransmissionEmbed        F
TRC.EMDOS                T
TRC.EMPDOS               T
TRC.LeadsDOS             T
TRC.LeadsPDOS            F
Sigma.PDOS               F
Sigma.DOSVV              F
# save output for specified bias steps
%block SaveBiasSteps
 0
%endblock SaveBiasSteps
************************** End of input data file *****************************

reinit: -----------------------------------------------------------------------
reinit: System Name: Au wire                                                    
reinit: -----------------------------------------------------------------------
reinit: System Label: Au_sp               
reinit: -----------------------------------------------------------------------

initatom: Reading input for the pseudopotentials and atomic orbitals ----------
 Species number:            1  Label: Au Atomic number:          79
Ground state valence configuration:   6s01  5d10
Reading pseudopotential information in formatted form from Au.psf
Semicore shell(s) with ** electrons included in the valence for
Au
relmxkb: Read Max KB Ang. Momentum=    1 for species Au

<basis_specs>
===============================================================================
Au                   Z=  79    Mass=  196.97        Charge=  0.0000    
Lmxo=0 Lmxkb=1     BasisType=split      Semic=T
L=0  Nsemic=0  Cnfigmx=6
          n=1  nzeta=1  polorb=0
               vcte:    20.000    
               rinn:    4.0000    
                rcs:    5.5000    
            lambdas:    1.0000    
-------------------------------------------------------------------------------
L=0  Nkbl=1  erefs: 0.17977+309
L=1  Nkbl=1  erefs: 0.17977+309
===============================================================================
</basis_specs>

atom: Called for Au  (Z =  79)

read_vps: Pseudopotential generation method:
read_vps: ATM3      Troullier-Martins                       

read_vps: Pseudopotential generated from a relativistic atomic calculation
read_vps: There are spin-orbit pseudopotentials available

read_vps: Valence configuration (pseudopotential and basis set generation):
6s( 1.00) rc: 2.29
6p( 0.00) rc: 2.29
Total valence charge:    1.00000

read_vps: Pseudopotential includes a core correction:
read_vps: Pseudo-core for xc-correction
comcore: Pseudo-core radius Rcore=  7.714087

xc_check: Exchange-correlation functional:
xc_check: Ceperley-Alder
V l=0 = -2*Zval/r beyond r=  6.3158
V l=1 = -2*Zval/r beyond r=  6.3158
All V_l potentials equal beyond r=  2.2661
This should be close to max(r_c) in ps generation
All pots = -2*Zval/r beyond r=  6.3158
Using large-core scheme for Vlocal

atom: Estimated core radius    6.31575
atom: Maximum radius for 4*pi*r*r*local-pseudopot. charge    6.72309
atom: Maximum radius for r*vlocal+2*Zval:    6.39520
GHOST: No ghost state for L =  0
GHOST: No ghost state for L =  1

KBgen: Kleinman-Bylander projectors: 
   l= 0   rc=  2.352642   el= -0.445660   Ekb=  4.785126   kbcos=  0.279017
   l= 1   rc=  2.352642   el= -0.065043   Ekb=  2.856109   kbcos=  0.217743

KBgen: Total number of  Kleinman-Bylander projectors:    4
atom: -------------------------------------------------------------------------

atom: SANKEY-TYPE ORBITALS:

SPLIT: Orbitals with angular momentum L= 0

SPLIT: Basis orbitals for state 6s

   izeta = 1
                 lambda =    1.000000
                     rc =    5.504393
                 energy =   -0.392859
                kinetic =    0.507951
    potential(screened) =   -0.900809
       potential(ionic) =   -0.802802
atom: Total number of Sankey-type orbitals:  1

atm_pop: Valence configuration(local Pseudopot. screening):
 6s( 1.00)                                                            
Vna: chval, zval:    1.00000   1.00000

Vna:  Cut-off radius for the neutral-atom potential:   6.475639
Vna: WARNING: Cut-off radius for the neutral-atom potential, rVna =     6.47564
Vna: WARNING: Cut-off radius for charge density =     5.50439
Vna: WARNING: Check atom: Look for the sentence:
Vna: WARNING: LOCAL NEUTRAL-ATOM PSEUDOPOTENTIAL
Vna: WARNING: Increasing the tolerance parameter EPS
Vna: WARNING: might be a good idea

atom: _________________________________________________________________________

prinput: Basis input ----------------------------------------------------------

PAO.BasisType split     

%block ChemicalSpeciesLabel
    1   79 Au                      # Species index, atomic number, species label
%endblock ChemicalSpeciesLabel

%block PAO.Basis                 # Define Basis set
Au          1                    # Species label, number of l-shells
 n=6   0   1                         # n, l, Nzeta 
   5.504   
   1.000   
%endblock PAO.Basis

prinput: ----------------------------------------------------------------------


siesta: ******************** Simulation parameters ****************************
siesta:
siesta: The following are some of the parameters of the simulation.
siesta: A complete list of the parameters used, including defect values,
siesta: can be found in file out.fdf
siesta:
coor:   Atomic-coordinates input format  =     Cartesian coordinates
coor:                                          (in Angstroms)
redata: Number of spin components        =     2
redata: SpinOrbit                        =     0
redata: Long output                      =     F
redata: Number of Atomic Species         =     1
redata: Charge density info will appear in .RHO file
redata: Write Mulliken Pop.              =     NO
redata: Mesh Cutoff                      =   200.0000  Ry
redata: Net charge of the system         =     0.0000 |e|
redata: Max. number of SCF Iter          =  1000
redata: One Pulay mixing every           =     4 iterations
redata: Mix DM in first SCF step ?       =     T
redata: Write Pulay info on disk?        =     F
redata: New DM Mixing Weight             =     0.1000
redata: No kicks to SCF
redata: DM Mixing Weight for Kicks       =     0.5000
redata: DM Tolerance for SCF             =     0.000200
redata: Antiferro initial spin density   =     F
redata: Use continuation files for DM    =     T
redata: Neglect nonoverlap interactions  =     F
redata: Method of Calculation            =     Diagonalization
redata: Divide and Conquer               =     F
redata: Electronic Temperature           =     0.0019  Ry
redata: Fix the spin of the system       =     F
redata: Dynamics option                  =     CG coord. optimization
redata: Variable cell                    =     F
redata: Use continuation files for CG    =     F
redata: Maximum number of CG moves       =     0
redata: Max atomic displ per move        =     0.2000  Bohr
redata: Force tolerance                  =     0.0016  Ry/Bohr
redata: ***********************************************************************

siesta: Atomic coordinates (Bohr) and species
siesta:      0.00000   0.00000   0.00000  1        1
siesta:      0.00000   0.00000   5.29124  1        2
siesta:      0.00000   0.00000  10.58247  1        3
siesta:      0.00000   0.00000  15.87371  1        4
siesta:      0.00000   0.00000  21.16494  1        5
siesta:      5.29124   0.00000  21.16494  1        6
siesta:      0.00000   0.00000  26.45618  1        7
siesta:      0.00000   0.00000  31.74741  1        8
siesta:      0.00000   0.00000  37.03865  1        9

initatomlists: Number of atoms, orbitals, and projectors:      9     9    36

siesta: System type = slab      
 Nodes, Orbitals           8           9
 blocksizedefault           1

* ProcessorY, Blocksize:    2   1

 Using EM.ParallelOverKNum =           1
 label:           1 Au                             1 s      
 label:           2 Au                             2 s      
 label:           3 Au                             3 s      
 label:           4 Au                             4 s      
 label:           5 Au                             5 s      
 label:           6 Au                             6 s      
 label:           7 Au                             7 s      
 label:           8 Au                             8 s      
 label:           9 Au                             9 s      
 
* Maximum dynamic memory allocated =     1 MB

siesta:                 ==============================
SMEAGOL                 Bias step =    0, V =  0.000 Ry
                            Begin CG move =      0
                        ==============================

read_ldau The LDA+U method used is from Czyzky PRB 49 14211

InitMesh: MESH =    80 x    80 x   192 =     1228800
InitMesh: Mesh cutoff (required, used) =   200.000   203.052 Ry
 
* Maximum dynamic memory allocated =    13 MB
siesta: reading saved Hamiltonian
siesta: saved Hamiltonian not found

siesta: Program's energy decomposition (eV):
siesta: Eions   =       938.385124
siesta: Ena     =       823.427092
siesta: Ekin    =        62.207023
siesta: Enl     =        59.005649
siesta: DEna    =        -0.000006
siesta: DUscf   =         0.000000
siesta: DUext   =         0.000000
siesta: Exc     =     -1044.316546
siesta: eta*DQ  =         0.000000
siesta: Emadel  =         0.000000
siesta: Eharris =     -1044.590210
siesta: Eso     =         0.000000
siesta: Etot    =     -1038.061912
siesta: FreeEng =     -1038.061912

siesta: iscf   Eharris(eV)      E_KS(eV)   FreeEng(eV)   dDmax  Ef(eV)
siesta:    1    -1044.5902    -1038.0619    -1038.0619  0.6656  0.0000
timer: Routine,Calls,Time,% = IterSCF        1       6.290  75.42
siesta:    2    -1044.7751    -1038.7231    -1038.7231  0.0277  0.0000
siesta:    3    -1047.3238    -1045.5203    -1045.5203  0.2564  0.0000
siesta:    4    -1047.5191    -1047.5942    -1047.5942  0.0477  0.0000
siesta:    5    -1047.2832    -1047.5441    -1047.5441  0.0392  0.0000
siesta:    6    -1047.2999    -1047.3129    -1047.3129  0.0198  0.0000
siesta:    7    -1047.4172    -1047.3069    -1047.3069  0.0125  0.0000
siesta:    8    -1047.3686    -1047.4159    -1047.4159  0.0090  0.0000
siesta:    9    -1047.3648    -1047.3701    -1047.3701  0.0025  0.0000
siesta:   10    -1047.3697    -1047.3653    -1047.3653  0.0019  0.0000
siesta:   11    -1047.3751    -1047.3698    -1047.3698  0.0018  0.0000
siesta:   12    -1047.3839    -1047.3752    -1047.3752  0.0015  0.0000
siesta:   13    -1047.3784    -1047.3839    -1047.3839  0.0009  0.0000
siesta:   14    -1047.3806    -1047.3785    -1047.3785  0.0007  0.0000
siesta:   15    -1047.3769    -1047.3806    -1047.3806  0.0004  0.0000
siesta:   16    -1047.3790    -1047.3770    -1047.3770  0.0004  0.0000
siesta:   17    -1047.3787    -1047.3790    -1047.3790  0.0001  0.0000
 Calculating transmission coefficient

siesta: E_KS(eV) =            -1047.3787

siesta: E_KS - E_eggbox =     -1047.3787

siesta: Atomic forces (eV/Ang):
----------------------------------------
 Tot    0.033294    0.048423    0.175989
----------------------------------------
 Max    5.737361
 Res    1.565390    sqrt( Sum f_i^2 / 3N )
----------------------------------------
 Max    5.737361    constrained
 
* Maximum dynamic memory allocated =    13 MB

coxmol: Writing XMOL coordinates into file Au_sp.xyz               
 siesta: ERROR: PDOS implemented only with diagon

siesta: Program's energy decomposition (eV):
siesta:-Eions   =    -938.385124
siesta: Ena     =     823.427092
siesta: Ekin    =      51.166452
siesta: Enl     =      54.781635
siesta: DEna    =       2.987713
siesta: DUscf   =       0.219758
siesta: DUext   =       0.000000
siesta: Exc     =   -1041.576200
siesta: eta*DQ  =       0.000000
siesta: Emadel  =       0.000000
siesta: Ekinion =       0.000000
siesta: Eharris =   -1047.378668
siesta: Eso     =       0.000000
siesta: Etot    =   -1047.378674
siesta: FreeEng =   -1047.378674

siesta: Final energy (eV):
siesta:       Kinetic =      51.166452
siesta:       Hartree =      35.678183
siesta:    Ext. field =       0.000000
siesta:   Exch.-corr. =   -1041.576200
siesta:  Ion-electron =     -83.715729
siesta:       Ion-ion =      -8.931380
siesta:       Ekinion =       0.000000
siesta:         Total =   -1047.378674

siesta: Atomic forces (eV/Ang):
siesta:    1    0.005293    0.005295    0.032349
siesta:    2    0.005287    0.005295   -0.260555
siesta:    3    0.004898    0.005297    0.720534
siesta:    4    0.126739    0.005641   -1.049035
siesta:    5    5.490859    0.006322    0.017002
siesta:    6   -5.737361    0.004338    0.008849
siesta:    7    0.127397    0.005643    1.095063
siesta:    8    0.004897    0.005297   -0.416683
siesta:    9    0.005284    0.005295    0.028466
siesta: ----------------------------------------
siesta:  Tot    0.033294    0.048423    0.175989

siesta: Stress tensor (static) (eV/Ang**3):
siesta:     0.008788   -0.000003   -0.000010
siesta:    -0.000003   -0.000015   -0.000007
siesta:    -0.000010   -0.000007    0.060784

siesta: Cell volume =       1814.400000 Ang**3

siesta: Pressure (static):
siesta:                Solid            Molecule  Units
siesta:          -0.00025252         -0.00022420  Ry/Bohr**3
siesta:          -0.02318577         -0.02058520  eV/Ang**3
siesta:         -37.14810764        -32.98148507  kBar

siesta: Total spin polarization (Qup-Qdown) =    0.001604
siesta: Spin vector =    0.000000    0.000000    0.001604
siesta: No SpinPolK block detected...

siesta: Electric dipole (a.u.)  =    0.000000    0.000000    0.000000
siesta: Electric dipole (Debye) =    0.000000    0.000000    0.000000
 
* Maximum dynamic memory allocated : Node    0 =    13 MB
* Maximum dynamic memory allocated : Node    1 =    13 MB
* Maximum dynamic memory allocated : Node    2 =    13 MB
* Maximum dynamic memory allocated : Node    3 =    13 MB
* Maximum dynamic memory allocated : Node    4 =    13 MB
* Maximum dynamic memory allocated : Node    5 =    13 MB
* Maximum dynamic memory allocated : Node    6 =    13 MB
* Maximum dynamic memory allocated : Node    7 =    13 MB
* Maximum memory occured during redistribXZ                   

timer: CPU execution times:
timer:  Routine       Calls   Time/call    Tot.time        %
timer:  siesta            1      46.820      46.820   100.00
timer:  Setup             1       1.980       1.980     4.23
timer:  bands             1       0.010       0.010     0.02
timer:  writewave         1       0.010       0.010     0.02
timer:  KSV_init          1       0.010       0.010     0.02
timer:  IterMD            1      38.880      38.880    83.04
timer:  hsparse           2       0.000       0.000     0.00
timer:  overfsm           2       0.010       0.020     0.04
timer:  IterSCF          18       2.153      38.760    82.79
timer:  kinefsm           2       0.015       0.030     0.06
timer:  nlefsm            2       0.015       0.030     0.06
timer:  DHSCF            19       2.108      40.050    85.54
timer:  DHSCF1            1       1.100       1.100     2.35
timer:  DHSCF2            1       1.190       1.190     2.54
timer:  REORD           293       0.004       1.270     2.71
timer:  POISON           20       0.751      15.030    32.10
timer:  DHSCF3           19       1.937      36.810    78.62
timer:  rhoofd           19       0.026       0.490     1.05
timer:  CELLXC           19       0.516       9.800    20.93
timer:  vmat             18       0.021       0.380     0.81
timer:  emtrans          18       0.217       3.900     8.33
timer:  NEGFK            18       0.208       3.740     7.99
timer:  NEGFK_su         18       0.093       1.670     3.57
timer:  NEGFK_imag       17       0.001       0.020     0.04
timer:  NEGFK_col        17       0.002       0.040     0.09
timer:  DHSCF4            1       0.710       0.710     1.52
timer:  dfscf             1       0.290       0.290     0.62
timer:  TRANSM            1       0.810       0.810     1.73
timer:  CURRENT           1       1.190       1.190     2.54
  
>> End of run:  26-AUG-2013   0:50:01
