ATOMS
H             0.00000000      0.00000000     -0.01024134             0.00000728      0.55953397     -0.43234446
H             0.00000000      0.00000000      0.74024825             0.00000728      0.55953397     -0.43234446
