ATOMS
H             0.00000000      0.00000000     -0.01024134             0.70710587      0.00112139      0.00017258
H             0.00000000      0.00000000      0.74024825            -0.70710587     -0.00112139     -0.00017258
