Siesta Version  : trunk-761--smeagol-80
Architecture    : thomas-intel2017update1-intelmpi-mkl
Compiler version: ifort (IFORT) 18.0.3 20180410
Compiler flags  : mpif90 -O2  -fPIC -g -ftree-vectorize -xHost
PP flags        : -DFC_HAVE_ABORT -DMPI
Libraries       :   -lmkl_scalapack_lp64 -lmkl_blacs_intelmpi_lp64 -lmkl_intel_lp64 -lmkl_sequeential -lmkl_core
Directory       : /lustre/scratch/mmm1169/work/cp2k-smeagol-examples/au-chain/siesta4-smeagol/kpoints-2-2-20_constrained_positive_Au-2.8_alex2
PARALLEL version

* Running on 2 nodes in parallel
>> Start of run:  30-OCT-2023  16:43:32

                           ***********************       
                           *  WELCOME TO SIESTA  *       
                           ***********************       

reinit: Reading from standard input
reinit: Dumped input in INPUT_TMP.26649
************************** Dump of input data file ****************************
SystemName		     au-chain_szv_dftenergy		# Descriptive name of the system
SystemLabel 			au-chain_szv_dftenergy		# Short name for naming files
NumberOfAtoms    9
NumberOfSpecies			1               # Number of species
PAO.BasisType			split		
%block ChemicalSpeciesLabel
1 79 Au
%endblock ChemicalSpeciesLabel
%block PAO.Basis
  Au  2
n=6  0  1
6.500
1.00
n=5  2  1
5.850
1.00
%endblock PAO.Basis
%block PS.lmax
 Au   3
%endblock PS.lmax
LatticeConstant 1.000 Ang
%block LatticeVectors
  8.4    0.000   0.000	  1
  0.000   8.4     0.000   1
  0.000   0.000     25.2 1
%endblock LatticeVectors
AtomicCoordinatesFormat Ang
%block AtomicCoordinatesAndAtomicSpecies
0.0 0.0 0.0 1 Au
0.0 0.0 2.8 1 Au
0.0 0.0 5.6 1 Au
0.0 0.0 8.4 1 Au
0.0 0.0 11.2 1 Au
0.0 0.0 14.0 1 Au
0.0 0.0 16.8 1 Au
0.0 0.0 19.6 1 Au
0.0 0.0 22.4 1 Au
%endblock AtomicCoordinatesAndAtomicSpecies 	
%block kgrid_Monkhorst_Pack
  2   0   0     0.0
  0   2   0     0.0
  0   0   1     0.0
%endblock kgrid_Monkhorst_Pack
%block GeometryConstraints
   position   from  1 to 3
   position   from  7 to 9
%endblock GeometryConstraints
xc.functional		LDA		# 'LDA', 'GGA'
xc.authors 	 		CA		# 'CA'='PZ', 'PW92', 'PBE'
SpinPolarized			F		# 'T', 'F'		
#FixSpin           F
#TotalSpin        0.0
NonCollinearSpin		F		# 'T', 'F'
MeshCutoff 	 		    200 Ry		# Equivalent plane wave cutoff for the grid
MaxSCFIterations                100
DM.MixingWeight			0.01
DM.NumberPulay			4	# Pulay convergency accelerator
DM.MixSCF1			    T
MixHamiltonian      T
DM.PulayOnFile			F		# Store in memory ('F') or in files ('T')
#DM.NumberKick         30
#DM.KickMixingWeight   0.1
DM.Tolerance 		1.0E-4
NeglNonOverlapInt		F		# 'F'=do not neglect
SolutionMethod			diagon
ElectronicTemperature		300 K		# Default value
DM.UseSaveDM 			T
#MD.UseSaveXV			T
#MD.UseSaveCG			T
WriteForces      T
WriteCoorXmol			T		# Write Atoms coordinates
SaveElectrostaticPotential      T
#SaveHS				T		# Save the Hamiltonian and Overlap matrices
SaveRho				T		# Save the valence pseudocharge density
#SaveDeltaRho			T
#WriteDenchar			T		# Write Denchar output
WriteMullikenPop		0 #write mulliken population of aromic and orbital charges
************************** End of input data file *****************************

reinit: -----------------------------------------------------------------------
reinit: System Name: au-chain_szv_dftenergy
reinit: -----------------------------------------------------------------------
reinit: System Label: au-chain_szv_dftenergy
reinit: -----------------------------------------------------------------------

initatom: Reading input for the pseudopotentials and atomic orbitals ----------
Species number:   1 Atomic number:   79 Label: Au
 
Ground state valence configuration:   6s01  5d10
Reading pseudopotential information in formatted form from Au.psf

Pseudopotential generated from a relativistic atomic calculation

Valence configuration for pseudopotential generation:
6s( 1.00) rc: 2.18
6p( 0.00) rc: 2.47
5d(10.00) rc: 1.79
5f( 0.00) rc: 2.00
relmxkb: Read Max KB Ang. Momentum=    3 for species Au
 Warning: Empty PAO shell. l =           1
 Will have a KB projector anyway...

<basis_specs>
===============================================================================
Au                   Z=  79    Mass=  196.97        Charge= 0.17977+309
Lmxo=2 Lmxkb= 3    BasisType=split      Semic=F
L=0  Nsemic=0  Cnfigmx=6
          i=1  nzeta=1  polorb=0  (6s)
            splnorm:   0.15000    
               vcte:    0.0000    
               rinn:    0.0000    
               qcoe:    0.0000    
               qyuk:    0.0000    
               qwid:   0.10000E-01
                rcs:    6.5000    
            lambdas:    1.0000    
L=1  Nsemic=0  Cnfigmx=6
L=2  Nsemic=0  Cnfigmx=5
          i=1  nzeta=1  polorb=0  (5d)
            splnorm:   0.15000    
               vcte:    0.0000    
               rinn:    0.0000    
               qcoe:    0.0000    
               qyuk:    0.0000    
               qwid:   0.10000E-01
                rcs:    5.8500    
            lambdas:    1.0000    
-------------------------------------------------------------------------------
L=0  Nkbl=1  erefs: 0.17977+309
L=1  Nkbl=1  erefs: 0.17977+309
L=2  Nkbl=1  erefs: 0.17977+309
L=3  Nkbl=1  erefs: 0.17977+309
===============================================================================
</basis_specs>

atom: Called for Au                    (Z =  79)

read_vps: Pseudopotential generation method:
read_vps: ATM3      Troullier-Martins                       
Total valence charge:   11.00000

read_vps: Pseudopotential includes a core correction:
read_vps: Pseudo-core for xc-correction

xc_check: Exchange-correlation functional:
xc_check: Ceperley-Alder
V l=0 = -2*Zval/r beyond r=  2.9833
V l=1 = -2*Zval/r beyond r=  2.9833
V l=2 = -2*Zval/r beyond r=  2.9833
V l=3 = -2*Zval/r beyond r=  2.9833
All V_l potentials equal beyond r=  2.4425
This should be close to max(r_c) in ps generation
All pots = -2*Zval/r beyond r=  2.9833

VLOCAL1: 99.0% of the norm of Vloc inside      7.276 Ry
VLOCAL1: 99.9% of the norm of Vloc inside     16.582 Ry
atom: Maximum radius for 4*pi*r*r*local-pseudopot. charge    2.94627
atom: Maximum radius for r*vlocal+2*Zval:    2.60007

KBgen: Kleinman-Bylander projectors: 
GHOST: No ghost state for L =  0
   l= 0   rc=  3.175745   el= -0.445638   Ekb=  5.072790   kbcos=  0.276607
GHOST: No ghost state for L =  1
   l= 1   rc=  3.256140   el= -0.066324   Ekb=  2.703235   kbcos=  0.227171
GHOST: No ghost state for L =  2
   l= 2   rc=  3.020861   el= -0.526103   Ekb= -4.704026   kbcos= -0.643795
GHOST: No ghost state for L =  3
   l= 3   rc=  3.466145   el=  0.003438   Ekb= -2.516122   kbcos= -0.010529

KBgen: Total number of  Kleinman-Bylander projectors:   16
atom: -------------------------------------------------------------------------

atom: SANKEY-TYPE ORBITALS:

SPLIT: Orbitals with angular momentum L= 0

SPLIT: Basis orbitals for state 6s

   izeta = 1
                 lambda =    1.000000
                     rc =    6.557093
                 energy =   -0.435455
                kinetic =    0.389259
    potential(screened) =   -0.824714
       potential(ionic) =   -8.467175

SPLIT: Orbitals with angular momentum L= 2

SPLIT: Basis orbitals for state 5d

   izeta = 1
                 lambda =    1.000000
                     rc =    5.933100
                 energy =   -0.524775
                kinetic =    4.913203
    potential(screened) =   -5.437978
       potential(ionic) =  -15.883506
atom: Total number of Sankey-type orbitals:  6

atm_pop: Valence configuration (for local Pseudopot. screening):
 6s( 1.00)                                                            
 6p( 0.00)                                                            
 5d(10.00)                                                            
Vna: chval, zval:   11.00000  11.00000

Vna:  Cut-off radius for the neutral-atom potential:   6.557093
comcore: Pseudo-core radius Rcore=  4.027091

atom: _________________________________________________________________________

prinput: Basis input ----------------------------------------------------------

PAO.BasisType split     

%block ChemicalSpeciesLabel
    1   79 Au                      # Species index, atomic number, species label
%endblock ChemicalSpeciesLabel

%block PAO.Basis                 # Define Basis set
Au                    2                    # Species label, number of l-shells
 n=6   0   1                         # n, l, Nzeta 
   6.557   
   1.000   
 n=5   2   1                         # n, l, Nzeta 
   5.933   
   1.000   
%endblock PAO.Basis

prinput: ----------------------------------------------------------------------

coor:   Atomic-coordinates input format  =     Cartesian coordinates
coor:                                          (in Angstroms)

siesta: Atomic coordinates (Bohr) and species
siesta:      0.00000   0.00000   0.00000  1        1
siesta:      0.00000   0.00000   5.29124  1        2
siesta:      0.00000   0.00000  10.58247  1        3
siesta:      0.00000   0.00000  15.87371  1        4
siesta:      0.00000   0.00000  21.16494  1        5
siesta:      0.00000   0.00000  26.45618  1        6
siesta:      0.00000   0.00000  31.74741  1        7
siesta:      0.00000   0.00000  37.03865  1        8
siesta:      0.00000   0.00000  42.32988  1        9

siesta: System type = chain     

initatomlists: Number of atoms, orbitals, and projectors:      9    54   144

coxmol: Writing XMOL coordinates into file au-chain_szv_dftenergy.xyz                                          

SMEAGOL: ******************* SMEAGOL Simulation parameters ********************
SMEAGOL:
SMEAGOL:       The following are some of the SMEAGOL parameters of the
SMEAGOL:       simulation. A complete list of the parameters used,
SMEAGOL:       including default values, can be found in file fdf.log.
SMEAGOL:
redata: Transport in extended molecule                =      F
redata: Write leads H and S matrices at .HSL          =      F
redata: Set bulk transversal cell                     =      F
redata: Init transport                                =      F
redata: Write converged DM (at bias/MD selected step) =      F
redata: Hartree Leads Left                            =      0.0000 Bohr
redata: Hartree Leads Right                           =      0.0000 Bohr
redata: Hartree Leads Bottom                          =      0.0000 Ry
redata: Periodic leads in perpendicular directions    =      F
redata: LDA+U calculation?                            =      F
redata: DMFT calculation?                            =      F
redata: mix de Hamiltonian            =      T
redata: ***********************************************************************

siesta: ******************** Simulation parameters ****************************
siesta:
siesta: The following are some of the parameters of the simulation.
siesta: A complete list of the parameters used, including default values,
siesta: can be found in file out.fdf
siesta:
redata: Spin configuration                          = none
redata: Number of spin components                   = 1
redata: Time-Reversal Symmetry                      = T
redata: Spin-spiral                                 = F
redata: Long output                                 =   F
redata: Number of Atomic Species                    =        1
redata: Charge density info will appear in .RHO file
redata: Write Mulliken Pop.                         = NO
redata: Matel table size (NRTAB)                    =     1024
redata: Mesh Cutoff                                 =   200.0000 Ry
redata: Net charge of the system                    =     0.0000 |e|
redata: Min. number of SCF Iter                     =        0
redata: Max. number of SCF Iter                     =      100
redata: SCF convergence failure will abort job
redata: SCF mix quantity                            = Hamiltonian
redata: Mix DM or H after convergence               =   F
redata: Recompute H after scf cycle                 =   F
redata: Mix DM in first SCF step                    =   T
redata: Write Pulay info on disk                    =   F
redata: New DM Mixing Weight                        =     0.0100
redata: New DM Occupancy tolerance                  = 0.000000000001
redata: No kicks to SCF
redata: DM Mixing Weight for Kicks                  =     0.5000
redata: Require Harris convergence for SCF          =   F
redata: Harris energy tolerance for SCF             =     0.000100 eV
redata: Require DM convergence for SCF              =   T
redata: DM tolerance for SCF                        =     0.000100
redata: Require EDM convergence for SCF             =   F
redata: EDM tolerance for SCF                       =     0.001000 eV
redata: Require H convergence for SCF               =   T
redata: Hamiltonian tolerance for SCF               =     0.001000 eV
redata: Require (free) Energy convergence for SCF   =   F
redata: (free) Energy tolerance for SCF             =     0.000100 eV
redata: Using Saved Data (generic)                  =   F
redata: Use continuation files for DM               =   T
redata: Neglect nonoverlap interactions             =   F
redata: Method of Calculation                       = Diagonalization
redata: Electronic Temperature                      =   299.9978 K
redata: Fix the spin of the system                  =   F
redata: Max. number of TDED Iter                    =        1
redata: Number of TDED substeps                     =        3
redata: Dynamics option                             = Single-point calculation
mix.SCF: Pulay mixing                            = Pulay
mix.SCF:    Variant                              = stable
mix.SCF:    History steps                        = 4
mix.SCF:    Linear mixing weight                 =     0.010000
mix.SCF:    Mixing weight                        =     0.010000
mix.SCF:    SVD condition                        = 0.1000E-07
redata: ***********************************************************************

%block SCF.Mixers
  Pulay
%endblock SCF.Mixers

%block SCF.Mixer.Pulay
  # Mixing method
  method pulay
  variant stable

  # Mixing options
  weight 0.0100
  weight.linear 0.0100
  history 4
%endblock SCF.Mixer.Pulay
 
DM_history_depth set to one: no extrapolation allowed by default for geometry relaxation
Size of DM history Fstack: 1
Total number of electrons:    99.000000
Total ionic charge:    99.000000

* ProcessorY, Blocksize:    1  24


* Orbital distribution balance (max,min):    30    24

k-point displ. along   1 input, could be:     0.00    0.50
k-point displ. along   2 input, could be:     0.00    0.50
 Kpoints in:            4 . Kpoints trimmed:            4

siesta: k-grid: Number of k-points =         4
siesta: k-points from Monkhorst-Pack grid
siesta: k-cutoff (effective) =     8.400 Ang
siesta: k-point supercell and displacements
siesta: k-grid:    2   0   0      0.000
siesta: k-grid:    0   2   0      0.000
siesta: k-grid:    0   0   1      0.000
 
diag: Algorithm                                     = D&C
diag: Parallel over k                               =   F
diag: Use parallel 2D distribution                  =   F
diag: Parallel block-size                           = 24
diag: Parallel distribution                         =     1 x     2
diag: Used triangular part                          = Lower
diag: Absolute tolerance                            =  0.100E-15
diag: Orthogonalization factor                      =  0.100E-05
diag: Memory factor                                 =  1.0000

superc: Internal auxiliary supercell:     1 x     1 x     3  =       3
superc: Number of atoms, orbitals, and projectors:     27    162    432
 
siesta: Constraints applied in the following order:
siesta: Constraint (3): pos
  [ 1 -- 3 ]
siesta: Constraint (3): pos
  [ 7 -- 9 ]
 
 
ts: **************************************************************
ts: Save H and S matrices                           =    F
ts: Save DM and EDM matrices                        =    F
ts: Fix Hartree potential                           =    F
ts: Only save the overlap matrix S                  =    F
ts: **************************************************************
 
************************ Begin: TS CHECKS AND WARNINGS ************************
************************ End: TS CHECKS AND WARNINGS **************************


                     ====================================
                        Single-point calculation
                     ====================================

superc: Internal auxiliary supercell:     1 x     1 x     3  =       3
superc: Number of atoms, orbitals, and projectors:     27    162    432

outcell: Unit cell vectors (Ang):
        8.400000    0.000000    0.000000
        0.000000    8.400000    0.000000
        0.000000    0.000000   25.200000

outcell: Cell vector modules (Ang)   :    8.400000    8.400000   25.200000
outcell: Cell angles (23,13,12) (deg):     90.0000     90.0000     90.0000
outcell: Cell volume (Ang**3)        :   1778.1120
<dSpData1D:S at geom step 0
  <sparsity:sparsity for geom step 0
    nrows_g=54 nrows=30 sparsity=.3086 nnzs=900, refcount: 7>
  <dData1D:(new from dSpData1D) n=900, refcount: 1>
refcount: 1>
new_DM -- step:     1
Initializing Density Matrix...
 
Attempting to read DM from file... Failed...
DM filled with atomic data:
<dSpData2D:DM initialized from atoms
  <sparsity:sparsity for geom step 0
    nrows_g=54 nrows=30 sparsity=.3086 nnzs=900, refcount: 8>
  <dData2D:DM n=900 m=1, refcount: 1>
refcount: 1>
No. of atoms with KB's overlaping orbs in proc 0. Max # of overlaps:       9      18
New grid distribution:   1
           1       1:   36    1:   36    1:   54
           2       1:   36    1:   36   55:  108

InitMesh: MESH =    72 x    72 x   216 =     1119744
InitMesh: (bp) =    36 x    36 x   108 =      139968
InitMesh: Mesh cutoff (required, used) =   200.000   203.052 Ry
ExtMesh (bp) on 0 =    96 x    96 x   114 =     1050624
New grid distribution:   2
           1       1:   36    1:   36    1:   54
           2       1:   36    1:   36   55:  108
New grid distribution:   3
           1       1:   36    1:   36    1:   54
           2       1:   36    1:   36   55:  108
Setting up quadratic distribution...
ExtMesh (bp) on 0 =    96 x    96 x   114 =     1050624
PhiOnMesh: Number of (b)points on node 0 =                69984
PhiOnMesh: nlist on node 0 =               315254

stepf: Fermi-Dirac step function

siesta: Program's energy decomposition (eV):
siesta: Ebs     =      -801.715654
siesta: Eions   =     10845.004161
siesta: Ena     =       617.117147
siesta: Ekin    =      5906.263204
siesta: Enl     =     -2270.309670
siesta: Eso     =         0.000000
siesta: Eldau   =         0.000000
siesta: DEna    =        47.110674
siesta: DUscf   =         3.424268
siesta: DUext   =         0.000000
siesta: Enegf   =         0.000000
siesta: Exc     =     -3702.879443
siesta: eta*DQ  =         0.000000
siesta: Emadel  =         0.000000
siesta: Emeta   =         0.000000
siesta: Emolmec =         0.000000
siesta: Ekinion =         0.000000
siesta: Eharris =    -10244.863984
siesta: Etot    =    -10244.277981
siesta: FreeEng =    -10244.336162

        iscf     Eharris(eV)        E_KS(eV)     FreeEng(eV)     dDmax    Ef(eV) dHmax(eV)
   scf:    1   -10244.863984   -10244.277981   -10244.336162  0.403709 -5.426492  2.164907
timer: Routine,Calls,Time,% = IterSCF        1       0.357  37.45
   scf:    2   -10248.844461   -10244.906477   -10244.964627  0.433470 -6.730234  1.889345
   scf:    3   -10243.452991   -10244.919926   -10244.978158  0.278983 -5.644755  1.600841
   scf:    4   -10244.084321   -10245.136264   -10245.194414  0.249755 -6.640524  1.493764
   scf:    5   -10243.956961   -10245.096957   -10245.155255  0.230961 -5.735468  1.393538
   scf:    6   -10244.295955   -10245.210393   -10245.268543  0.219877 -6.610114  1.351976
   scf:    7   -10244.130841   -10245.156177   -10245.214514  0.212632 -5.770763  1.316209
   scf:    8   -10244.373553   -10245.236744   -10245.294894  0.208603 -6.598909  1.315612
   scf:    9   -10244.147259   -10245.162019   -10245.220378  0.205946 -5.783987  1.716894
   scf:   10   -10238.322585   -10243.272000   -10243.329252  0.335321 -6.527089  5.582876
   scf:   11    -9742.565380   -10083.574097   -10083.648158  1.620766 -2.509582 62.009516
   scf:   12    -8674.706602    -9791.784204    -9791.842361  1.892821 19.263937132.085856
   scf:   13    -8867.172779    -9868.032688    -9868.090834  1.892822 23.859080136.796352
   scf:   14    -8652.913776    -9796.329944    -9796.388091  1.871518 23.847385136.179789
   scf:   15    -8851.828141    -9862.905228    -9862.963375  1.871518 23.853835136.180079
   scf:   16    -8663.084853    -9799.737112    -9799.795259  1.859026 23.848013135.712445
   scf:   17    -8838.796377    -9858.546953    -9858.605100  1.859026 23.853808135.712589
   scf:   18    -8672.128919    -9802.766397    -9802.824544  1.847482 23.848470135.291554
   scf:   19    -8827.633988    -9854.813468    -9854.871615  1.847482 23.853718135.291662
   scf:   20    -8680.171018    -9805.459796    -9805.517943  1.836874 23.848866134.913004
   scf:   21    -8818.015429    -9851.596082    -9851.654229  1.836874 23.853596134.913084
   scf:   22    -8687.328174    -9807.856620    -9807.914767  1.827162 23.849209134.572611
   scf:   23    -8809.682561    -9848.808563    -9848.866710  1.827162 23.853459134.572669
   scf:   24    -8693.704647    -9809.991865    -9810.050012  1.818296 23.849508134.266496
   scf:   25    -8802.429922    -9846.382212    -9846.440359  1.818296 23.853319134.266536
   scf:   26    -8699.391470    -9811.896068    -9811.954214  1.810219 23.849769133.991164
   scf:   27    -8796.092589    -9844.261992    -9844.320139  1.810219 23.853181133.991190
   scf:   28    -8704.467686    -9813.595722    -9813.653869  1.802875 23.849997133.743501
   scf:   29    -8790.536648    -9842.403084    -9842.461231  1.802875 23.853050133.743516
   scf:   30    -8709.002017    -9815.113860    -9815.172006  1.796207 23.850197133.520732
   scf:   31    -8785.652237    -9840.768798    -9840.826945  1.796207 23.852926133.520740
   scf:   32    -8713.054427    -9816.470577    -9816.528724  1.790163 23.850372133.320380
   scf:   33    -8781.348234    -9839.328652    -9839.386798  1.790163 23.852811133.320381
   scf:   34    -8716.677479    -9817.683531    -9817.741678  1.784692 23.850526133.140241
   scf:   35    -8777.548315    -9838.057122    -9838.115269  1.784692 23.852705133.140238
   scf:   36    -8719.917443    -9818.768200    -9818.826347  1.779745 23.850662132.978321
   scf:   37    -8774.188043    -9836.932687    -9836.990834  1.779745 23.852608132.978315
   scf:   38    -8722.815227    -9819.738291    -9819.796437  1.775277 23.850782132.832830
   scf:   39    -8771.212497    -9835.936954    -9835.995101  1.775277 23.852520132.832821
   scf:   40    -8725.407128    -9820.605961    -9820.664107  1.771246 23.850888132.702152
   scf:   41    -8768.574664    -9835.054225    -9835.112371  1.771246 23.852439132.702143
   scf:   42    -8727.725432    -9821.382025    -9821.440172  1.767614 23.850981132.584829
   scf:   43    -8766.233963    -9834.270913    -9834.329060  1.767614 23.852366132.584818
   scf:   44    -8729.798929    -9822.076128    -9822.134274  1.764343 23.851064132.479539
   scf:   45    -8764.155240    -9833.575253    -9833.633400  1.764343 23.852300132.479528
   scf:   46    -8731.653331    -9822.696878    -9822.755025  1.761400 23.851137132.385087
   scf:   47    -8762.307924    -9832.957032    -9833.015179  1.761400 23.852241132.385076
   scf:   48    -8733.311629    -9823.251975    -9823.310122  1.758754 23.851202132.300392
   scf:   49    -8760.665297    -9832.407305    -9832.465452  1.758754 23.852187132.300381
   scf:   50    -8734.794397    -9823.748310    -9823.806457  1.756377 23.851260132.224475
   scf:   51    -8759.203931    -9831.918214    -9831.976361  1.756377 23.852139132.224465
   scf:   52    -8736.120060    -9824.192051    -9824.250198  1.754243 23.851311132.156452
   scf:   53    -8757.903317    -9831.482934    -9831.541081  1.754243 23.852095132.156442
   scf:   54    -8737.305121    -9824.588725    -9824.646872  1.752329 23.851356132.095523
   scf:   55    -8756.745336    -9831.095388    -9831.153535  1.752329 23.852056132.095513
   scf:   56    -8738.364367    -9824.943281    -9825.001428  1.750612 23.851396132.040965
   scf:   57    -8755.714024    -9830.750231    -9830.808378  1.750612 23.852021132.040957
   scf:   58    -8739.311045    -9825.260156    -9825.318302  1.749073 23.851432131.992128
   scf:   59    -8754.795278    -9830.442745    -9830.500892  1.749073 23.851990131.992120
   scf:   60    -8740.157022    -9825.543321    -9825.601468  1.747693 23.851464131.948424
   scf:   61    -8753.976622    -9830.168756    -9830.226903  1.747693 23.851962131.948416
   scf:   62    -8740.912930    -9825.796338    -9825.854484  1.746458 23.851492131.909322
   scf:   63    -8753.247005    -9829.924565    -9829.982712  1.746458 23.851937131.909315
   scf:   64    -8741.588291    -9826.022392    -9826.080539  1.745353 23.851518131.874347
   scf:   65    -8752.596630    -9829.706894    -9829.765040  1.745353 23.851914131.874340
   scf:   66    -8742.191631    -9826.224339    -9826.282485  1.744363 23.851540131.843070
   scf:   67    -8752.016802    -9829.512833    -9829.570979  1.744363 23.851894131.843064
   scf:   68    -8742.730584    -9826.404733    -9826.462880  1.743477 23.851560131.815104
   scf:   69    -8751.499801    -9829.339798    -9829.397945  1.743477 23.851876131.815099
   scf:   70    -8743.211983    -9826.565863    -9826.624010  1.742685 23.851578131.790105
   scf:   71    -8751.038764    -9829.185494    -9829.243640  1.742685 23.851860131.790100
   scf:   72    -8743.641942    -9826.709775    -9826.767922  1.741977 23.851594131.767760
   scf:   73    -8750.627593    -9829.047878    -9829.106025  1.741977 23.851845131.767756
   scf:   74    -8744.025932    -9826.838300    -9826.896447  1.741343 23.851608131.747792
   scf:   75    -8750.260861    -9828.925136    -9828.983283  1.741343 23.851832131.747788
   scf:   76    -8744.368847    -9826.953077    -9827.011223  1.740777 23.851620131.729949
   scf:   77    -8749.933739    -9828.815650    -9828.873797  1.740777 23.851821131.729945
   scf:   78    -8744.675064    -9827.055569    -9827.113716  1.740271 23.851631131.714007
   scf:   79    -8749.641930    -9828.717984    -9828.776130  1.740271 23.851810131.714003
   scf:   80    -8744.948495    -9827.147089    -9827.205236  1.739819 23.851641131.699765
   scf:   81    -8749.381605    -9828.630854    -9828.689001  1.739819 23.851801131.699762
   scf:   82    -8745.192640    -9827.228806    -9827.286953  1.739414 23.851650131.687043
   scf:   83    -8749.149354    -9828.553121    -9828.611268  1.739414 23.851793131.687041
   scf:   84    -8745.410627    -9827.301767    -9827.359914  1.739053 23.851658131.675680
   scf:   85    -8748.942142    -9828.483768    -9828.541915  1.739053 23.851786131.675678
   scf:   86    -8745.605252    -9827.366909    -9827.425056  1.738731 23.851665131.665532
   scf:   87    -8748.757259    -9828.421888    -9828.480035  1.738731 23.851779131.665530
   scf:   88    -8745.779011    -9827.425067    -9827.483214  1.738442 23.851672131.656469
   scf:   89    -8748.592295    -9828.366675    -9828.424822  1.738442 23.851773131.656467
   scf:   90    -8745.934137    -9827.476989    -9827.535135  1.738185 23.851677131.648375
   scf:   91    -8748.445097    -9828.317409    -9828.375555  1.738185 23.851768131.648373
   scf:   92    -8746.072625    -9827.523341    -9827.581488  1.737955 23.851682131.641148
   scf:   93    -8748.313750    -9828.273447    -9828.331594  1.737955 23.851763131.641146
   scf:   94    -8746.196256    -9827.564721    -9827.622867  1.737750 23.851687131.634695
   scf:   95    -8748.196542    -9828.234218    -9828.292365  1.737750 23.851759131.634693
   scf:   96    -8746.306622    -9827.601660    -9827.659807  1.737567 23.851691131.628933
   scf:   97    -8748.091951    -9828.199211    -9828.257358  1.737567 23.851755131.628932
   scf:   98    -8746.405143    -9827.634636    -9827.692783  1.737403 23.851694131.623788
   scf:   99    -8747.998614    -9828.167972    -9828.226118  1.737403 23.851752131.623787
   scf:  100    -8746.493090    -9827.664072    -9827.722219  1.737257 23.851698131.619195
SCF_NOT_CONV: SCF did not converge in maximum number of steps (required).
Geom step, scf iteration, dmax:    0   100     9.673756
ABNORMAL_TERMINATION
Stopping Program from Node:    0
ABNORMAL_TERMINATION
Stopping Program from Node:    1
