ATOMS
H             0.00000000      0.00000000     -0.00998254            -0.00000567      0.65824531     -0.25828882
H             0.00000000      0.00000000      0.73998166            -0.00000567      0.65824531     -0.25828882
