     116
 i =        1, E =     -3518.3242619158
 Au         0.0000000000        0.0000000000        0.0000000000
 Au         0.0000000000        4.1460000000        0.0000000000
 Au         2.0730000000        2.0730000000        0.0000000000
 Au         2.0730000000        6.2190000000        0.0000000000
 Au         4.1460000000        0.0000000000        0.0000000000
 Au         4.1460000000        4.1460000000        0.0000000000
 Au         6.2190000000        2.0730000000        0.0000000000
 Au         6.2190000000        6.2190000000        0.0000000000
 Au         0.0000000000        2.0730000000        2.0730000000
 Au         0.0000000000        6.2190000000        2.0730000000
 Au         2.0730000000        0.0000000000        2.0730000000
 Au         2.0730000000        4.1460000000        2.0730000000
 Au         4.1460000000        2.0730000000        2.0730000000
 Au         4.1460000000        6.2190000000        2.0730000000
 Au         6.2190000000        0.0000000000        2.0730000000
 Au         6.2190000000        4.1460000000        2.0730000000
 Au         0.0000000000        0.0000000000        4.1460000000
 Au         0.0000000000        4.1460000000        4.1460000000
 Au         2.0730000000        2.0730000000        4.1460000000
 Au         2.0730000000        6.2190000000        4.1460000000
 Au         4.1460000000        0.0000000000        4.1460000000
 Au         4.1460000000        4.1460000000        4.1460000000
 Au         6.2190000000        2.0730000000        4.1460000000
 Au         6.2190000000        6.2190000000        4.1460000000
 Au         0.0000000000        2.0730000000        6.2190000000
 Au         0.0000000000        6.2190000000        6.2190000000
 Au         2.0730000000        0.0000000000        6.2190000000
 Au         2.0730000000        4.1460000000        6.2190000000
 Au         4.1460000000        2.0730000000        6.2190000000
 Au         4.1460000000        6.2190000000        6.2190000000
 Au         6.2190000000        0.0000000000        6.2190000000
 Au         6.2190000000        4.1460000000        6.2190000000
 Au         0.0000000000        0.0000000000        8.2920000000
 Au         0.0000000000        4.1460000000        8.2920000000
 Au         2.0730000000        2.0730000000        8.2920000000
 Au         2.0730000000        6.2190000000        8.2920000000
 Au         4.1460000000        0.0000000000        8.2920000000
 Au         4.1460000000        4.1460000000        8.2920000000
 Au         6.2190000000        2.0730000000        8.2920000000
 Au         6.2190000000        6.2190000000        8.2920000000
 Au        -0.0000041896        2.0730003802       10.3663171049
 Au        -0.0000014663        6.2189951610       10.3643027609
 Au         2.0729734162        0.0000700481       10.3642965595
 Au         2.0729709934        4.1459373562       10.3642891480
 Au         4.1459984591        2.0729932916       10.3613477206
 Au         4.1459986164        6.2189873323       10.3662278561
 Au         6.2190291834        0.0000702093       10.3642948883
 Au         6.2190316713        4.1459371985       10.3642873282
 Au         0.0000016558       -0.0003764052       12.4383186896
 Au         0.0000017295        4.1463835905       12.4383251323
 Au         2.0675458629        2.0730090103       12.4398021843
 Au         2.0725842276        6.2189991875       12.4383174520
 Au         4.1459997294       -0.0057993941       12.4391598955
 Au         4.1459999299        4.1517159750       12.4392312154
 Au         6.2244240671        2.0730092361       12.4398321781
 Au         6.2194167371        6.2189992773       12.4383184715
  S         4.1460768669        2.0732381945       14.1673616465
  C         4.1461333534        2.0780864438       15.9312799312
  H         2.0279511693        2.1029159915       16.1022824163
  H         6.2633416782        2.1029131990       16.1084754542
  C         2.9588714711        2.0817529050       16.6540541155
  C         5.3306150031        2.0817665112       16.6557873965
  C         2.9503297188        2.0622342228       18.0272343624
  C         5.3222054609        2.0622479745       18.0286113573
  H         2.0176623980        2.0410906904       18.5745299444
  H         6.2530320878        2.0410873379       18.5807215033
  C         4.1351197212        2.0659670184       18.7511471233
  S         4.1455483064        2.0727293149       20.5155157207
 Au        -0.0000045866       -0.0003839286       22.2446748101
 Au        -0.0000045606        4.1463760914       22.2446815198
 Au         2.0676310725        2.0729936618       22.2431130677
 Au         2.0725811096        6.2189975986       22.2446821012
 Au         4.1460034413       -0.0057052854       22.2437595605
 Au         4.1460036317        4.1518033806       22.2438430869
 Au         6.2245041027        2.0729939093       22.2432493855
 Au         6.2190000000        6.2190000000       22.2450000000
 Au         0.0000000000        2.0730000000       24.3180000000
 Au         0.0000000000        6.2190000000       24.3180000000
 Au         2.0730000000        0.0000000000       24.3180000000
 Au         2.0730000000        4.1460000000       24.3180000000
 Au         4.1460000000        2.0730000000       24.3180000000
 Au         4.1460000000        6.2190000000       24.3180000000
 Au         6.2190000000        0.0000000000       24.3180000000
 Au         6.2190000000        4.1460000000       24.3180000000
 Au         0.0000000000        0.0000000000       26.3910000000
 Au         0.0000000000        4.1460000000       26.3910000000
 Au         2.0730000000        2.0730000000       26.3910000000
 Au         2.0730000000        6.2190000000       26.3910000000
 Au         4.1460000000        0.0000000000       26.3910000000
 Au         4.1460000000        4.1460000000       26.3910000000
 Au         6.2190000000        2.0730000000       26.3910000000
 Au         6.2190000000        6.2190000000       26.3910000000
 Au         0.0000000000        2.0730000000       28.4640000000
 Au         0.0000000000        6.2190000000       28.4640000000
 Au         2.0730000000        0.0000000000       28.4640000000
 Au         2.0730000000        4.1460000000       28.4640000000
 Au         4.1460000000        2.0730000000       28.4640000000
 Au         4.1460000000        6.2190000000       28.4640000000
 Au         6.2190000000        0.0000000000       28.4640000000
 Au         6.2190000000        4.1460000000       28.4640000000
 Au         0.0000000000        0.0000000000       30.5370000000
 Au         0.0000000000        4.1460000000       30.5370000000
 Au         2.0730000000        2.0730000000       30.5370000000
 Au         2.0730000000        6.2190000000       30.5370000000
 Au         4.1460000000        0.0000000000       30.5370000000
 Au         4.1460000000        4.1460000000       30.5370000000
 Au         6.2190000000        2.0730000000       30.5370000000
 Au         6.2190000000        6.2190000000       30.5370000000
 Au         0.0000000000        2.0730000000       32.6100000000
 Au         0.0000000000        6.2190000000       32.6100000000
 Au         2.0730000000        0.0000000000       32.6100000000
 Au         2.0730000000        4.1460000000       32.6100000000
 Au         4.1460000000        2.0730000000       32.6100000000
 Au         4.1460000000        6.2190000000       32.6100000000
 Au         6.2190000000        0.0000000000       32.6100000000
 Au         6.2190000000        4.1460000000       32.6100000000
     116
 i =        2, E =     -3518.3293309489
 Au         0.0000000000        0.0000000000        0.0000000000
 Au         0.0000000000        4.1460000000        0.0000000000
 Au         2.0730000000        2.0730000000        0.0000000000
 Au         2.0730000000        6.2190000000        0.0000000000
 Au         4.1460000000        0.0000000000        0.0000000000
 Au         4.1460000000        4.1460000000        0.0000000000
 Au         6.2190000000        2.0730000000        0.0000000000
 Au         6.2190000000        6.2190000000        0.0000000000
 Au         0.0000000000        2.0730000000        2.0730000000
 Au         0.0000000000        6.2190000000        2.0730000000
 Au         2.0730000000        0.0000000000        2.0730000000
 Au         2.0730000000        4.1460000000        2.0730000000
 Au         4.1460000000        2.0730000000        2.0730000000
 Au         4.1460000000        6.2190000000        2.0730000000
 Au         6.2190000000        0.0000000000        2.0730000000
 Au         6.2190000000        4.1460000000        2.0730000000
 Au         0.0000000000        0.0000000000        4.1460000000
 Au         0.0000000000        4.1460000000        4.1460000000
 Au         2.0730000000        2.0730000000        4.1460000000
 Au         2.0730000000        6.2190000000        4.1460000000
 Au         4.1460000000        0.0000000000        4.1460000000
 Au         4.1460000000        4.1460000000        4.1460000000
 Au         6.2190000000        2.0730000000        4.1460000000
 Au         6.2190000000        6.2190000000        4.1460000000
 Au         0.0000000000        2.0730000000        6.2190000000
 Au         0.0000000000        6.2190000000        6.2190000000
 Au         2.0730000000        0.0000000000        6.2190000000
 Au         2.0730000000        4.1460000000        6.2190000000
 Au         4.1460000000        2.0730000000        6.2190000000
 Au         4.1460000000        6.2190000000        6.2190000000
 Au         6.2190000000        0.0000000000        6.2190000000
 Au         6.2190000000        4.1460000000        6.2190000000
 Au         0.0000000000        0.0000000000        8.2920000000
 Au         0.0000000000        4.1460000000        8.2920000000
 Au         2.0730000000        2.0730000000        8.2920000000
 Au         2.0730000000        6.2190000000        8.2920000000
 Au         4.1460000000        0.0000000000        8.2920000000
 Au         4.1460000000        4.1460000000        8.2920000000
 Au         6.2190000000        2.0730000000        8.2920000000
 Au         6.2190000000        6.2190000000        8.2920000000
 Au        -0.0000007364        2.0730052112       10.3752807624
 Au        -0.0000044557        6.2189634712       10.3595265767
 Au         2.0729879714        0.0008828990       10.3595971372
 Au         2.0729769341        4.1451800960       10.3595368292
 Au         4.1460065936        2.0729426804       10.3380892136
 Au         4.1459904300        6.2188689109       10.3743533222
 Au         6.2190124242        0.0008885055       10.3596041036
 Au         6.2190239140        4.1451745311       10.3595429723
 Au         0.0000048088       -0.0039935946       12.4408586381
 Au         0.0000052908        4.1500552132       12.4409167681
 Au         2.0297723263        2.0730578685       12.4532958726
 Au         2.0686333392        6.2189944662       12.4408608841
 Au         4.1459946258       -0.0463275350       12.4474545769
 Au         4.1459956524        4.1916465085       12.4480783772
 Au         6.2622036725        2.0730589200       12.4533290961
 Au         6.2233669329        6.2189950065       12.4408684843
  S         4.1461115902        2.0752121207       14.1748289983
  C         4.1411282383        2.0846864390       15.9424108429
  H         1.9979365631        2.0995854646       16.0928737819
  H         6.2952643426        2.0995868552       16.0999317420
  C         2.9463167995        2.0781673048       16.6367385372
  C         5.3374704822        2.0781813313       16.6431144729
  C         2.9439978307        2.0658668047       18.0396371259
  C         5.3351282546        2.0658381932       18.0453718938
  H         1.9856426061        2.0444360976       18.5831578677
  H         6.2828673907        2.0444418997       18.5899054164
  C         4.1410818605        2.0597300133       18.7414987823
  S         4.1428672742        2.0705148450       20.5073562927
 Au        -0.0000401933       -0.0038356091       22.2420279026
 Au        -0.0000403755        4.1497663506       22.2420874112
 Au         2.0297238537        2.0729692607       22.2289773487
 Au         2.0688272741        6.2189801789       22.2420470074
 Au         4.1460287922       -0.0460137749       22.2345623308
 Au         4.1460300310        4.1927926471       22.2352832795
 Au         6.2630718511        2.0729706087       22.2298561946
 Au         6.2190000000        6.2190000000       22.2450000000
 Au         0.0000000000        2.0730000000       24.3180000000
 Au         0.0000000000        6.2190000000       24.3180000000
 Au         2.0730000000        0.0000000000       24.3180000000
 Au         2.0730000000        4.1460000000       24.3180000000
 Au         4.1460000000        2.0730000000       24.3180000000
 Au         4.1460000000        6.2190000000       24.3180000000
 Au         6.2190000000        0.0000000000       24.3180000000
 Au         6.2190000000        4.1460000000       24.3180000000
 Au         0.0000000000        0.0000000000       26.3910000000
 Au         0.0000000000        4.1460000000       26.3910000000
 Au         2.0730000000        2.0730000000       26.3910000000
 Au         2.0730000000        6.2190000000       26.3910000000
 Au         4.1460000000        0.0000000000       26.3910000000
 Au         4.1460000000        4.1460000000       26.3910000000
 Au         6.2190000000        2.0730000000       26.3910000000
 Au         6.2190000000        6.2190000000       26.3910000000
 Au         0.0000000000        2.0730000000       28.4640000000
 Au         0.0000000000        6.2190000000       28.4640000000
 Au         2.0730000000        0.0000000000       28.4640000000
 Au         2.0730000000        4.1460000000       28.4640000000
 Au         4.1460000000        2.0730000000       28.4640000000
 Au         4.1460000000        6.2190000000       28.4640000000
 Au         6.2190000000        0.0000000000       28.4640000000
 Au         6.2190000000        4.1460000000       28.4640000000
 Au         0.0000000000        0.0000000000       30.5370000000
 Au         0.0000000000        4.1460000000       30.5370000000
 Au         2.0730000000        2.0730000000       30.5370000000
 Au         2.0730000000        6.2190000000       30.5370000000
 Au         4.1460000000        0.0000000000       30.5370000000
 Au         4.1460000000        4.1460000000       30.5370000000
 Au         6.2190000000        2.0730000000       30.5370000000
 Au         6.2190000000        6.2190000000       30.5370000000
 Au         0.0000000000        2.0730000000       32.6100000000
 Au         0.0000000000        6.2190000000       32.6100000000
 Au         2.0730000000        0.0000000000       32.6100000000
 Au         2.0730000000        4.1460000000       32.6100000000
 Au         4.1460000000        2.0730000000       32.6100000000
 Au         4.1460000000        6.2190000000       32.6100000000
 Au         6.2190000000        0.0000000000       32.6100000000
 Au         6.2190000000        4.1460000000       32.6100000000
     116
 i =        3, E =     -3518.3312507231
 Au         0.0000000000        0.0000000000        0.0000000000
 Au         0.0000000000        4.1460000000        0.0000000000
 Au         2.0730000000        2.0730000000        0.0000000000
 Au         2.0730000000        6.2190000000        0.0000000000
 Au         4.1460000000        0.0000000000        0.0000000000
 Au         4.1460000000        4.1460000000        0.0000000000
 Au         6.2190000000        2.0730000000        0.0000000000
 Au         6.2190000000        6.2190000000        0.0000000000
 Au         0.0000000000        2.0730000000        2.0730000000
 Au         0.0000000000        6.2190000000        2.0730000000
 Au         2.0730000000        0.0000000000        2.0730000000
 Au         2.0730000000        4.1460000000        2.0730000000
 Au         4.1460000000        2.0730000000        2.0730000000
 Au         4.1460000000        6.2190000000        2.0730000000
 Au         6.2190000000        0.0000000000        2.0730000000
 Au         6.2190000000        4.1460000000        2.0730000000
 Au         0.0000000000        0.0000000000        4.1460000000
 Au         0.0000000000        4.1460000000        4.1460000000
 Au         2.0730000000        2.0730000000        4.1460000000
 Au         2.0730000000        6.2190000000        4.1460000000
 Au         4.1460000000        0.0000000000        4.1460000000
 Au         4.1460000000        4.1460000000        4.1460000000
 Au         6.2190000000        2.0730000000        4.1460000000
 Au         6.2190000000        6.2190000000        4.1460000000
 Au         0.0000000000        2.0730000000        6.2190000000
 Au         0.0000000000        6.2190000000        6.2190000000
 Au         2.0730000000        0.0000000000        6.2190000000
 Au         2.0730000000        4.1460000000        6.2190000000
 Au         4.1460000000        2.0730000000        6.2190000000
 Au         4.1460000000        6.2190000000        6.2190000000
 Au         6.2190000000        0.0000000000        6.2190000000
 Au         6.2190000000        4.1460000000        6.2190000000
 Au         0.0000000000        0.0000000000        8.2920000000
 Au         0.0000000000        4.1460000000        8.2920000000
 Au         2.0730000000        2.0730000000        8.2920000000
 Au         2.0730000000        6.2190000000        8.2920000000
 Au         4.1460000000        0.0000000000        8.2920000000
 Au         4.1460000000        4.1460000000        8.2920000000
 Au         6.2190000000        2.0730000000        8.2920000000
 Au         6.2190000000        6.2190000000        8.2920000000
 Au         0.0000138803        2.0730114618       10.3788335171
 Au        -0.0000037434        6.2189508551       10.3575645643
 Au         2.0734241475        0.0018260824       10.3579484863
 Au         2.0734214899        4.1442689917       10.3578625004
 Au         4.1460158329        2.0729127142       10.3309936636
 Au         4.1459869808        6.2187563059       10.3771471091
 Au         6.2185697994        0.0018346699       10.3579659732
 Au         6.2185731752        4.1442605647       10.3578788213
 Au         0.0000045852       -0.0075099279       12.4424924175
 Au         0.0000053066        4.1536086810       12.4425779582
 Au         2.0133587251        2.0730547858       12.4610344289
 Au         2.0648068216        6.2189935861       12.4424725095
 Au         4.1459935281       -0.0642311814       12.4522229902
 Au         4.1459948657        4.2092506951       12.4531977956
 Au         6.2786919693        2.0730561396       12.4610104781
 Au         6.2271886954        6.2189943755       12.4424828745
  S         4.1460182869        2.0765605807       14.1735031012
  C         4.1423086981        2.0866973053       15.9397281187
  H         1.9883940967        2.0974564785       16.0901702582
  H         6.3014895293        2.0973923770       16.0994986777
  C         2.9311401423        2.0776456575       16.6475881679
  C         5.3518390615        2.0777308221       16.6516193257
  C         2.9300687265        2.0663618585       18.0314306147
  C         5.3503793058        2.0663987441       18.0348482043
  H         1.9796860806        2.0466436285       18.5834441949
  H         6.2925398880        2.0465756753       18.5924935061
  C         4.1397477599        2.0578694336       18.7435832815
  S         4.1416656976        2.0690542986       20.5084287354
 Au        -0.0000881709       -0.0069209594       22.2402441036
 Au        -0.0000887953        4.1528069674       22.2403305843
 Au         2.0124770791        2.0729915608       22.2207079796
 Au         2.0654418623        6.2189721078       22.2402192982
 Au         4.1459956214       -0.0643670440       22.2289253234
 Au         4.1459973752        4.2114567855       22.2300347269
 Au         6.2804736811        2.0729934560       22.2218950909
 Au         6.2190000000        6.2190000000       22.2450000000
 Au         0.0000000000        2.0730000000       24.3180000000
 Au         0.0000000000        6.2190000000       24.3180000000
 Au         2.0730000000        0.0000000000       24.3180000000
 Au         2.0730000000        4.1460000000       24.3180000000
 Au         4.1460000000        2.0730000000       24.3180000000
 Au         4.1460000000        6.2190000000       24.3180000000
 Au         6.2190000000        0.0000000000       24.3180000000
 Au         6.2190000000        4.1460000000       24.3180000000
 Au         0.0000000000        0.0000000000       26.3910000000
 Au         0.0000000000        4.1460000000       26.3910000000
 Au         2.0730000000        2.0730000000       26.3910000000
 Au         2.0730000000        6.2190000000       26.3910000000
 Au         4.1460000000        0.0000000000       26.3910000000
 Au         4.1460000000        4.1460000000       26.3910000000
 Au         6.2190000000        2.0730000000       26.3910000000
 Au         6.2190000000        6.2190000000       26.3910000000
 Au         0.0000000000        2.0730000000       28.4640000000
 Au         0.0000000000        6.2190000000       28.4640000000
 Au         2.0730000000        0.0000000000       28.4640000000
 Au         2.0730000000        4.1460000000       28.4640000000
 Au         4.1460000000        2.0730000000       28.4640000000
 Au         4.1460000000        6.2190000000       28.4640000000
 Au         6.2190000000        0.0000000000       28.4640000000
 Au         6.2190000000        4.1460000000       28.4640000000
 Au         0.0000000000        0.0000000000       30.5370000000
 Au         0.0000000000        4.1460000000       30.5370000000
 Au         2.0730000000        2.0730000000       30.5370000000
 Au         2.0730000000        6.2190000000       30.5370000000
 Au         4.1460000000        0.0000000000       30.5370000000
 Au         4.1460000000        4.1460000000       30.5370000000
 Au         6.2190000000        2.0730000000       30.5370000000
 Au         6.2190000000        6.2190000000       30.5370000000
 Au         0.0000000000        2.0730000000       32.6100000000
 Au         0.0000000000        6.2190000000       32.6100000000
 Au         2.0730000000        0.0000000000       32.6100000000
 Au         2.0730000000        4.1460000000       32.6100000000
 Au         4.1460000000        2.0730000000       32.6100000000
 Au         4.1460000000        6.2190000000       32.6100000000
 Au         6.2190000000        0.0000000000       32.6100000000
 Au         6.2190000000        4.1460000000       32.6100000000
     116
 i =        4, E =     -3518.3318708179
 Au         0.0000000000        0.0000000000        0.0000000000
 Au         0.0000000000        4.1460000000        0.0000000000
 Au         2.0730000000        2.0730000000        0.0000000000
 Au         2.0730000000        6.2190000000        0.0000000000
 Au         4.1460000000        0.0000000000        0.0000000000
 Au         4.1460000000        4.1460000000        0.0000000000
 Au         6.2190000000        2.0730000000        0.0000000000
 Au         6.2190000000        6.2190000000        0.0000000000
 Au         0.0000000000        2.0730000000        2.0730000000
 Au         0.0000000000        6.2190000000        2.0730000000
 Au         2.0730000000        0.0000000000        2.0730000000
 Au         2.0730000000        4.1460000000        2.0730000000
 Au         4.1460000000        2.0730000000        2.0730000000
 Au         4.1460000000        6.2190000000        2.0730000000
 Au         6.2190000000        0.0000000000        2.0730000000
 Au         6.2190000000        4.1460000000        2.0730000000
 Au         0.0000000000        0.0000000000        4.1460000000
 Au         0.0000000000        4.1460000000        4.1460000000
 Au         2.0730000000        2.0730000000        4.1460000000
 Au         2.0730000000        6.2190000000        4.1460000000
 Au         4.1460000000        0.0000000000        4.1460000000
 Au         4.1460000000        4.1460000000        4.1460000000
 Au         6.2190000000        2.0730000000        4.1460000000
 Au         6.2190000000        6.2190000000        4.1460000000
 Au         0.0000000000        2.0730000000        6.2190000000
 Au         0.0000000000        6.2190000000        6.2190000000
 Au         2.0730000000        0.0000000000        6.2190000000
 Au         2.0730000000        4.1460000000        6.2190000000
 Au         4.1460000000        2.0730000000        6.2190000000
 Au         4.1460000000        6.2190000000        6.2190000000
 Au         6.2190000000        0.0000000000        6.2190000000
 Au         6.2190000000        4.1460000000        6.2190000000
 Au         0.0000000000        0.0000000000        8.2920000000
 Au         0.0000000000        4.1460000000        8.2920000000
 Au         2.0730000000        2.0730000000        8.2920000000
 Au         2.0730000000        6.2190000000        8.2920000000
 Au         4.1460000000        0.0000000000        8.2920000000
 Au         4.1460000000        4.1460000000        8.2920000000
 Au         6.2190000000        2.0730000000        8.2920000000
 Au         6.2190000000        6.2190000000        8.2920000000
 Au         0.0000459047        2.0730303421       10.3791885872
 Au        -0.0000011020        6.2189509046       10.3569036228
 Au         2.0748627614        0.0039524735       10.3587762015
 Au         2.0748963618        4.1421651908       10.3586814828
 Au         4.1460257036        2.0728847588       10.3367802619
 Au         4.1459841179        6.2185333277       10.3759080845
 Au         6.2171240165        0.0039603886       10.3588067125
 Au         6.2170914540        4.1421577237       10.3587105410
 Au         0.0000058433       -0.0143768986       12.4446625558
 Au         0.0000069748        4.1605261035       12.4447673079
 Au         2.0066685292        2.0729756247       12.4692880494
 Au         2.0573162776        6.2189956638       12.4445786901
 Au         4.1459993255       -0.0722853946       12.4572523541
 Au         4.1460007878        4.2171482331       12.4586565756
 Au         6.2855073569        2.0729770097       12.4691545947
 Au         6.2346665148        6.2189968423       12.4445926827
  S         4.1457732124        2.0784128318       14.1669070688
  C         4.1439161555        2.0852565842       15.9461097823
  H         1.9895934456        2.0948604688       16.0927130482
  H         6.2950017135        2.0947342975       16.1039157366
  C         2.9295768218        2.0802170925       16.6465469051
  C         5.3574673508        2.0803558434       16.6473251327
  C         2.9240654565        2.0638690575       18.0356244309
  C         5.3520975147        2.0639791034       18.0365052852
  H         1.9869364012        2.0493152074       18.5787120200
  H         6.2919019113        2.0491580927       18.5900747488
  C         4.1376445318        2.0593212055       18.7359237745
  S         4.1409430483        2.0671292656       20.5148084887
 Au        -0.0002628137       -0.0127411508       22.2377176008
 Au        -0.0002644063        4.1585605558       22.2378215933
 Au         2.0036818301        2.0731021441       22.2116691715
 Au         2.0589963592        6.2189701147       22.2374521092
 Au         4.1457414179       -0.0737801111       22.2223778215
 Au         4.1457422228        4.2209582534       22.2239213417
 Au         6.2890730945        2.0731038315       22.2130337686
 Au         6.2190000000        6.2190000000       22.2450000000
 Au         0.0000000000        2.0730000000       24.3180000000
 Au         0.0000000000        6.2190000000       24.3180000000
 Au         2.0730000000        0.0000000000       24.3180000000
 Au         2.0730000000        4.1460000000       24.3180000000
 Au         4.1460000000        2.0730000000       24.3180000000
 Au         4.1460000000        6.2190000000       24.3180000000
 Au         6.2190000000        0.0000000000       24.3180000000
 Au         6.2190000000        4.1460000000       24.3180000000
 Au         0.0000000000        0.0000000000       26.3910000000
 Au         0.0000000000        4.1460000000       26.3910000000
 Au         2.0730000000        2.0730000000       26.3910000000
 Au         2.0730000000        6.2190000000       26.3910000000
 Au         4.1460000000        0.0000000000       26.3910000000
 Au         4.1460000000        4.1460000000       26.3910000000
 Au         6.2190000000        2.0730000000       26.3910000000
 Au         6.2190000000        6.2190000000       26.3910000000
 Au         0.0000000000        2.0730000000       28.4640000000
 Au         0.0000000000        6.2190000000       28.4640000000
 Au         2.0730000000        0.0000000000       28.4640000000
 Au         2.0730000000        4.1460000000       28.4640000000
 Au         4.1460000000        2.0730000000       28.4640000000
 Au         4.1460000000        6.2190000000       28.4640000000
 Au         6.2190000000        0.0000000000       28.4640000000
 Au         6.2190000000        4.1460000000       28.4640000000
 Au         0.0000000000        0.0000000000       30.5370000000
 Au         0.0000000000        4.1460000000       30.5370000000
 Au         2.0730000000        2.0730000000       30.5370000000
 Au         2.0730000000        6.2190000000       30.5370000000
 Au         4.1460000000        0.0000000000       30.5370000000
 Au         4.1460000000        4.1460000000       30.5370000000
 Au         6.2190000000        2.0730000000       30.5370000000
 Au         6.2190000000        6.2190000000       30.5370000000
 Au         0.0000000000        2.0730000000       32.6100000000
 Au         0.0000000000        6.2190000000       32.6100000000