 DBCSR| CPU Multiplication driver                                           XSMM
 DBCSR| Multrec recursion limit                                              512
 DBCSR| Multiplication stack size                                           1000
 DBCSR| Maximum elements for images                                    UNLIMITED
 DBCSR| Multiplicative factor virtual images                                   1
 DBCSR| Use multiplication densification                                       T
 DBCSR| Multiplication size stacks                                             3
 DBCSR| Use memory pool for CPU allocation                                     F
 DBCSR| Number of 3D layers                                               SINGLE
 DBCSR| Use MPI memory allocation                                              F
 DBCSR| Use RMA algorithm                                                      F
 DBCSR| Use Communication thread                                               T
 DBCSR| Communication thread load                                             87
 DBCSR| MPI: My node id                                                        0
 DBCSR| MPI: Number of nodes                                                 240
 DBCSR| OMP: Current number of threads                                         1
 DBCSR| OMP: Max number of threads                                             1
 DBCSR| Split modifier for TAS multiplication algorithm                  1.0E+00


  **** **** ******  **  PROGRAM STARTED AT               2023-03-23 20:16:37.428
 ***** ** ***  *** **   PROGRAM STARTED ON                 cn1059.scarf.rl.ac.uk
 **    ****   ******    PROGRAM STARTED BY                             scarf1157
 ***** **    ** ** **   PROGRAM PROCESS ID                                 25222
  **** **  *******  **  PROGRAM STARTED IN /work4/scd/scarf1157/work/testing/cp2
                                           k-smeagol/bdt/cp2k/hollow-site/transp
                                           ort-cp2k/5-4/geometry-ordered/3x3-4/s
                                           z/bulk_layers-4/transmission/exp/capa
                                           citor/sergey-equal/auto/kpoints-20/V-
                                           1_kpoints_bulk-4-4-20_em-4-4-1_hlb-au
                                           to_vacuum

 CP2K| version string:                 CP2K version 2022.1 (Development Version)
 CP2K| source code revision number:                                  git:e136ce5
 CP2K| cp2kflags: omp fftw3 libxc parallel mpi3 scalapack xsmm spglib           
 CP2K| is freely available from                            https://www.cp2k.org/
 CP2K| Program compiled at                          Thu  9 Mar 17:17:16 GMT 2023
 CP2K| Program compiled on                                 cn1108.scarf.rl.ac.uk
 CP2K| Program compiled for                                                local
 CP2K| Data directory path    /home/vol07/scarf1157/code/smeagol/cp2k-smeagol/sc
 CP2K| Input file name                                                  3_0V.inp

 GLOBAL| Force Environment number                                              1
 GLOBAL| Basis set file name                                        BASIS_MOLOPT
 GLOBAL| Potential file name                                      GTH_POTENTIALS
 GLOBAL| MM Potential file name                                     MM_POTENTIAL
 GLOBAL| Coordinate file name                                             em.xyz
 GLOBAL| Method name                                                        CP2K
 GLOBAL| Project name                                                         0V
 GLOBAL| Run type                                                         ENERGY
 GLOBAL| FFT library                                                       FFTW3
 GLOBAL| Diagonalization library                                       ScaLAPACK
 GLOBAL| Orthonormality check for eigenvectors                          DISABLED
 GLOBAL| Matrix multiplication library                                 ScaLAPACK
 GLOBAL| All-to-all communication in single precision                          F
 GLOBAL| FFTs using library dependent lengths                                  T
 GLOBAL| Grid backend                                                       AUTO
 GLOBAL| Global print level                                               MEDIUM
 GLOBAL| MPI I/O enabled                                                       T
 GLOBAL| Total number of message passing processes                           240
 GLOBAL| Number of threads for this process                                    1
 GLOBAL| This output is from process                                           0
 GLOBAL| Stack size for threads created by OpenMP (OMP_STACKSIZE)        default
 GLOBAL| CPU model name                         AMD EPYC 7502P 32-Core Processor
 GLOBAL| CPUID                                                              1002

 MEMORY| system memory details [Kb]
 MEMORY|                        rank 0           min           max       average
 MEMORY| MemTotal            263896984     263896980     263896984     263896982
 MEMORY| MemFree             134598228     118392256     209756648     160286117
 MEMORY| Buffers                  2568          2560          3444          2675
 MEMORY| Cached              108864264      37734132     128839924      86829187
 MEMORY| Slab                  1559716       1274640       1593760       1410901
 MEMORY| SReclaimable           953316        703800       1030188        850760
 MEMORY| MemLikelyFree       244418376     244418376     249019712     247968741


 *** Fundamental physical constants (SI units) ***

 *** Literature: B. J. Mohr and B. N. Taylor,
 ***             CODATA recommended values of the fundamental physical
 ***             constants: 2006, Web Version 5.1
 ***             http://physics.nist.gov/constants

 Speed of light in vacuum [m/s]                             2.99792458000000E+08
 Magnetic constant or permeability of vacuum [N/A**2]       1.25663706143592E-06
 Electric constant or permittivity of vacuum [F/m]          8.85418781762039E-12
 Planck constant (h) [J*s]                                  6.62606896000000E-34
 Planck constant (h-bar) [J*s]                              1.05457162825177E-34
 Elementary charge [C]                                      1.60217648700000E-19
 Electron mass [kg]                                         9.10938215000000E-31
 Electron g factor [ ]                                     -2.00231930436220E+00
 Proton mass [kg]                                           1.67262163700000E-27
 Fine-structure constant                                    7.29735253760000E-03
 Rydberg constant [1/m]                                     1.09737315685270E+07
 Avogadro constant [1/mol]                                  6.02214179000000E+23
 Boltzmann constant [J/K]                                   1.38065040000000E-23
 Atomic mass unit [kg]                                      1.66053878200000E-27
 Bohr radius [m]                                            5.29177208590000E-11

 *** Conversion factors ***

 [u] -> [a.u.]                                              1.82288848426455E+03
 [Angstrom] -> [Bohr] = [a.u.]                              1.88972613288564E+00
 [a.u.] = [Bohr] -> [Angstrom]                              5.29177208590000E-01
 [a.u.] -> [s]                                              2.41888432650478E-17
 [a.u.] -> [fs]                                             2.41888432650478E-02
 [a.u.] -> [J]                                              4.35974393937059E-18
 [a.u.] -> [N]                                              8.23872205491840E-08
 [a.u.] -> [K]                                              3.15774647902944E+05
 [a.u.] -> [kJ/mol]                                         2.62549961709828E+03
 [a.u.] -> [kcal/mol]                                       6.27509468713739E+02
 [a.u.] -> [Pa]                                             2.94210107994716E+13
 [a.u.] -> [bar]                                            2.94210107994716E+08
 [a.u.] -> [atm]                                            2.90362800883016E+08
 [a.u.] -> [eV]                                             2.72113838565563E+01
 [a.u.] -> [Hz]                                             6.57968392072181E+15
 [a.u.] -> [1/cm] (wave numbers)                            2.19474631370540E+05
 [a.u./Bohr**2] -> [1/cm]                                   5.14048714338585E+03
 

 CELL_TOP| Volume [angstrom^3]:                                      2946.850357
 CELL_TOP| Vector a [angstrom    10.420     0.000     0.000   |a| =    10.420000
 CELL_TOP| Vector b [angstrom     0.000     8.336     0.000   |b| =     8.336000
 CELL_TOP| Vector c [angstrom     0.000     0.000    33.926   |c| =    33.926000
 CELL_TOP| Angle (b,c), alpha [degree]:                                90.000000
 CELL_TOP| Angle (a,c), beta  [degree]:                                90.000000
 CELL_TOP| Angle (a,b), gamma [degree]:                                90.000000
 CELL_TOP| Numerically orthorhombic:                                         YES
 CELL_TOP| Periodicity                                                       XYZ

 GENERATE|  Preliminary Number of Bonds generated:                             0
 GENERATE|  Achieved consistency in connectivity generation.

 CELL| Volume [angstrom^3]:                                          2946.850357
 CELL| Vector a [angstrom]:      10.420     0.000     0.000   |a| =    10.420000
 CELL| Vector b [angstrom]:       0.000     8.336     0.000   |b| =     8.336000
 CELL| Vector c [angstrom]:       0.000     0.000    33.926   |c| =    33.926000
 CELL| Angle (b,c), alpha [degree]:                                    90.000000
 CELL| Angle (a,c), beta  [degree]:                                    90.000000
 CELL| Angle (a,b), gamma [degree]:                                    90.000000
 CELL| Numerically orthorhombic:                                             YES
 CELL| Periodicity                                                           XYZ

 CELL_REF| Volume [angstrom^3]:                                      2946.850357
 CELL_REF| Vector a [angstrom    10.420     0.000     0.000   |a| =    10.420000
 CELL_REF| Vector b [angstrom     0.000     8.336     0.000   |b| =     8.336000
 CELL_REF| Vector c [angstrom     0.000     0.000    33.926   |c| =    33.926000
 CELL_REF| Angle (b,c), alpha [degree]:                                90.000000
 CELL_REF| Angle (a,c), beta  [degree]:                                90.000000
 CELL_REF| Angle (a,b), gamma [degree]:                                90.000000
 CELL_REF| Numerically orthorhombic:                                         YES
 CELL_REF| Periodicity                                                       XYZ

 *******************************************************************************
                                    Kpoints
 *******************************************************************************
 BRILLOUIN| K-point scheme                                        Monkhorst-Pack
 BRILLOUIN| K-Point grid                                             4    4    1
 BRILLOUIN| Accuracy in Symmetry determination                      0.100000E-07
 BRILLOUIN| K-Point point group symmetrization                               OFF
 BRILLOUIN| Wavefunction type                                            COMPLEX
 BRILLOUIN| Use full k-point grid     
 BRILLOUIN| List of Kpoints [2 Pi/Bohr]                                       16
 BRILLOUIN| Number           Weight            X              Y              Z
 BRILLOUIN|     1           0.06250       -0.37500       -0.37500        0.00000
 BRILLOUIN|     2           0.06250       -0.37500       -0.12500        0.00000
 BRILLOUIN|     3           0.06250       -0.37500        0.12500        0.00000
 BRILLOUIN|     4           0.06250       -0.37500        0.37500        0.00000
 BRILLOUIN|     5           0.06250       -0.12500       -0.37500        0.00000
 BRILLOUIN|     6           0.06250       -0.12500       -0.12500        0.00000
 BRILLOUIN|     7           0.06250       -0.12500        0.12500        0.00000
 BRILLOUIN|     8           0.06250       -0.12500        0.37500        0.00000
 BRILLOUIN|     9           0.06250        0.12500       -0.37500        0.00000
 BRILLOUIN|    10           0.06250        0.12500       -0.12500        0.00000
 BRILLOUIN|    11           0.06250        0.12500        0.12500        0.00000
 BRILLOUIN|    12           0.06250        0.12500        0.37500        0.00000
 BRILLOUIN|    13           0.06250        0.37500       -0.37500        0.00000
 BRILLOUIN|    14           0.06250        0.37500       -0.12500        0.00000
 BRILLOUIN|    15           0.06250        0.37500        0.12500        0.00000
 BRILLOUIN|    16           0.06250        0.37500        0.37500        0.00000
 *******************************************************************************

 *******************************************************************************
 *******************************************************************************
 **                                                                           **
 **     #####                         ##              ##                      **
 **    ##   ##            ##          ##              ##                      **
 **   ##     ##                       ##            ######                    **
 **   ##     ##  ##   ##  ##   #####  ##  ##   ####   ##    #####    #####    **
 **   ##     ##  ##   ##  ##  ##      ## ##   ##      ##   ##   ##  ##   ##   **
 **   ##  ## ##  ##   ##  ##  ##      ####     ###    ##   ######   ######    **
 **    ##  ###   ##   ##  ##  ##      ## ##      ##   ##   ##       ##        **
 **     #######   #####   ##   #####  ##  ##  ####    ##    #####   ##        **
 **           ##                                                    ##        **
 **                                                                           **
 **                                                ... make the atoms dance   **
 **                                                                           **
 **            Copyright (C) by CP2K developers group (2000-2022)             **
 **                      J. Chem. Phys. 152, 194103 (2020)                    **
 **                                                                           **
 *******************************************************************************

 DFT| Spin restricted Kohn-Sham (RKS) calculation                            RKS
 DFT| Multiplicity                                                             1
 DFT| Number of spin states                                                    1
 DFT| Charge                                                                   0
 DFT| Self-interaction correction (SIC)                                       NO
 DFT| Cutoffs: density                                              1.000000E-10
 DFT|          gradient                                             1.000000E-10
 DFT|          tau                                                  1.000000E-10
 DFT|          cutoff_smoothing_range                               0.000000E+00
 DFT| XC density smoothing                                                  NONE
 DFT| XC derivatives                                                          PW

 FUNCTIONAL| PADE:
 FUNCTIONAL| S. Goedecker, M. Teter and J. Hutter, Phys. Rev. B 54, 1703 (1996) 


 QS| Method:                                                                 GPW
 QS| Density plane wave grid type                        NON-SPHERICAL FULLSPACE
 QS| Number of grid levels:                                                    4
 QS| Density cutoff [a.u.]:                                                200.0
 QS| Multi grid cutoff [a.u.]: 1) grid level                               200.0
 QS|                           2) grid level                                66.7
 QS|                           3) grid level                                22.2
 QS|                           4) grid level                                 7.4
 QS| Grid level progression factor:                                          3.0
 QS| Relative density cutoff [a.u.]:                                        20.0
 QS| Interaction thresholds: eps_pgf_orb:                                1.0E-05
 QS|                         eps_filter_matrix:                          0.0E+00
 QS|                         eps_core_charge:                            1.0E-12
 QS|                         eps_rho_gspace:                             1.0E-10
 QS|                         eps_rho_rspace:                             1.0E-10
 QS|                         eps_gvg_rspace:                             1.0E-05
 QS|                         eps_ppl:                                    1.0E-02
 QS|                         eps_ppnl:                                   1.0E-07


 ATOMIC KIND INFORMATION

  1. Atomic kind: Au                                    Number of atoms:      96

     Orbital Basis Set                                         SZV-MOLOPT-SR-GTH

       Number of orbital shell sets:                                           1
       Number of orbital shells:                                               3
       Number of primitive Cartesian functions:                                5
       Number of Cartesian basis functions:                                   10
       Number of spherical basis functions:                                    9
       Norm type:                                                              2

       Normalised Cartesian orbitals:

                        Set   Shell   Orbital            Exponent    Coefficient

                          1       1    2s                2.950008       0.074626
                                                         1.563057      -0.007898
                                                         0.666664      -0.297688
                                                         0.251083       0.136809
                                                         0.081714       0.088198

                          1       2    3px               2.950008       0.148824
                                                         1.563057       0.025430
                                                         0.666664      -0.123003
                                                         0.251083       0.033648
                                                         0.081714       0.059008
                          1       2    3py               2.950008       0.148824
                                                         1.563057       0.025430
                                                         0.666664      -0.123003
                                                         0.251083       0.033648
                                                         0.081714       0.059008
                          1       2    3pz               2.950008       0.148824
                                                         1.563057       0.025430
                                                         0.666664      -0.123003
                                                         0.251083       0.033648
                                                         0.081714       0.059008

                          1       3    4dx2              2.950008      -0.139595
                                                         1.563057       1.319655
                                                         0.666664       0.377081
                                                         0.251083       0.046872
                                                         0.081714       0.001393
                          1       3    4dxy              2.950008      -0.241786
                                                         1.563057       2.285709
                                                         0.666664       0.653124
                                                         0.251083       0.081185
                                                         0.081714       0.002412
                          1       3    4dxz              2.950008      -0.241786
                                                         1.563057       2.285709
                                                         0.666664       0.653124
                                                         0.251083       0.081185
                                                         0.081714       0.002412
                          1       3    4dy2              2.950008      -0.139595
                                                         1.563057       1.319655
                                                         0.666664       0.377081
                                                         0.251083       0.046872
                                                         0.081714       0.001393
                          1       3    4dyz              2.950008      -0.241786
                                                         1.563057       2.285709
                                                         0.666664       0.653124
                                                         0.251083       0.081185
                                                         0.081714       0.002412
                          1       3    4dz2              2.950008      -0.139595
                                                         1.563057       1.319655
                                                         0.666664       0.377081
                                                         0.251083       0.046872
                                                         0.081714       0.001393

       Atomic covalent radius [Angstrom]:                                  1.340

       Atomic van der Waals radius [Angstrom]:                             1.660

     GTH Potential information for                                  GTH-PADE-q11

       Description:                       Goedecker-Teter-Hutter pseudopotential
                                           Goedecker et al., PRB 54, 1703 (1996)
                                          Hartwigsen et al., PRB 58, 3641 (1998)
                                                      Krack, TCA 114, 145 (2005)

       Gaussian exponent of the core charge distribution:               1.436369
       Electronic configuration (s p d ...):                           1   0  10

       Parameters of the local part of the GTH pseudopotential:

                          rloc        C1          C2          C3          C4
                        0.590000   11.604428

       Parameters of the non-local part of the GTH pseudopotential:

                   l      r(l)      h(i,j,l)

                   0    0.521180    2.538614   -1.046137
                                   -1.046137    2.701113
                   1    0.630613    0.394853   -0.869592
                                   -0.869592    2.057831
                   2    0.440706   -4.719070    0.727771
                                    0.727771   -1.650429


 MOLECULE KIND INFORMATION


 All atoms are their own molecule, skipping detailed information


 TOTAL NUMBERS AND MAXIMUM NUMBERS

  Total number of            - Atomic kinds:                                   1
                             - Atoms:                                         96
                             - Shell sets:                                    96
                             - Shells:                                       288
                             - Primitive Cartesian functions:                480
                             - Cartesian basis functions:                    960
                             - Spherical basis functions:                    864

  Maximum angular momentum of- Orbital basis functions:                        2
                             - Local part of the GTH pseudopotential:          0
                             - Non-local part of the GTH pseudopotential:      4


 MODULE QUICKSTEP: ATOMIC COORDINATES IN ANGSTROM

   Atom Kind Element         X             Y             Z       Z(eff)     Mass
      1    1 Au   79      0.000000      0.000000      0.000000  11.0000 196.9666
      2    1 Au   79      0.000000      4.168000      0.000000  11.0000 196.9666
      3    1 Au   79      2.084000      2.084000      0.000000  11.0000 196.9666
      4    1 Au   79      2.084000      6.252000      0.000000  11.0000 196.9666
      5    1 Au   79      4.168000      0.000000      0.000000  11.0000 196.9666
      6    1 Au   79      4.168000      4.168000      0.000000  11.0000 196.9666
      7    1 Au   79      6.252000      2.084000      0.000000  11.0000 196.9666
      8    1 Au   79      6.252000      6.252000      0.000000  11.0000 196.9666
      9    1 Au   79      0.000000      2.084000      2.084000  11.0000 196.9666
     10    1 Au   79      0.000000      6.252000      2.084000  11.0000 196.9666
     11    1 Au   79      2.084000      0.000000      2.084000  11.0000 196.9666
     12    1 Au   79      2.084000      4.168000      2.084000  11.0000 196.9666
     13    1 Au   79      4.168000      2.084000      2.084000  11.0000 196.9666
     14    1 Au   79      4.168000      6.252000      2.084000  11.0000 196.9666
     15    1 Au   79      6.252000      0.000000      2.084000  11.0000 196.9666
     16    1 Au   79      6.252000      4.168000      2.084000  11.0000 196.9666
     17    1 Au   79      0.000000      0.000000      4.168000  11.0000 196.9666
     18    1 Au   79      0.000000      4.168000      4.168000  11.0000 196.9666
     19    1 Au   79      2.084000      2.084000      4.168000  11.0000 196.9666
     20    1 Au   79      2.084000      6.252000      4.168000  11.0000 196.9666
     21    1 Au   79      4.168000      0.000000      4.168000  11.0000 196.9666
     22    1 Au   79      4.168000      4.168000      4.168000  11.0000 196.9666
     23    1 Au   79      6.252000      2.084000      4.168000  11.0000 196.9666
     24    1 Au   79      6.252000      6.252000      4.168000  11.0000 196.9666
     25    1 Au   79      0.000000      2.084000      6.252000  11.0000 196.9666
     26    1 Au   79      0.000000      6.252000      6.252000  11.0000 196.9666
     27    1 Au   79      2.084000      0.000000      6.252000  11.0000 196.9666
     28    1 Au   79      2.084000      4.168000      6.252000  11.0000 196.9666
     29    1 Au   79      4.168000      2.084000      6.252000  11.0000 196.9666
     30    1 Au   79      4.168000      6.252000      6.252000  11.0000 196.9666
     31    1 Au   79      6.252000      0.000000      6.252000  11.0000 196.9666
     32    1 Au   79      6.252000      4.168000      6.252000  11.0000 196.9666
     33    1 Au   79      0.000000      0.000000      8.336000  11.0000 196.9666
     34    1 Au   79      0.000000      4.168000      8.336000  11.0000 196.9666
     35    1 Au   79      2.084000      2.084000      8.336000  11.0000 196.9666
     36    1 Au   79      2.084000      6.252000      8.336000  11.0000 196.9666
     37    1 Au   79      4.168000      0.000000      8.336000  11.0000 196.9666
     38    1 Au   79      4.168000      4.168000      8.336000  11.0000 196.9666
     39    1 Au   79      6.252000      2.084000      8.336000  11.0000 196.9666
     40    1 Au   79      6.252000      6.252000      8.336000  11.0000 196.9666
     41    1 Au   79      0.000000      2.084000     10.420000  11.0000 196.9666
     42    1 Au   79      0.000000      6.252000     10.420000  11.0000 196.9666
     43    1 Au   79      2.084000      0.000000     10.420000  11.0000 196.9666
     44    1 Au   79      2.084000      4.168000     10.420000  11.0000 196.9666
     45    1 Au   79      4.168000      2.084000     10.420000  11.0000 196.9666
     46    1 Au   79      4.168000      6.252000     10.420000  11.0000 196.9666
     47    1 Au   79      6.252000      0.000000     10.420000  11.0000 196.9666
     48    1 Au   79      6.252000      4.168000     10.420000  11.0000 196.9666
     49    1 Au   79      0.000000      0.000000     21.422000  11.0000 196.9666
     50    1 Au   79      0.000000      4.168000     21.422000  11.0000 196.9666
     51    1 Au   79      2.084000      2.084000     21.422000  11.0000 196.9666
     52    1 Au   79      2.084000      6.252000     21.422000  11.0000 196.9666
     53    1 Au   79      4.168000      0.000000     21.422000  11.0000 196.9666
     54    1 Au   79      4.168000      4.168000     21.422000  11.0000 196.9666
     55    1 Au   79      6.252000      2.084000     21.422000  11.0000 196.9666
     56    1 Au   79      6.252000      6.252000     21.422000  11.0000 196.9666
     57    1 Au   79      0.000000      2.084000     23.506000  11.0000 196.9666
     58    1 Au   79      0.000000      6.252000     23.506000  11.0000 196.9666
     59    1 Au   79      2.084000      0.000000     23.506000  11.0000 196.9666
     60    1 Au   79      2.084000      4.168000     23.506000  11.0000 196.9666
     61    1 Au   79      4.168000      2.084000     23.506000  11.0000 196.9666
     62    1 Au   79      4.168000      6.252000     23.506000  11.0000 196.9666
     63    1 Au   79      6.252000      0.000000     23.506000  11.0000 196.9666
     64    1 Au   79      6.252000      4.168000     23.506000  11.0000 196.9666
     65    1 Au   79      0.000000      0.000000     25.590000  11.0000 196.9666
     66    1 Au   79      0.000000      4.168000     25.590000  11.0000 196.9666
     67    1 Au   79      2.084000      2.084000     25.590000  11.0000 196.9666
     68    1 Au   79      2.084000      6.252000     25.590000  11.0000 196.9666
     69    1 Au   79      4.168000      0.000000     25.590000  11.0000 196.9666
     70    1 Au   79      4.168000      4.168000     25.590000  11.0000 196.9666
     71    1 Au   79      6.252000      2.084000     25.590000  11.0000 196.9666
     72    1 Au   79      6.252000      6.252000     25.590000  11.0000 196.9666
     73    1 Au   79      0.000000      2.084000     27.674000  11.0000 196.9666
     74    1 Au   79      0.000000      6.252000     27.674000  11.0000 196.9666
     75    1 Au   79      2.084000      0.000000     27.674000  11.0000 196.9666
     76    1 Au   79      2.084000      4.168000     27.674000  11.0000 196.9666
     77    1 Au   79      4.168000      2.084000     27.674000  11.0000 196.9666
     78    1 Au   79      4.168000      6.252000     27.674000  11.0000 196.9666
     79    1 Au   79      6.252000      0.000000     27.674000  11.0000 196.9666
     80    1 Au   79      6.252000      4.168000     27.674000  11.0000 196.9666
     81    1 Au   79      0.000000      0.000000     29.758000  11.0000 196.9666
     82    1 Au   79      0.000000      4.168000     29.758000  11.0000 196.9666
     83    1 Au   79      2.084000      2.084000     29.758000  11.0000 196.9666
     84    1 Au   79      2.084000      6.252000     29.758000  11.0000 196.9666
     85    1 Au   79      4.168000      0.000000     29.758000  11.0000 196.9666
     86    1 Au   79      4.168000      4.168000     29.758000  11.0000 196.9666
     87    1 Au   79      6.252000      2.084000     29.758000  11.0000 196.9666
     88    1 Au   79      6.252000      6.252000     29.758000  11.0000 196.9666
     89    1 Au   79      0.000000      2.084000     31.842000  11.0000 196.9666
     90    1 Au   79      0.000000      6.252000     31.842000  11.0000 196.9666
     91    1 Au   79      2.084000      0.000000     31.842000  11.0000 196.9666
     92    1 Au   79      2.084000      4.168000     31.842000  11.0000 196.9666
     93    1 Au   79      4.168000      2.084000     31.842000  11.0000 196.9666
     94    1 Au   79      4.168000      6.252000     31.842000  11.0000 196.9666
     95    1 Au   79      6.252000      0.000000     31.842000  11.0000 196.9666
     96    1 Au   79      6.252000      4.168000     31.842000  11.0000 196.9666



 SCF PARAMETERS         Density guess:                                   RESTART
                        --------------------------------------------------------
                        max_scf:                                             500
                        max_scf_history:                                       0
                        max_diis:                                              4
                        --------------------------------------------------------
                        eps_scf:                                        1.00E-07
                        eps_scf_history:                                0.00E+00
                        eps_diis:                                       1.00E-01
                        eps_eigval:                                     1.00E-05
                        --------------------------------------------------------
                        level_shift [a.u.]:                             0.000000
                        added MOs                                       100    0
                        --------------------------------------------------------
                        Mixing method:                            BROYDEN_MIXING
                                                charge density mixing in g-space
                        --------------------------------------------------------
                        Smear method:                                FERMI_DIRAC
                        Electronic temperature [K]:                        293.0
                        Electronic temperature [a.u.]:                  9.28E-04
                        Accuracy threshold:                             1.00E-10
                        --------------------------------------------------------
                        No outer SCF

 PW_GRID| Information for grid number                                          1
 PW_GRID| Grid distributed over                                   240 processors
 PW_GRID| Real space group dimensions                                    12   20
 PW_GRID| the grid is blocked:                                               YES
 PW_GRID| Cutoff [a.u.]                                                    200.0
 PW_GRID| spherical cutoff:                                                   NO
 PW_GRID|   Bounds   1            -63      62                Points:         126
 PW_GRID|   Bounds   2            -52      52                Points:         105
 PW_GRID|   Bounds   3           -210     209                Points:         420
 PW_GRID| Volume element (a.u.^3)  0.3579E-02     Volume (a.u.^3)     19886.3322
 PW_GRID| Grid span                                                    FULLSPACE
 PW_GRID|   Distribution                         Average         Max         Min
 PW_GRID|   G-Vectors                            23152.5       23814       21168
 PW_GRID|   G-Rays                                 183.8         189         168
 PW_GRID|   Real Space Points                    23152.5       23814       21168

 PW_GRID| Information for grid number                                          2
 PW_GRID| Number of the reference grid                                         1
 PW_GRID| Grid distributed over                                   240 processors
 PW_GRID| Real space group dimensions                                    12   20
 PW_GRID| the grid is blocked:                                                NO
 PW_GRID| Cutoff [a.u.]                                                     66.7
 PW_GRID| spherical cutoff:                                                   NO
 PW_GRID|   Bounds   1            -37      37                Points:          75
 PW_GRID|   Bounds   2            -30      29                Points:          60
 PW_GRID|   Bounds   3           -120     119                Points:         240
 PW_GRID| Volume element (a.u.^3)  0.1841E-01     Volume (a.u.^3)     19886.3322
 PW_GRID| Grid span                                                    FULLSPACE
 PW_GRID|   Distribution                         Average         Max         Min
 PW_GRID|   G-Vectors                             4500.0       14175           0
 PW_GRID|   G-Rays                                  60.0         189           0
 PW_GRID|   Real Space Points                     4500.0        5040        4320

 PW_GRID| Information for grid number                                          3
 PW_GRID| Number of the reference grid                                         1
 PW_GRID| Grid distributed over                                   240 processors
 PW_GRID| Real space group dimensions                                    12   20
 PW_GRID| the grid is blocked:                                                NO
 PW_GRID| Cutoff [a.u.]                                                     22.2
 PW_GRID| spherical cutoff:                                                   NO
 PW_GRID|   Bounds   1            -21      20                Points:          42
 PW_GRID|   Bounds   2            -16      16                Points:          33
 PW_GRID|   Bounds   3            -70      69                Points:         140
 PW_GRID| Volume element (a.u.^3)  0.1025         Volume (a.u.^3)     19886.3322
 PW_GRID| Grid span                                                    FULLSPACE
 PW_GRID|   Distribution                         Average         Max         Min
 PW_GRID|   G-Vectors                              808.5        7938           0
 PW_GRID|   G-Rays                                  19.2         189           0
 PW_GRID|   Real Space Points                      808.5        1120         420

 PW_GRID| Information for grid number                                          4
 PW_GRID| Number of the reference grid                                         1
 PW_GRID| Grid distributed over                                   240 processors
 PW_GRID| Real space group dimensions                                    12   20
 PW_GRID| the grid is blocked:                                                NO
 PW_GRID| Cutoff [a.u.]                                                      7.4
 PW_GRID| spherical cutoff:                                                   NO
 PW_GRID|   Bounds   1            -12      12                Points:          25
 PW_GRID|   Bounds   2            -10       9                Points:          20
 PW_GRID|   Bounds   3            -40      39                Points:          80
 PW_GRID| Volume element (a.u.^3)  0.4972         Volume (a.u.^3)     19886.3322
 PW_GRID| Grid span                                                    FULLSPACE
 PW_GRID|   Distribution                         Average         Max         Min
 PW_GRID|   G-Vectors                              166.7        4725           0
 PW_GRID|   G-Rays                                   6.7         189           0
 PW_GRID|   Real Space Points                      166.7         240         160

 POISSON| Solver                                                        PERIODIC
 POISSON| Periodicity                                                        XYZ

 RS_GRID| Information for grid number                                          1
 RS_GRID|   Bounds   1            -63      62                Points:         126
 RS_GRID|   Bounds   2            -52      52                Points:         105
 RS_GRID|   Bounds   3           -210     209                Points:         420
 RS_GRID| Real space distribution over                                  8 groups
 RS_GRID| Real space distribution along direction                              1
 RS_GRID| Border size                                                         30
 RS_GRID| Real space distribution over                                 30 groups
 RS_GRID| Real space distribution along direction                              3
 RS_GRID| Border size                                                         30
 RS_GRID|   Distribution                         Average         Max         Min
 RS_GRID|   Planes                                  75.8          76          75
 RS_GRID|   Distribution                         Average         Max         Min
 RS_GRID|   Planes                                  74.0          74          74

 RS_GRID| Information for grid number                                          2
 RS_GRID|   Bounds   1            -37      37                Points:          75
 RS_GRID|   Bounds   2            -30      29                Points:          60
 RS_GRID|   Bounds   3           -120     119                Points:         240
 RS_GRID| Real space distribution over                                  8 groups
 RS_GRID| Real space distribution along direction                              1
 RS_GRID| Border size                                                         20
 RS_GRID| Real space distribution over                                 30 groups
 RS_GRID| Real space distribution along direction                              3
 RS_GRID| Border size                                                         20
 RS_GRID|   Distribution                         Average         Max         Min
 RS_GRID|   Planes                                  49.4          50          49
 RS_GRID|   Distribution                         Average         Max         Min
 RS_GRID|   Planes                                  48.0          48          48

 RS_GRID| Information for grid number                                          3
 RS_GRID|   Bounds   1            -21      20                Points:          42
 RS_GRID|   Bounds   2            -16      16                Points:          33
 RS_GRID|   Bounds   3            -70      69                Points:         140
 RS_GRID| Real space fully replicated
 RS_GRID| Group size                                                           1

 RS_GRID| Information for grid number                                          4
 RS_GRID|   Bounds   1            -12      12                Points:          25
 RS_GRID|   Bounds   2            -10       9                Points:          20
 RS_GRID|   Bounds   3            -40      39                Points:          80
 RS_GRID| Real space fully replicated
 RS_GRID| Group size                                                           1

 KPOINTS| Number of kpoint groups                                              1
 KPOINTS| Size of each kpoint group                                          240
 KPOINTS| Number of kpoints per group                                         16

 Number of electrons:                                                       1056
 Number of occupied orbitals:                                                528
 Number of molecular orbitals:                                               628

 Number of orbital functions:                                                864
 Number of independent orbital functions:                                    864

 Extrapolation method: initial_guess


 SCF WAVEFUNCTION OPTIMIZATION

  Step     Update method      Time    Convergence         Total energy    Change
  ------------------------------------------------------------------------------
 SMEAGOL DEBUG| Number of electrons in the unit cell =      1055.9999999927
     1 NoMix/SMGL  0.30E+00  273.5     0.53354336     -3193.9391066631 -3.19E+03
 SMEAGOL DEBUG| Number of electrons in the unit cell =      1055.3563081039
     2 Broy./SMGL  0.30E+00  120.8     0.18745984     -3194.7559072664 -8.17E-01
 SMEAGOL DEBUG| Number of electrons in the unit cell =      1055.2545063313
     3 Broy./SMGL  0.30E+00  121.2     0.20428024     -3193.8344698124  9.21E-01
 SMEAGOL DEBUG| Number of electrons in the unit cell =      1055.6897294652
     4 Broy./SMGL  0.30E+00  119.9     0.01961298     -3191.7877475892  2.05E+00
 SMEAGOL DEBUG| Number of electrons in the unit cell =      1056.1165400503
     5 Broy./SMGL  0.30E+00  120.5     0.02737336     -3192.9408795027 -1.15E+00
 SMEAGOL DEBUG| Number of electrons in the unit cell =      1056.0207702264
     6 Broy./SMGL  0.30E+00  120.6     0.00604767     -3194.1109055364 -1.17E+00
 SMEAGOL DEBUG| Number of electrons in the unit cell =      1056.0198911832
     7 Broy./SMGL  0.30E+00  121.3     0.00264478     -3193.8638915019  2.47E-01
 SMEAGOL DEBUG| Number of electrons in the unit cell =      1056.0065100033
     8 Broy./SMGL  0.30E+00  120.6     0.00052401     -3193.9216216463 -5.77E-02
 SMEAGOL DEBUG| Number of electrons in the unit cell =      1055.9903458077
     9 Broy./SMGL  0.30E+00  121.4     0.00075022     -3193.9211362282  4.85E-04
 SMEAGOL DEBUG| Number of electrons in the unit cell =      1055.9948880765
    10 Broy./SMGL  0.30E+00  120.9     0.00041845     -3193.8965430845  2.46E-02
 SMEAGOL DEBUG| Number of electrons in the unit cell =      1055.9959034394
    11 Broy./SMGL  0.30E+00  122.1     0.00015229     -3193.9136710058 -1.71E-02
 SMEAGOL DEBUG| Number of electrons in the unit cell =      1055.9963755488
    12 Broy./SMGL  0.30E+00  121.0     0.00234657     -3193.9147357306 -1.06E-03
 SMEAGOL DEBUG| Number of electrons in the unit cell =      1055.9954312181
    13 Broy./SMGL  0.30E+00  122.1     0.00234613     -3193.9149896039 -2.54E-04
 SMEAGOL DEBUG| Number of electrons in the unit cell =      1055.9948974123
    14 Broy./SMGL  0.30E+00  129.3     0.00002171     -3193.9130118521  1.98E-03
 SMEAGOL DEBUG| Number of electrons in the unit cell =      1055.9945796940
    15 Broy./SMGL  0.30E+00  121.4     0.00001564     -3193.9129985564  1.33E-05
 SMEAGOL DEBUG| Number of electrons in the unit cell =      1055.9942002311
    16 Broy./SMGL  0.30E+00  122.8     0.00000977     -3193.9129439740  5.46E-05
 SMEAGOL DEBUG| Number of electrons in the unit cell =      1055.9940709221
    17 Broy./SMGL  0.30E+00  122.2     0.00001535     -3193.9127215110  2.22E-04
 SMEAGOL DEBUG| Number of electrons in the unit cell =      1055.9944002699
    18 Broy./SMGL  0.30E+00  121.8     0.00001697     -3193.9127970421 -7.55E-05
 SMEAGOL DEBUG| Number of electrons in the unit cell =      1055.9946195633
    19 Broy./SMGL  0.30E+00  122.8     0.00000897     -3193.9129735348 -1.76E-04
 SMEAGOL DEBUG| Number of electrons in the unit cell =      1055.9946910531
    20 Broy./SMGL  0.30E+00  121.4     0.00000190     -3193.9130125232 -3.90E-05
 SMEAGOL DEBUG| Number of electrons in the unit cell =      1055.9947085009
    21 Broy./SMGL  0.30E+00  125.0     0.00000075     -3193.9130227887 -1.03E-05
 SMEAGOL DEBUG| Number of electrons in the unit cell =      1055.9947180876
    22 Broy./SMGL  0.30E+00  121.7     0.00000050     -3193.9130339000 -1.11E-05
 SMEAGOL DEBUG| Number of electrons in the unit cell =      1055.9947190164
    23 Broy./SMGL  0.30E+00  122.6     0.00000061     -3193.9130469582 -1.31E-05
 SMEAGOL DEBUG| Number of electrons in the unit cell =      1055.9947279734
    24 Broy./SMGL  0.30E+00  121.4     0.00000039     -3193.9130558485 -8.89E-06
 SMEAGOL DEBUG| Number of electrons in the unit cell =      1055.9947279771
    25 Broy./SMGL  0.30E+00  121.5     0.00000041     -3193.9130618093 -5.96E-06
 SMEAGOL DEBUG| Number of electrons in the unit cell =      1055.9947317689
    26 Broy./SMGL  0.30E+00  123.4     0.00000028     -3193.9130617278  8.15E-08
 SMEAGOL DEBUG| Number of electrons in the unit cell =      1055.9947268277
    27 Broy./SMGL  0.30E+00  121.6     0.00000011     -3193.9130655380 -3.81E-06
 SMEAGOL DEBUG| Number of electrons in the unit cell =      1055.9947204467
    28 Broy./SMGL  0.30E+00  121.8     0.00000013     -3193.9130650034  5.35E-07
 SMEAGOL DEBUG| Number of electrons in the unit cell =      1055.9947187767
    29 Broy./SMGL  0.30E+00  122.2     0.00000004     -3193.9130647071  2.96E-07

  *** SCF run converged in    29 steps ***


  Electronic density on regular grids:      -1055.9947187767        0.0052812233
  Core density on regular grids:             1055.9999998265       -0.0000001735
  Total charge density on r-space grids:        0.0052810499
  Total charge density g-space grids:           0.0052810499

  Overlap energy of the core charge distribution:               0.00000024295288
  Self energy of the core charge distribution:              -5553.92051058537163
  Core Hamiltonian energy:                                   1758.08904794542741
  Hartree energy:                                            1096.79414305481487
  Exchange-correlation energy:                               -494.87574536488478
  Electronic entropic energy:                                   0.00000000000000
  Fermi energy:                                                 0.00000000000000

  Total energy:                                             -3193.91306470706058

 The electron density is written in cube file format to the file:

 0V-ELECTRON_DENSITY-1_0.cube

 !-----------------------------------------------------------------------------!
                     Mulliken Population Analysis

 #  Atom  Element  Kind  Atomic population                           Net charge
       1     Au       1         11.067894                             -0.067894
       2     Au       1         11.067894                             -0.067894
       3     Au       1         10.932100                              0.067900
       4     Au       1         10.932100                              0.067900
       5     Au       1         10.932099                              0.067901
       6     Au       1         10.932100                              0.067900
       7     Au       1         11.067894                             -0.067894
       8     Au       1         11.067894                             -0.067894
       9     Au       1         11.067823                             -0.067823
      10     Au       1         11.067823                             -0.067823
      11     Au       1         10.932024                              0.067976
      12     Au       1         10.932024                              0.067976
      13     Au       1         10.932024                              0.067976
      14     Au       1         10.932024                              0.067976
      15     Au       1         11.067823                             -0.067823
      16     Au       1         11.067824                             -0.067824
      17     Au       1         11.065630                             -0.065630
      18     Au       1         11.065631                             -0.065631
      19     Au       1         10.925710                              0.074290
      20     Au       1         10.925710                              0.074290
      21     Au       1         10.925709                              0.074291
      22     Au       1         10.925710                              0.074290
      23     Au       1         11.065631                             -0.065631
      24     Au       1         11.065631                             -0.065631
      25     Au       1         11.056105                             -0.056105
      26     Au       1         11.056105                             -0.056105
      27     Au       1         10.919084                              0.080916
      28     Au       1         10.919085                              0.080915
      29     Au       1         10.919085                              0.080915
      30     Au       1         10.919085                              0.080915
      31     Au       1         11.056105                             -0.056105
      32     Au       1         11.056105                             -0.056105
      33     Au       1         11.039804                             -0.039804
      34     Au       1         11.039805                             -0.039805
      35     Au       1         10.884567                              0.115433
      36     Au       1         10.884567                              0.115433
      37     Au       1         10.884567                              0.115433
      38     Au       1         10.884567                              0.115433
      39     Au       1         11.039804                             -0.039804
      40     Au       1         11.039804                             -0.039804
      41     Au       1         11.075092                             -0.075092
      42     Au       1         11.075092                             -0.075092
      43     Au       1         11.047111                             -0.047111
      44     Au       1         11.047111                             -0.047111
      45     Au       1         11.047111                             -0.047111
      46     Au       1         11.047111                             -0.047111
      47     Au       1         11.075092                             -0.075092
      48     Au       1         11.075092                             -0.075092
      49     Au       1         11.061914                             -0.061914
      50     Au       1         11.061914                             -0.061914
      51     Au       1         11.036864                             -0.036864
      52     Au       1         11.036864                             -0.036864
      53     Au       1         11.036863                             -0.036863
      54     Au       1         11.036863                             -0.036863
      55     Au       1         11.061914                             -0.061914
      56     Au       1         11.061914                             -0.061914
      57     Au       1         11.037782                             -0.037782
      58     Au       1         11.037782                             -0.037782
      59     Au       1         10.882525                              0.117475
      60     Au       1         10.882526                              0.117474
      61     Au       1         10.882525                              0.117475
      62     Au       1         10.882525                              0.117475
      63     Au       1         11.037782                             -0.037782
      64     Au       1         11.037782                             -0.037782
      65     Au       1         11.056061                             -0.056061
      66     Au       1         11.056062                             -0.056062
      67     Au       1         10.919158                              0.080842
      68     Au       1         10.919158                              0.080842
      69     Au       1         10.919158                              0.080842
      70     Au       1         10.919158                              0.080842
      71     Au       1         11.056061                             -0.056061
      72     Au       1         11.056061                             -0.056061
      73     Au       1         11.065741                             -0.065741
      74     Au       1         11.065741                             -0.065741
      75     Au       1         10.925853                              0.074147
      76     Au       1         10.925853                              0.074147
      77     Au       1         10.925853                              0.074147
      78     Au       1         10.925853                              0.074147
      79     Au       1         11.065741                             -0.065741
      80     Au       1         11.065741                             -0.065741
      81     Au       1         11.067822                             -0.067822
      82     Au       1         11.067822                             -0.067822
      83     Au       1         10.932020                              0.067980
      84     Au       1         10.932020                              0.067980
      85     Au       1         10.932020                              0.067980
      86     Au       1         10.932020                              0.067980
      87     Au       1         11.067822                             -0.067822
      88     Au       1         11.067822                             -0.067822
      89     Au       1         11.067894                             -0.067894
      90     Au       1         11.067894                             -0.067894
      91     Au       1         10.932100                              0.067900
      92     Au       1         10.932100                              0.067900
      93     Au       1         10.932100                              0.067900
      94     Au       1         10.932100                              0.067900
      95     Au       1         11.067894                             -0.067894
      96     Au       1         11.067895                             -0.067895
 # Total charge                           1055.994719                  0.005281

 !-----------------------------------------------------------------------------!

 !-----------------------------------------------------------------------------!
                           Hirshfeld Charges

  #Atom  Element  Kind  Ref Charge     Population                    Net charge
      1       Au     1      11.000         11.019                        -0.019
      2       Au     1      11.000         11.019                        -0.019
      3       Au     1      11.000         10.981                         0.019
      4       Au     1      11.000         10.981                         0.019
      5       Au     1      11.000         10.981                         0.019
      6       Au     1      11.000         10.981                         0.019
      7       Au     1      11.000         11.019                        -0.019
      8       Au     1      11.000         11.019                        -0.019
      9       Au     1      11.000         11.019                        -0.019
     10       Au     1      11.000         11.019                        -0.019
     11       Au     1      11.000         10.981                         0.019
     12       Au     1      11.000         10.981                         0.019
     13       Au     1      11.000         10.981                         0.019
     14       Au     1      11.000         10.981                         0.019
     15       Au     1      11.000         11.019                        -0.019
     16       Au     1      11.000         11.019                        -0.019
     17       Au     1      11.000         11.018                        -0.018
     18       Au     1      11.000         11.018                        -0.018
     19       Au     1      11.000         10.980                         0.020
     20       Au     1      11.000         10.980                         0.020
     21       Au     1      11.000         10.980                         0.020
     22       Au     1      11.000         10.980                         0.020
     23       Au     1      11.000         11.018                        -0.018
     24       Au     1      11.000         11.018                        -0.018
     25       Au     1      11.000         11.014                        -0.014
     26       Au     1      11.000         11.014                        -0.014
     27       Au     1      11.000         10.978                         0.022
     28       Au     1      11.000         10.978                         0.022
     29       Au     1      11.000         10.978                         0.022
     30       Au     1      11.000         10.978                         0.022
     31       Au     1      11.000         11.014                        -0.014
     32       Au     1      11.000         11.014                        -0.014
     33       Au     1      11.000         11.007                        -0.007
     34       Au     1      11.000         11.007                        -0.007
     35       Au     1      11.000         10.964                         0.036
     36       Au     1      11.000         10.964                         0.036
     37       Au     1      11.000         10.964                         0.036
     38       Au     1      11.000         10.964                         0.036
     39       Au     1      11.000         11.007                        -0.007
     40       Au     1      11.000         11.007                        -0.007
     41       Au     1      11.000         11.040                        -0.040
     42       Au     1      11.000         11.040                        -0.040
     43       Au     1      11.000         11.011                        -0.011
     44       Au     1      11.000         11.011                        -0.011
     45       Au     1      11.000         11.011                        -0.011
     46       Au     1      11.000         11.011                        -0.011
     47       Au     1      11.000         11.040                        -0.040
     48       Au     1      11.000         11.040                        -0.040
     49       Au     1      11.000         11.025                        -0.025
     50       Au     1      11.000         11.025                        -0.025
     51       Au     1      11.000         11.000                        -0.000
     52       Au     1      11.000         11.000                        -0.000
     53       Au     1      11.000         11.000                        -0.000
     54       Au     1      11.000         11.000                        -0.000
     55       Au     1      11.000         11.025                        -0.025
     56       Au     1      11.000         11.025                        -0.025
     57       Au     1      11.000         11.006                        -0.006
     58       Au     1      11.000         11.006                        -0.006
     59       Au     1      11.000         10.963                         0.037
     60       Au     1      11.000         10.963                         0.037
     61       Au     1      11.000         10.963                         0.037
     62       Au     1      11.000         10.963                         0.037
     63       Au     1      11.000         11.006                        -0.006
     64       Au     1      11.000         11.006                        -0.006
     65       Au     1      11.000         11.014                        -0.014
     66       Au     1      11.000         11.014                        -0.014
     67       Au     1      11.000         10.978                         0.022
     68       Au     1      11.000         10.978                         0.022
     69       Au     1      11.000         10.978                         0.022
     70       Au     1      11.000         10.978                         0.022
     71       Au     1      11.000         11.014                        -0.014
     72       Au     1      11.000         11.014                        -0.014
     73       Au     1      11.000         11.018                        -0.018
     74       Au     1      11.000         11.018                        -0.018
     75       Au     1      11.000         10.980                         0.020
     76       Au     1      11.000         10.980                         0.020
     77       Au     1      11.000         10.980                         0.020
     78       Au     1      11.000         10.980                         0.020
     79       Au     1      11.000         11.018                        -0.018
     80       Au     1      11.000         11.018                        -0.018
     81       Au     1      11.000         11.019                        -0.019
     82       Au     1      11.000         11.019                        -0.019
     83       Au     1      11.000         10.981                         0.019
     84       Au     1      11.000         10.981                         0.019
     85       Au     1      11.000         10.981                         0.019
     86       Au     1      11.000         10.981                         0.019
     87       Au     1      11.000         11.019                        -0.019
     88       Au     1      11.000         11.019                        -0.019
     89       Au     1      11.000         11.019                        -0.019
     90       Au     1      11.000         11.019                        -0.019
     91       Au     1      11.000         10.981                         0.019
     92       Au     1      11.000         10.981                         0.019
     93       Au     1      11.000         10.981                         0.019
     94       Au     1      11.000         10.981                         0.019
     95       Au     1      11.000         11.019                        -0.019
     96       Au     1      11.000         11.019                        -0.019

  Total Charge                                                            0.005
 !-----------------------------------------------------------------------------!
 Calculating transmission coefficient

 ENERGY| Total FORCE_EVAL ( QS ) energy [a.u.]:            -3193.913064707060585

 -------------------------------------------------------------------------------
 -                                                                             -
 -                                DBCSR STATISTICS                             -
 -                                                                             -
 -------------------------------------------------------------------------------
 COUNTER                                    TOTAL       BLAS       SMM       ACC
 flops inhomo. stacks                           0       0.0%      0.0%      0.0%
 flops total                         0.000000E+00       0.0%      0.0%      0.0%
 flops max/rank                      0.000000E+00       0.0%      0.0%      0.0%
 matmuls inhomo. stacks                         0       0.0%      0.0%      0.0%
 matmuls total                                  0       0.0%      0.0%      0.0%
 number of processed stacks                     0       0.0%      0.0%      0.0%
 average stack size                                     0.0       0.0       0.0
 marketing flops                     0.000000E+00
 -------------------------------------------------------------------------------
 -                                                                             -
 -                      DBCSR MESSAGE PASSING PERFORMANCE                      -
 -                                                                             -
 -------------------------------------------------------------------------------
 ROUTINE             CALLS      AVE VOLUME [Bytes]
 MP_Bcast                1                     12.
 MP_Allreduce         1585                      8.
 MP_Alltoall          1823                 169394.
 -------------------------------------------------------------------------------

 -------------------------------------------------------------------------------
 -                                                                             -
 -                                DBM STATISTICS                               -
 -                                                                             -
 -------------------------------------------------------------------------------
    M  x    N  x    K                                          COUNT     PERCENT
 -------------------------------------------------------------------------------

 -------------------------------------------------------------------------------
 -                                                                             -
 -                                GRID STATISTICS                              -
 -                                                                             -
 -------------------------------------------------------------------------------
 LP    KERNEL             BACKEND                              COUNT     PERCENT
 4     collocate ortho    REF                                2128680      46.50%
 4     integrate ortho    REF                                2057724      44.95%
 0     collocate general  REF                                 207360       4.53%
 0     integrate general  REF                                 184320       4.03%
 -------------------------------------------------------------------------------

 MEMORY| Estimated peak process memory [MiB]                                 923

 -------------------------------------------------------------------------------
 ----                             MULTIGRID INFO                            ----
 -------------------------------------------------------------------------------
 count for grid        1:          44584          cutoff [a.u.]          200.00
 count for grid        2:         131556          cutoff [a.u.]           66.67
 count for grid        3:          63916          cutoff [a.u.]           22.22
 count for grid        4:          61300          cutoff [a.u.]            7.41
 total gridlevel count  :         301356

 -------------------------------------------------------------------------------
 -                                                                             -
 -                         MESSAGE PASSING PERFORMANCE                         -
 -                                                                             -
 -------------------------------------------------------------------------------

 ROUTINE             CALLS      AVE VOLUME [Bytes]
 MP_Group                5
 MP_Bcast            22466                  18822.
 MP_Allreduce         2015                 705868.
 MP_Sync               358
 MP_Alltoall           547                4468001.
 MP_ISendRecv        28202                   5440.
 MP_Wait             34889
 MP_ISend             9709                  38450.
 MP_IRecv             9795                  38146.
 MP_Recv              1404                 221184.
 MP_Write_All            2                 304150.
 -------------------------------------------------------------------------------


 -------------------------------------------------------------------------------
 -                                                                             -
 -                           R E F E R E N C E S                               -
 -                                                                             -
 -------------------------------------------------------------------------------
 
 CP2K version 2022.1 (Development Version), the CP2K developers group (2022).
 CP2K is freely available from https://www.cp2k.org/ .

 Kuehne,Thomas D.; Iannuzzi,Marcella; Del Ben,Mauro;
 Rybkin,Vladimir V.; Seewald,Patrick; Stein,Frederick; Laino,Teodoro;
 Khaliullin,Rustam Z.; Schuett,Ole; Schiffmann,Florian; Golze,Dorothea;
 Wilhelm,Jan; Chulkov,Sergey; Bani-Hashemian,Mohammad Hossein;
 Weber,Valery; Borstnik,Urban; Taillefumier,Mathieu;
 Jakobovits,Alice Shoshana; Lazzaro,Alfio; Pabst,Hans; Mueller,Tiziano;
 Schade,Robert; Guidon,Manuel; Andermatt,Samuel; Holmberg,Nico;
 Schenter,Gregory K.; Hehn,Anna; Bussy,Augustin; Belleflamme,Fabian;
 Tabacchi,Gloria; Gloess,Andreas; Lass,Michael; Bethune,Iain;
 Mundy,Christopher J.; Plessl,Christian; Watkins,Matt;
 VandeVondele,Joost; Krack,Matthias; Hutter,Juerg. 
 The Journal of Chemical Physics, 152 (19), (2020). 
 CP2K: An electronic structure and molecular dynamics software package -
 Quickstep: Efficient and accurate electronic structure calculations.
 https://doi.org/10.1063/5.0007045

 Togo, Atsushi; Tanaka, Isao. arXiv, 1808.01590 (2018). 
 Spglib : a software library for crystal symmetry search.
 https://doi.org/xxx

 Schuett, Ole; Messmer, Peter; Hutter, Juerg; VandeVondele, Joost. 
 Electronic Structure Calculations on Graphics Processing Units, John
 Wiley & Sons, Ltd, 173-190 (2016). 
 GPU-Accelerated Sparse Matrix-Matrix Multiplication for
 Linear Scaling Density Functional Theory.
 https://doi.org/10.1002/9781118670712.ch8

 Heinecke, A; Henry, G; Hutchinson, M; Pabst, H. 
 Proceedings of Intl. Supercomputing Conference, 981-991 (2016). 
 LIBXSMM: Accelerating Small Matrix Multiplications
 by Runtime Code Generation.
 https://doi.org/10.1109/SC.2016.83

 Borstnik, U; VandeVondele, J; Weber, V; Hutter, J. 
 PARALLEL COMPUTING, 40 (5-6), 47-58 (2014). 
 Sparse matrix multiplication: The distributed block-compressed sparse
 row library.
 https://doi.org/10.1016/j.parco.2014.03.012

 Hutter, J; Iannuzzi, M; Schiffmann, F; VandeVondele, J. 
 WIREs Comput Mol Sci., 4 (1), 15-25 (2014). 
 CP2K: atomistic simulations of condensed matter systems.
 https://doi.org/10.1002/wcms.1159

 VandeVondele, J; Hutter, J. 
 JOURNAL OF CHEMICAL PHYSICS, 127 (11), 114105 (2007). 
 Gaussian basis sets for accurate calculations on molecular systems in
 gas and condensed phases.
 https://doi.org/10.1063/1.2770708

 Krack, M. 
 THEORETICAL CHEMISTRY ACCOUNTS, 114 (1-3), 145-152 (2005). 
 Pseudopotentials for H to Kr optimized for gradient-corrected
 exchange-correlation functionals.
 https://doi.org/10.1007/s00214-005-0655-y

 VandeVondele, J; Krack, M; Mohamed, F; Parrinello, M; Chassaing, T;
 Hutter, J. COMPUTER PHYSICS COMMUNICATIONS, 167 (2), 103-128 (2005). 
 QUICKSTEP: Fast and accurate density functional calculations using a
 mixed Gaussian and plane waves approach.
 https://doi.org/10.1016/j.cpc.2004.12.014

 Frigo, M; Johnson, SG. 
 PROCEEDINGS OF THE IEEE, 93 (2), 216-231 (2005). 
 The design and implementation of FFTW3.
 https://doi.org/10.1109/JPROC.2004.840301

 Hartwigsen, C; Goedecker, S; Hutter, J. 
 PHYSICAL REVIEW B, 58 (7), 3641-3662 (1998). 
 Relativistic separable dual-space Gaussian pseudopotentials from H to Rn.
 https://doi.org/10.1103/PhysRevB.58.3641

 Lippert, G; Hutter, J; Parrinello, M. 
 MOLECULAR PHYSICS, 92 (3), 477-487 (1997). 
 A hybrid Gaussian and plane wave density functional scheme.
 https://doi.org/10.1080/002689797170220

 Goedecker, S; Teter, M; Hutter, J. 
 PHYSICAL REVIEW B, 54 (3), 1703-1710 (1996). 
 Separable dual-space Gaussian pseudopotentials.
 https://doi.org/10.1103/PhysRevB.54.1703


 -------------------------------------------------------------------------------
 -                                                                             -
 -                                T I M I N G                                  -
 -                                                                             -
 -------------------------------------------------------------------------------
 SUBROUTINE                       CALLS  ASD         SELF TIME        TOTAL TIME
                                MAXIMUM       AVERAGE  MAXIMUM  AVERAGE  MAXIMUM
 CP2K                                 1  1.0    0.036    0.064 3886.960 3886.970
 qs_energies                          1  2.0    0.000    0.000 3886.743 3886.781
 run_smeagol_emtrans                 30  5.9 3827.614 3849.340 3875.842 3877.651
 scf_env_do_scf                       1  3.0    0.000    0.001 3689.613 3689.661
 scf_env_do_scf_inner_loop           29  4.0    0.002    0.161 3689.613 3689.660
 qs_scf_new_mos_kp                   29  5.0    0.000    0.001 3680.985 3682.757
 -------------------------------------------------------------------------------

 The number of warnings for this run is : 0
 
 -------------------------------------------------------------------------------
  **** **** ******  **  PROGRAM ENDED AT                 2023-03-23 21:21:25.554
 ***** ** ***  *** **   PROGRAM RAN ON                     cn1059.scarf.rl.ac.uk
 **    ****   ******    PROGRAM RAN BY                                 scarf1157
 ***** **    ** ** **   PROGRAM PROCESS ID                                 25222
  **** **  *******  **  PROGRAM STOPPED IN /work4/scd/scarf1157/work/testing/cp2
                                           k-smeagol/bdt/cp2k/hollow-site/transp
                                           ort-cp2k/5-4/geometry-ordered/3x3-4/s
                                           z/bulk_layers-4/transmission/exp/capa
                                           citor/sergey-equal/auto/kpoints-20/V-
                                           1_kpoints_bulk-4-4-20_em-4-4-1_hlb-au
                                           to_vacuum
