ATOMS
H             0.00000000      0.00000000     -0.00998254             0.00004966      0.67163331     -0.22115310
H             0.00000000      0.00000000      0.73998166             0.00004966      0.67163331     -0.22115310
