ATOMS
H             0.00000000      0.00000000     -0.00998254            -0.00056155      0.70710656     -0.00002520
H             0.00000000      0.00000000      0.73998166             0.00056155     -0.70710656      0.00002520
