ATOMS
H             0.00000000      0.00000000     -0.00998254             0.70710654      0.00056155      0.00015231
H             0.00000000      0.00000000      0.73998166            -0.70710654     -0.00056155     -0.00015231
