# Projected DOS for atomic kind AuT2 at iteration step i = 0, E(Fermi) =     0.128746 a.u.
#     MO Eigenvalue [a.u.]      Occupation                 s                 p                 d                 f
       1         -0.672430        2.000000        0.00000000        0.00000000        0.00000000        0.00000000
       2         -0.669483        2.000000        0.00000328        0.00000437        0.00002279        0.00000341
       3         -0.668614        2.000000        0.00000000        0.00000000        0.00000000        0.00000000
       4         -0.667955        2.000000        0.00000000        0.00000000        0.00000000        0.00000000
       5         -0.667056        2.000000        0.00000000        0.00000001        0.00000001        0.00000000
       6         -0.666292        2.000000        0.00000000        0.00000000        0.00000000        0.00000000
       7         -0.665197        2.000000        0.00000305        0.00000826        0.00001742        0.00000230
       8         -0.664753        2.000000        0.00000000        0.00000001        0.00000002        0.00000000
       9         -0.663687        2.000000        0.00000001        0.00000017        0.00000071        0.00000086
      10         -0.663175        2.000000        0.00010126        0.00044762        0.00128316        0.00017765
      11         -0.661580        2.000000        0.00000003        0.00000011        0.00000038        0.00000007
      12         -0.660455        2.000000        0.00000000        0.00000000        0.00000003        0.00000001
      13         -0.659162        2.000000        0.00000000        0.00000003        0.00000026        0.00000007
      14         -0.657063        2.000000        0.00000008        0.00000033        0.00000097        0.00000021
      15         -0.656320        2.000000        0.00000019        0.00000073        0.00000213        0.00000033
      16         -0.655890        2.000000        0.00000224        0.00000926        0.00002998        0.00000582
      17         -0.655624        2.000000        0.00000000        0.00000000        0.00000001        0.00000000
      18         -0.655323        2.000000        0.00003524        0.00013466        0.00037786        0.00005782
      19         -0.655233        2.000000        0.00000002        0.00000008        0.00000047        0.00000007
      20         -0.654915        2.000000        0.00008788        0.00037614        0.00108965        0.00018227
      21         -0.653870        2.000000        0.00000010        0.00000034        0.00000075        0.00000016
      22         -0.653373        2.000000        0.00000198        0.00000739        0.00002400        0.00000342
      23         -0.652901        2.000000        0.00000007        0.00000009        0.00000097        0.00000068
      24         -0.651720        2.000000        0.00000200        0.00001045        0.00004097        0.00000800
      25         -0.651508        2.000000        0.00000228        0.00001397        0.00006380        0.00001411
      26         -0.650655        2.000000        0.00000001        0.00000090        0.00000634        0.00000209
      27         -0.649699        2.000000        0.00000144        0.00001867        0.00013292        0.00004624
      28         -0.649408        2.000000        0.00000094        0.00000488        0.00002077        0.00000745
      29         -0.648811        2.000000        0.00000840        0.00002542        0.00006530        0.00001941
      30         -0.648716        2.000000        0.00002303        0.00004891        0.00009393        0.00002129
      31         -0.647328        2.000000        0.00000000        0.00000127        0.00001245        0.00000409
      32         -0.646555        2.000000        0.00000129        0.00002429        0.00026166        0.00006745
      33         -0.646412        2.000000        0.00002467        0.00009597        0.00014957        0.00002473
      34         -0.645775        2.000000        0.00000179        0.00002963        0.00029967        0.00007821
      35         -0.644835        2.000000        0.00000279        0.00000899        0.00003020        0.00000963
      36         -0.644778        2.000000        0.00000724        0.00002415        0.00007660        0.00002857
      37         -0.644567        2.000000        0.00000123        0.00003360        0.00034088        0.00008733
      38         -0.644393        2.000000        0.00000035        0.00001789        0.00023870        0.00005632
      39         -0.644271        2.000000        0.00000029        0.00001023        0.00013425        0.00003106
      40         -0.643299        2.000000        0.00000599        0.00006195        0.00053281        0.00012039
      41         -0.643003        2.000000        0.00001234        0.00006532        0.00041865        0.00010808
      42         -0.642780        2.000000        0.00000187        0.00001478        0.00009075        0.00002555
      43         -0.642567        2.000000        0.00000370        0.00003583        0.00016571        0.00003059
      44         -0.642113        2.000000        0.00000055        0.00000194        0.00000346        0.00000223
      45         -0.641741        2.000000        0.00000753        0.00003229        0.00007226        0.00001459
      46         -0.641499        2.000000        0.00000385        0.00001236        0.00002067        0.00000563
      47         -0.640713        2.000000        0.00000115        0.00000600        0.00000953        0.00000181
      48         -0.640530        2.000000        0.00000005        0.00000009        0.00000476        0.00000078
      49         -0.640030        2.000000        0.00000039        0.00000427        0.00001087        0.00000578
      50         -0.639867        2.000000        0.00000184        0.00000847        0.00002337        0.00000492
      51         -0.639444        2.000000        0.00000024        0.00000113        0.00000409        0.00000089
      52         -0.639210        2.000000        0.00000055        0.00000185        0.00001437        0.00000153
      53         -0.639146        2.000000        0.00000201        0.00000111        0.00003716        0.00000549
      54         -0.638732        2.000000        0.00000037        0.00000210        0.00000263        0.00001510
      55         -0.638289        2.000000        0.00000001        0.00000226        0.00001000        0.00000846
      56         -0.637321        2.000000        0.00000024        0.00001646        0.00005748        0.00001702
      57         -0.637203        2.000000        0.00000052        0.00000500        0.00006373        0.00001644
      58         -0.637066        2.000000        0.00000113        0.00001232        0.00017772        0.00003980
      59         -0.636675        2.000000        0.00000018        0.00000567        0.00003059        0.00001283
      60         -0.635935        2.000000        0.00000031        0.00000615        0.00004601        0.00002181
      61         -0.635227        2.000000        0.00000007        0.00001457        0.00009007        0.00001310
      62         -0.635107        2.000000        0.00000012        0.00000039        0.00000262        0.00000144
      63         -0.634833        2.000000        0.00000000        0.00000080        0.00000290        0.00000021
      64         -0.634470        2.000000        0.00000149        0.00000736        0.00001735        0.00000525
      65         -0.634367        2.000000        0.00000283        0.00001041        0.00004822        0.00002330
      66         -0.634038        2.000000        0.00000012        0.00000140        0.00000697        0.00000130
      67         -0.633843        2.000000        0.00000129        0.00000957        0.00004968        0.00000996
      68         -0.633384        2.000000        0.00001100        0.00004772        0.00016492        0.00002664
      69         -0.633044        2.000000        0.00000114        0.00000676        0.00011823        0.00003705
      70         -0.632857        2.000000        0.00000256        0.00000744        0.00011009        0.00004586
      71         -0.632275        2.000000        0.00000019        0.00000110        0.00002516        0.00000617
      72         -0.632105        2.000000        0.00000040        0.00000230        0.00001110        0.00000219
      73         -0.631869        2.000000        0.00000023        0.00000329        0.00004220        0.00001481
      74         -0.630858        2.000000        0.00000009        0.00000031        0.00000139        0.00000078
      75         -0.630633        2.000000        0.00000005        0.00000068        0.00000248        0.00000176
      76         -0.630425        2.000000        0.00000149        0.00000697        0.00002204        0.00000698
      77         -0.629951        2.000000        0.00000006        0.00000131        0.00001381        0.00000267
      78         -0.629454        2.000000        0.00000005        0.00000016        0.00000175        0.00000058
      79         -0.628653        2.000000        0.00000392        0.00002548        0.00013010        0.00004243
      80         -0.628576        2.000000        0.00000022        0.00000146        0.00000386        0.00000065
      81         -0.628358        2.000000        0.00000006        0.00000094        0.00000914        0.00000255
      82         -0.628217        2.000000        0.00000139        0.00000930        0.00004499        0.00001376
      83         -0.627320        2.000000        0.00000004        0.00000195        0.00002476        0.00000620
      84         -0.626841        2.000000        0.00000113        0.00000368        0.00001386        0.00000478
      85         -0.626336        2.000000        0.00000007        0.00000113        0.00000808        0.00000124
      86         -0.626147        2.000000        0.00000026        0.00000468        0.00004147        0.00001156
      87         -0.625987        2.000000        0.00000010        0.00000126        0.00001077        0.00000369
      88         -0.625774        2.000000        0.00000004        0.00000056        0.00000868        0.00000288
      89         -0.625361        2.000000        0.00000008        0.00000091        0.00000234        0.00000035
      90         -0.625165        2.000000        0.00000114        0.00000656        0.00002654        0.00000389
      91         -0.624866        2.000000        0.00000001        0.00000024        0.00000241        0.00000037
      92         -0.624565        2.000000        0.00000055        0.00000392        0.00002392        0.00000694
      93         -0.624237        2.000000        0.00000002        0.00000230        0.00002629        0.00000692
      94         -0.623721        2.000000        0.00000000        0.00000102        0.00000426        0.00000100
      95         -0.623594        2.000000        0.00000004        0.00000168        0.00003348        0.00001644
      96         -0.623257        2.000000        0.00000002        0.00000048        0.00001591        0.00000434
      97         -0.622851        2.000000        0.00000003        0.00000208        0.00002520        0.00000654
      98         -0.622232        2.000000        0.00000002        0.00000008        0.00000456        0.00000175
      99         -0.622173        2.000000        0.00000000        0.00000067        0.00000292        0.00000012
     100         -0.622079        2.000000        0.00000059        0.00000227        0.00000788        0.00000102
     101         -0.621451        2.000000        0.00000002        0.00000035        0.00000293        0.00000096
     102         -0.621089        2.000000        0.00000000        0.00000037        0.00000848        0.00000269
     103         -0.620735        2.000000        0.00000060        0.00000230        0.00001214        0.00000406
     104         -0.620425        2.000000        0.00000056        0.00000120        0.00000866        0.00000354
     105         -0.619781        2.000000        0.00000013        0.00000100        0.00000613        0.00000386
     106         -0.619575        2.000000        0.00000026        0.00000469        0.00001922        0.00000531
     107         -0.618915        2.000000        0.00000173        0.00000277        0.00002016        0.00000908
     108         -0.618512        2.000000        0.00000121        0.00000183        0.00001273        0.00000880
     109         -0.617954        2.000000        0.00000005        0.00000162        0.00000761        0.00000226
     110         -0.617665        2.000000        0.00000001        0.00000090        0.00000797        0.00000170
     111         -0.617194        2.000000        0.00000006        0.00000012        0.00000061        0.00000020
     112         -0.616932        2.000000        0.00000062        0.00000565        0.00001752        0.00000358
     113         -0.616563        2.000000        0.00000013        0.00000042        0.00000114        0.00000058
     114         -0.616066        2.000000        0.00000021        0.00000192        0.00001339        0.00000482
     115         -0.615647        2.000000        0.00000007        0.00000025        0.00000080        0.00000014
     116         -0.615401        2.000000        0.00000002        0.00000105        0.00000688        0.00000119
     117         -0.614602        2.000000        0.00000030        0.00000128        0.00000992        0.00000348
     118         -0.614459        2.000000        0.00000021        0.00000051        0.00000231        0.00000086
     119         -0.614065        2.000000        0.00000121        0.00000200        0.00000754        0.00000671
     120         -0.613776        2.000000        0.00000022        0.00000244        0.00001696        0.00000449
     121         -0.613333        2.000000        0.00000079        0.00000434        0.00004348        0.00001207
     122         -0.613233        2.000000        0.00000047        0.00000806        0.00008186        0.00002140
     123         -0.612983        2.000000        0.00000064        0.00000306        0.00003211        0.00000878
     124         -0.612581        2.000000        0.00000154        0.00001323        0.00010185        0.00003748
     125         -0.612469        2.000000        0.00000057        0.00000228        0.00000325        0.00000466
     126         -0.611596        2.000000        0.00000010        0.00000284        0.00003327        0.00001310
     127         -0.611199        2.000000        0.00000290        0.00000848        0.00002680        0.00001715
     128         -0.611011        2.000000        0.00000016        0.00000313        0.00001649        0.00000594
     129         -0.610802        2.000000        0.00000011        0.00000082        0.00000399        0.00000099
     130         -0.610602        2.000000        0.00000005        0.00000099        0.00000909        0.00000374
     131         -0.610315        2.000000        0.00000004        0.00000093        0.00000580        0.00000509
     132         -0.608920        2.000000        0.00000012        0.00000024        0.00000168        0.00000091
     133         -0.608714        2.000000        0.00000000        0.00000003        0.00000024        0.00000006
     134         -0.608689        2.000000        0.00000000        0.00000012        0.00000059        0.00000013
     135         -0.607712        2.000000        0.00000005        0.00000020        0.00000041        0.00000014
     136         -0.607241        2.000000        0.00000007        0.00000040        0.00000276        0.00000081
     137         -0.607015        2.000000        0.00000063        0.00000351        0.00000768        0.00000659
     138         -0.606961        2.000000        0.00000022        0.00000014        0.00000221        0.00000053
     139         -0.606668        2.000000        0.00000106        0.00000347        0.00000864        0.00000728
     140         -0.606217        2.000000        0.00000257        0.00000360        0.00001030        0.00000714
     141         -0.605760        2.000000        0.00000215        0.00000139        0.00000682        0.00000396
     142         -0.605530        2.000000        0.00000046        0.00000136        0.00001192        0.00000361
     143         -0.604726        2.000000        0.00000305        0.00000219        0.00001561        0.00000707
     144         -0.604251        2.000000        0.00000002        0.00000059        0.00000337        0.00000080
     145         -0.604012        2.000000        0.00000002        0.00000127        0.00000707        0.00000180
     146         -0.603621        2.000000        0.00000017        0.00000728        0.00004153        0.00001031
     147         -0.602798        2.000000        0.00000021        0.00000204        0.00001280        0.00000367
     148         -0.602043        2.000000        0.00000042        0.00000208        0.00001225        0.00000510
     149         -0.601806        2.000000        0.00000019        0.00000468        0.00003594        0.00000669
     150         -0.601164        2.000000        0.00000001        0.00000004        0.00000025        0.00000004
     151         -0.600494        2.000000        0.00000004        0.00000025        0.00000075        0.00000045
     152         -0.600235        2.000000        0.00000023        0.00000251        0.00001668        0.00000292
     153         -0.599390        2.000000        0.00000000        0.00000006        0.00000078        0.00000011
     154         -0.598787        2.000000        0.00000000        0.00000002        0.00000011        0.00000002
     155         -0.598286        2.000000        0.00000000        0.00000019        0.00000083        0.00000016
     156         -0.596934        2.000000        0.00000058        0.00000292        0.00001266        0.00000270
     157         -0.596320        2.000000        0.00000034        0.00000214        0.00000977        0.00000181
     158         -0.595753        2.000000        0.00000173        0.00000479        0.00002462        0.00000598
     159         -0.594631        2.000000        0.00000000        0.00000000        0.00000001        0.00000000
     160         -0.593777        2.000000        0.00000002        0.00000006        0.00000032        0.00000009
     161         -0.592082        2.000000        0.00000000        0.00000000        0.00000001        0.00000002
     162         -0.589122        2.000000        0.00000033        0.00000150        0.00000652        0.00000121
     163         -0.586735        2.000000        0.00000000        0.00000000        0.00000000        0.00000000
     164         -0.585766        2.000000        0.00000000        0.00000000        0.00000000        0.00000000
     165         -0.585182        2.000000        0.00000000        0.00000000        0.00000001        0.00000001
     166         -0.573903        2.000000        0.00000000        0.00000001        0.00000006        0.00000003
     167         -0.232303        2.000000        0.00000000        0.00000000        0.00000000        0.00000000
     168         -0.228380        2.000000        0.00000104        0.00000141        0.00000284        0.00000080
     169         -0.226510        2.000000        0.00001160        0.00005341        0.00048012        0.00017262
     170         -0.223708        2.000000        0.00000000        0.00000000        0.00000000        0.00000000
     171         -0.220593        2.000000        0.00000000        0.00000000        0.00000000        0.00000000
     172         -0.220130        2.000000        0.00000000        0.00000000        0.00000000        0.00000000
     173         -0.218641        2.000000        0.00000000        0.00000002        0.00000017        0.00000011
     174         -0.218322        2.000000        0.00000000        0.00000000        0.00000000        0.00000000
     175         -0.217040        2.000000        0.00000075        0.00000096        0.00000198        0.00000032
     176         -0.215954        2.000000        0.00000000        0.00000000        0.00000005        0.00000002
     177         -0.215808        2.000000        0.00000000        0.00000011        0.00000157        0.00000052
     178         -0.215345        2.000000        0.00000000        0.00000000        0.00000000        0.00000000
     179         -0.212987        2.000000        0.00000000        0.00000006        0.00000024        0.00000007
     180         -0.212274        2.000000        0.00000000        0.00000000        0.00000000        0.00000000
     181         -0.212168        2.000000        0.00000000        0.00000000        0.00000001        0.00000000
     182         -0.211357        2.000000        0.00000004        0.00000008        0.00000018        0.00000003
     183         -0.210843        2.000000        0.00000003        0.00000001        0.00000005        0.00000000
     184         -0.210303        2.000000        0.00000011        0.00000010        0.00000036        0.00000009
     185         -0.209997        2.000000        0.00000080        0.00000125        0.00000328        0.00000122
     186         -0.209803        2.000000        0.00000002        0.00000005        0.00000011        0.00000006
     187         -0.209469        2.000000        0.00000189        0.00000284        0.00001340        0.00000265
     188         -0.209379        2.000000        0.00000000        0.00000002        0.00000002        0.00000001
     189         -0.208401        2.000000        0.00000000        0.00000002        0.00000005        0.00000001
     190         -0.208067        2.000000        0.00000002        0.00000001        0.00000003        0.00000000
     191         -0.207628        2.000000        0.00000000        0.00000000        0.00000003        0.00000000
     192         -0.207419        2.000000        0.00000000        0.00000003        0.00000006        0.00000002
     193         -0.206511        2.000000        0.00000027        0.00000103        0.00000142        0.00000087
     194         -0.206338        2.000000        0.00000309        0.00000433        0.00001078        0.00000163
     195         -0.205963        2.000000        0.00000003        0.00000010        0.00000034        0.00000002
     196         -0.205597        2.000000        0.00000044        0.00000178        0.00005714        0.00002158
     197         -0.205313        2.000000        0.00000284        0.00000160        0.00000376        0.00000127
     198         -0.204841        2.000000        0.00000014        0.00000010        0.00000222        0.00000148
     199         -0.203616        2.000000        0.00001612        0.00001207        0.00002413        0.00000528
     200         -0.203451        2.000000        0.00000010        0.00000008        0.00000011        0.00000004
     201         -0.203030        2.000000        0.00000003        0.00000018        0.00000017        0.00000006
     202         -0.202913        2.000000        0.00000093        0.00000345        0.00000305        0.00000080
     203         -0.202644        2.000000        0.00000505        0.00000502        0.00000747        0.00000114
     204         -0.202503        2.000000        0.00000116        0.00000034        0.00000144        0.00000012
     205         -0.201994        2.000000        0.00000237        0.00000040        0.00000142        0.00000006
     206         -0.199814        2.000000        0.00000252        0.00000507        0.00001593        0.00000185
     207         -0.199636        2.000000        0.00000000        0.00000003        0.00000025        0.00000006
     208         -0.198721        2.000000        0.00000016        0.00000039        0.00000152        0.00000022
     209         -0.198436        2.000000        0.00000000        0.00000024        0.00000056        0.00000012
     210         -0.198253        2.000000        0.00000014        0.00000042        0.00000045        0.00000011
     211         -0.197512        2.000000        0.00000009        0.00000091        0.00000499        0.00000092
     212         -0.197220        2.000000        0.00011309        0.00009145        0.00020519        0.00006040
     213         -0.196993        2.000000        0.00000793        0.00003272        0.00015350        0.00002667
     214         -0.196926        2.000000        0.00002073        0.00002808        0.00010522        0.00002225
     215         -0.196592        2.000000        0.00053362        0.00032591        0.00107288        0.00029988
     216         -0.195971        2.000000        0.00000635        0.00000310        0.00000240        0.00000035
     217         -0.195555        2.000000        0.00000180        0.00002927        0.00015791        0.00003783
     218         -0.195413        2.000000        0.00000152        0.00000086        0.00000674        0.00000091
     219         -0.195235        2.000000        0.00000017        0.00000058        0.00000344        0.00000043
     220         -0.194013        2.000000        0.00004926        0.00013319        0.00041371        0.00005582
     221         -0.193891        2.000000        0.00003486        0.00006924        0.00020703        0.00002411
     222         -0.193483        2.000000        0.00000791        0.00000610        0.00000955        0.00000142
     223         -0.192982        2.000000        0.00008700        0.00003097        0.00002575        0.00000689
     224         -0.192738        2.000000        0.00000064        0.00000070        0.00000810        0.00000033
     225         -0.192586        2.000000        0.00001772        0.00002015        0.00006173        0.00000370
     226         -0.192138        2.000000        0.00000207        0.00001330        0.00001691        0.00000284
     227         -0.191972        2.000000        0.00004285        0.00002056        0.00004151        0.00000244
     228         -0.191590        2.000000        0.00003935        0.00003321        0.00009529        0.00002282
     229         -0.191457        2.000000        0.00000787        0.00000613        0.00001211        0.00000083
     230         -0.191076        2.000000        0.00000044        0.00000280        0.00000516        0.00000352
     231         -0.190560        2.000000        0.00000172        0.00001429        0.00003588        0.00001769
     232         -0.190385        2.000000        0.00000777        0.00000082        0.00002230        0.00000133
     233         -0.190304        2.000000        0.00006809        0.00002529        0.00002603        0.00001307
     234         -0.190023        2.000000        0.00000014        0.00000859        0.00002022        0.00000334
     235         -0.189651        2.000000        0.00020818        0.00009037        0.00019563        0.00008808
     236         -0.189547        2.000000        0.00008539        0.00001374        0.00005253        0.00000986
     237         -0.189184        2.000000        0.00000098        0.00000278        0.00001776        0.00000688
     238         -0.188852        2.000000        0.00000572        0.00000575        0.00001010        0.00000245
     239         -0.188649        2.000000        0.00000029        0.00017911        0.00025158        0.00006897
     240         -0.188433        2.000000        0.00010177        0.00002719        0.00002059        0.00000701
     241         -0.188236        2.000000        0.00026173        0.00004628        0.00014962        0.00003441
     242         -0.187848        2.000000        0.00002196        0.00001006        0.00001693        0.00000504
     243         -0.187625        2.000000        0.00000237        0.00002184        0.00000788        0.00000845
     244         -0.187413        2.000000        0.00000397        0.00000577        0.00000966        0.00000499
     245         -0.187322        2.000000        0.00003845        0.00001245        0.00004331        0.00001356
     246         -0.187050        2.000000        0.00000001        0.00000219        0.00002044        0.00000510
     247         -0.186387        2.000000        0.00004021        0.00003551        0.00003363        0.00001131
     248         -0.186179        2.000000        0.00000888        0.00000288        0.00000741        0.00000240
     249         -0.185204        2.000000        0.00001962        0.00002768        0.00009560        0.00000815
     250         -0.185131        2.000000        0.00000303        0.00000109        0.00000509        0.00000054
     251         -0.185068        2.000000        0.00007209        0.00010103        0.00024744        0.00002394
     252         -0.184904        2.000000        0.00065205        0.00057555        0.00101470        0.00015492
     253         -0.184464        2.000000        0.00004617        0.00003457        0.00008739        0.00001379
     254         -0.184113        2.000000        0.00010294        0.00004336        0.00008415        0.00001782
     255         -0.183824        2.000000        0.00032511        0.00020980        0.00031169        0.00004271
     256         -0.183682        2.000000        0.00019010        0.00007936        0.00007554        0.00001686
     257         -0.183323        2.000000        0.00001202        0.00003678        0.00004572        0.00000742
     258         -0.183170        2.000000        0.00000924        0.00008351        0.00060810        0.00005411
     259         -0.182926        2.000000        0.00005393        0.00002651        0.00003069        0.00000969