# Projected DOS for atomic kind AuW1 at iteration step i = 0, E(Fermi) =     0.128746 a.u.
#     MO Eigenvalue [a.u.]      Occupation                 s                 p                 d                 f
       1         -0.672430        2.000000        0.00002841        0.00011042        0.00042679        0.00008210
       2         -0.669483        2.000000        0.00000000        0.00000001        0.00000003        0.00000001
       3         -0.668614        2.000000        0.00000015        0.00000855        0.00002921        0.00000386
       4         -0.667955        2.000000        0.00000175        0.00000413        0.00002002        0.00000395
       5         -0.667056        2.000000        0.00000256        0.00000574        0.00003969        0.00000568
       6         -0.666292        2.000000        0.00000003        0.00000493        0.00001021        0.00000064
       7         -0.665197        2.000000        0.00000000        0.00000001        0.00000001        0.00000000
       8         -0.664753        2.000000        0.00000039        0.00000052        0.00000148        0.00000052
       9         -0.663687        2.000000        0.00000000        0.00000000        0.00000000        0.00000000
      10         -0.663175        2.000000        0.00000000        0.00000004        0.00000009        0.00000001
      11         -0.661580        2.000000        0.00002017        0.00023570        0.00070995        0.00007175
      12         -0.660455        2.000000        0.00005047        0.00007540        0.00031732        0.00006434
      13         -0.659162        2.000000        0.00000018        0.00003303        0.00012236        0.00001170
      14         -0.657063        2.000000        0.00000127        0.00003137        0.00022562        0.00003411
      15         -0.656320        2.000000        0.00000022        0.00000748        0.00001629        0.00000128
      16         -0.655890        2.000000        0.00000009        0.00000050        0.00000301        0.00000087
      17         -0.655624        2.000000        0.00004528        0.00013992        0.00064614        0.00021928
      18         -0.655323        2.000000        0.00000020        0.00000287        0.00000649        0.00000112
      19         -0.655233        2.000000        0.00000861        0.00004382        0.00015583        0.00002661
      20         -0.654915        2.000000        0.00000011        0.00000069        0.00000273        0.00000068
      21         -0.653870        2.000000        0.00000009        0.00000184        0.00002332        0.00000967
      22         -0.653373        2.000000        0.00000000        0.00000005        0.00000224        0.00000077
      23         -0.652901        2.000000        0.00000000        0.00000001        0.00000005        0.00000004
      24         -0.651720        2.000000        0.00000005        0.00000500        0.00000500        0.00000189
      25         -0.651508        2.000000        0.00000001        0.00000079        0.00001464        0.00000109
      26         -0.650655        2.000000        0.00000000        0.00000023        0.00000326        0.00000078
      27         -0.649699        2.000000        0.00000122        0.00001301        0.00006973        0.00000710
      28         -0.649408        2.000000        0.00000331        0.00001912        0.00009427        0.00001884
      29         -0.648811        2.000000        0.00000124        0.00001001        0.00006983        0.00001100
      30         -0.648716        2.000000        0.00000024        0.00000238        0.00001694        0.00000188
      31         -0.647328        2.000000        0.00000180        0.00001068        0.00002024        0.00000362
      32         -0.646555        2.000000        0.00000252        0.00000204        0.00003037        0.00000194
      33         -0.646412        2.000000        0.00000001        0.00000077        0.00000073        0.00000010
      34         -0.645775        2.000000        0.00000012        0.00000061        0.00000758        0.00000290
      35         -0.644835        2.000000        0.00002892        0.00004830        0.00034885        0.00002388
      36         -0.644778        2.000000        0.00000422        0.00005998        0.00005407        0.00002096
      37         -0.644567        2.000000        0.00000427        0.00008142        0.00005994        0.00004481
      38         -0.644393        2.000000        0.00000162        0.00001521        0.00004561        0.00001093
      39         -0.644271        2.000000        0.00002031        0.00004224        0.00033457        0.00004231
      40         -0.643299        2.000000        0.00000994        0.00004271        0.00015727        0.00001458
      41         -0.643003        2.000000        0.00000085        0.00003606        0.00002164        0.00003761
      42         -0.642780        2.000000        0.00000647        0.00000189        0.00010158        0.00000120
      43         -0.642567        2.000000        0.00000027        0.00000474        0.00002441        0.00000760
      44         -0.642113        2.000000        0.00000390        0.00002603        0.00004697        0.00001693
      45         -0.641741        2.000000        0.00000017        0.00000642        0.00003747        0.00000379
      46         -0.641499        2.000000        0.00000046        0.00000626        0.00001579        0.00001793
      47         -0.640713        2.000000        0.00000407        0.00002910        0.00011420        0.00001557
      48         -0.640530        2.000000        0.00000357        0.00001458        0.00012695        0.00001189
      49         -0.640030        2.000000        0.00000165        0.00003033        0.00007161        0.00001295
      50         -0.639867        2.000000        0.00000454        0.00000643        0.00005592        0.00000627
      51         -0.639444        2.000000        0.00000015        0.00000463        0.00000404        0.00000447
      52         -0.639210        2.000000        0.00000078        0.00000395        0.00004818        0.00000995
      53         -0.639146        2.000000        0.00000649        0.00000263        0.00003194        0.00000454
      54         -0.638732        2.000000        0.00000187        0.00000157        0.00001794        0.00000620
      55         -0.638289        2.000000        0.00000047        0.00003939        0.00026603        0.00007684
      56         -0.637321        2.000000        0.00000648        0.00003025        0.00003982        0.00000963
      57         -0.637203        2.000000        0.00000011        0.00001640        0.00009441        0.00000853
      58         -0.637066        2.000000        0.00000522        0.00000701        0.00001619        0.00000699
      59         -0.636675        2.000000        0.00001560        0.00003568        0.00019288        0.00004734
      60         -0.635935        2.000000        0.00003937        0.00017382        0.00043186        0.00008940
      61         -0.635227        2.000000        0.00000504        0.00003104        0.00012942        0.00001972
      62         -0.635107        2.000000        0.00000843        0.00003175        0.00011229        0.00002066
      63         -0.634833        2.000000        0.00001209        0.00001354        0.00005560        0.00002475
      64         -0.634470        2.000000        0.00002896        0.00008558        0.00024396        0.00005021
      65         -0.634367        2.000000        0.00000156        0.00001290        0.00001235        0.00000638
      66         -0.634038        2.000000        0.00000046        0.00001152        0.00006150        0.00000410
      67         -0.633843        2.000000        0.00000027        0.00001037        0.00006519        0.00001039
      68         -0.633384        2.000000        0.00001196        0.00005533        0.00019833        0.00001861
      69         -0.633044        2.000000        0.00000158        0.00000563        0.00002201        0.00000931
      70         -0.632857        2.000000        0.00000004        0.00003753        0.00019859        0.00002520
      71         -0.632275        2.000000        0.00000046        0.00004188        0.00012617        0.00003643
      72         -0.632105        2.000000        0.00000215        0.00001464        0.00003270        0.00000735
      73         -0.631869        2.000000        0.00002354        0.00004944        0.00035944        0.00015197
      74         -0.630858        2.000000        0.00000009        0.00000512        0.00004406        0.00002042
      75         -0.630633        2.000000        0.00004771        0.00000562        0.00051345        0.00006413
      76         -0.630425        2.000000        0.00000019        0.00002103        0.00007608        0.00002822
      77         -0.629951        2.000000        0.00000420        0.00000744        0.00003731        0.00001924
      78         -0.629454        2.000000        0.00000965        0.00000606        0.00004447        0.00001416
      79         -0.628653        2.000000        0.00003698        0.00002387        0.00028186        0.00007148
      80         -0.628576        2.000000        0.00000011        0.00005783        0.00007616        0.00008367
      81         -0.628358        2.000000        0.00001893        0.00013384        0.00016750        0.00017037
      82         -0.628217        2.000000        0.00007629        0.00008433        0.00039091        0.00019155
      83         -0.627320        2.000000        0.00000103        0.00002680        0.00026642        0.00002142
      84         -0.626841        2.000000        0.00000010        0.00002420        0.00007203        0.00001548
      85         -0.626336        2.000000        0.00000725        0.00017032        0.00017438        0.00011574
      86         -0.626147        2.000000        0.00000427        0.00005070        0.00017097        0.00004552
      87         -0.625987        2.000000        0.00000126        0.00000208        0.00007834        0.00000858
      88         -0.625774        2.000000        0.00000338        0.00021352        0.00118520        0.00010274
      89         -0.625361        2.000000        0.00001224        0.00004697        0.00022566        0.00006947
      90         -0.625165        2.000000        0.00000015        0.00003204        0.00010165        0.00004584
      91         -0.624866        2.000000        0.00000777        0.00006575        0.00048417        0.00003567
      92         -0.624565        2.000000        0.00000142        0.00000143        0.00003317        0.00000613
      93         -0.624237        2.000000        0.00000462        0.00000528        0.00003900        0.00001052
      94         -0.623721        2.000000        0.00001893        0.00007255        0.00033184        0.00006655
      95         -0.623594        2.000000        0.00000023        0.00004145        0.00013292        0.00002267
      96         -0.623257        2.000000        0.00004764        0.00005750        0.00022895        0.00009645
      97         -0.622851        2.000000        0.00000105        0.00000421        0.00002241        0.00000958
      98         -0.622232        2.000000        0.00000771        0.00006125        0.00015921        0.00007465
      99         -0.622173        2.000000        0.00002003        0.00004892        0.00022569        0.00010178
     100         -0.622079        2.000000        0.00000005        0.00001436        0.00003613        0.00000796
     101         -0.621451        2.000000        0.00000022        0.00001594        0.00007458        0.00003983
     102         -0.621089        2.000000        0.00000007        0.00000536        0.00003752        0.00000532
     103         -0.620735        2.000000        0.00000009        0.00000759        0.00000885        0.00002638
     104         -0.620425        2.000000        0.00000120        0.00001067        0.00002343        0.00002992
     105         -0.619781        2.000000        0.00000091        0.00001720        0.00004440        0.00002201
     106         -0.619575        2.000000        0.00000196        0.00000111        0.00000936        0.00000259
     107         -0.618915        2.000000        0.00000011        0.00000342        0.00002086        0.00000512
     108         -0.618512        2.000000        0.00000032        0.00000378        0.00000643        0.00000455
     109         -0.617954        2.000000        0.00000182        0.00001717        0.00027858        0.00002026
     110         -0.617665        2.000000        0.00000027        0.00006553        0.00040696        0.00013991
     111         -0.617194        2.000000        0.00005330        0.00017366        0.00051015        0.00025850
     112         -0.616932        2.000000        0.00000190        0.00000544        0.00009806        0.00000412
     113         -0.616563        2.000000        0.00000956        0.00001528        0.00009179        0.00003757
     114         -0.616066        2.000000        0.00000270        0.00000204        0.00001976        0.00000785
     115         -0.615647        2.000000        0.00000097        0.00000179        0.00000348        0.00000484
     116         -0.615401        2.000000        0.00000359        0.00004468        0.00041345        0.00004853
     117         -0.614602        2.000000        0.00004746        0.00013599        0.00059805        0.00019754
     118         -0.614459        2.000000        0.00001776        0.00002085        0.00015559        0.00003565
     119         -0.614065        2.000000        0.00000176        0.00001954        0.00005422        0.00005697
     120         -0.613776        2.000000        0.00000267        0.00000077        0.00001409        0.00000302
     121         -0.613333        2.000000        0.00005162        0.00019726        0.00077043        0.00026661
     122         -0.613233        2.000000        0.00000139        0.00000682        0.00004114        0.00002666
     123         -0.612983        2.000000        0.00002124        0.00009986        0.00028482        0.00015464
     124         -0.612581        2.000000        0.00001700        0.00007117        0.00024492        0.00010079
     125         -0.612469        2.000000        0.00000246        0.00000875        0.00003357        0.00001666
     126         -0.611596        2.000000        0.00000014        0.00000258        0.00000340        0.00000541
     127         -0.611199        2.000000        0.00000001        0.00000001        0.00000005        0.00000006
     128         -0.611011        2.000000        0.00000427        0.00001873        0.00007003        0.00002427
     129         -0.610802        2.000000        0.00000018        0.00000906        0.00007795        0.00000982
     130         -0.610602        2.000000        0.00000110        0.00000447        0.00002169        0.00000535
     131         -0.610315        2.000000        0.00000092        0.00000165        0.00003121        0.00000204
     132         -0.608920        2.000000        0.00000004        0.00000198        0.00000249        0.00000329
     133         -0.608714        2.000000        0.00000047        0.00000462        0.00002069        0.00001113
     134         -0.608689        2.000000        0.00000024        0.00000005        0.00000170        0.00000089
     135         -0.607712        2.000000        0.00000000        0.00000050        0.00000675        0.00000048
     136         -0.607241        2.000000        0.00000004        0.00000018        0.00000883        0.00000045
     137         -0.607015        2.000000        0.00000244        0.00000319        0.00001273        0.00000413
     138         -0.606961        2.000000        0.00000260        0.00000168        0.00001290        0.00000488
     139         -0.606668        2.000000        0.00000380        0.00000556        0.00001748        0.00001120
     140         -0.606217        2.000000        0.00000000        0.00000205        0.00001206        0.00000155
     141         -0.605760        2.000000        0.00000079        0.00000086        0.00002045        0.00000556
     142         -0.605530        2.000000        0.00000001        0.00000028        0.00000088        0.00000085
     143         -0.604726        2.000000        0.00000015        0.00000968        0.00000725        0.00000787
     144         -0.604251        2.000000        0.00000002        0.00000054        0.00000203        0.00000088
     145         -0.604012        2.000000        0.00000003        0.00000053        0.00000312        0.00000261
     146         -0.603621        2.000000        0.00000004        0.00000292        0.00000304        0.00000271
     147         -0.602798        2.000000        0.00000011        0.00000023        0.00000086        0.00000015
     148         -0.602043        2.000000        0.00000070        0.00000106        0.00000237        0.00000102
     149         -0.601806        2.000000        0.00000006        0.00000026        0.00000447        0.00000140
     150         -0.601164        2.000000        0.00000026        0.00000359        0.00000973        0.00000269
     151         -0.600494        2.000000        0.00000033        0.00000008        0.00000207        0.00000076
     152         -0.600235        2.000000        0.00000006        0.00000071        0.00000402        0.00000142
     153         -0.599390        2.000000        0.00000000        0.00000124        0.00000392        0.00000094
     154         -0.598787        2.000000        0.00000011        0.00000005        0.00000116        0.00000027
     155         -0.598286        2.000000        0.00000042        0.00000075        0.00000428        0.00000131
     156         -0.596934        2.000000        0.00000002        0.00000213        0.00000315        0.00000176
     157         -0.596320        2.000000        0.00000026        0.00000240        0.00000200        0.00000086
     158         -0.595753        2.000000        0.00000000        0.00000002        0.00000004        0.00000003
     159         -0.594631        2.000000        0.00000034        0.00000118        0.00000434        0.00000098
     160         -0.593777        2.000000        0.00003244        0.00010314        0.00037704        0.00010641
     161         -0.592082        2.000000        0.00000002        0.00000002        0.00000011        0.00000003
     162         -0.589122        2.000000        0.00000009        0.00000403        0.00000458        0.00000307
     163         -0.586735        2.000000        0.00000000        0.00000001        0.00000012        0.00000001
     164         -0.585766        2.000000        0.00000029        0.00000079        0.00000326        0.00000114
     165         -0.585182        2.000000        0.00000026        0.00000143        0.00000461        0.00000126
     166         -0.573903        2.000000        0.00000005        0.00000046        0.00000343        0.00000078
     167         -0.232303        2.000000        0.00000001        0.00000000        0.00000001        0.00000000
     168         -0.228380        2.000000        0.00000000        0.00000000        0.00000001        0.00000000
     169         -0.226510        2.000000        0.00000002        0.00000001        0.00000002        0.00000000
     170         -0.223708        2.000000        0.00000001        0.00000016        0.00000020        0.00000013
     171         -0.220593        2.000000        0.00018714        0.00022456        0.00051934        0.00009148
     172         -0.220130        2.000000        0.00000721        0.00000792        0.00001501        0.00000186
     173         -0.218641        2.000000        0.00000000        0.00000000        0.00000000        0.00000000
     174         -0.218322        2.000000        0.00000234        0.00000095        0.00000871        0.00000105
     175         -0.217040        2.000000        0.00000001        0.00000001        0.00000002        0.00000001
     176         -0.215954        2.000000        0.00000007        0.00000130        0.00000386        0.00000150
     177         -0.215808        2.000000        0.00000229        0.00000296        0.00000799        0.00000059
     178         -0.215345        2.000000        0.00002477        0.00000698        0.00002393        0.00000671
     179         -0.212987        2.000000        0.00000001        0.00000000        0.00000001        0.00000000
     180         -0.212274        2.000000        0.00002353        0.00002952        0.00006344        0.00000705
     181         -0.212168        2.000000        0.00014798        0.00005890        0.00005264        0.00001370
     182         -0.211357        2.000000        0.00000013        0.00000699        0.00015280        0.00006662
     183         -0.210843        2.000000        0.00000585        0.00000483        0.00002094        0.00000995
     184         -0.210303        2.000000        0.00000083        0.00005123        0.00020869        0.00006342
     185         -0.209997        2.000000        0.00000157        0.00001366        0.00009450        0.00002590
     186         -0.209803        2.000000        0.00000029        0.00000018        0.00000150        0.00000028
     187         -0.209469        2.000000        0.00000010        0.00000141        0.00000433        0.00000092
     188         -0.209379        2.000000        0.00000451        0.00000951        0.00004952        0.00000637
     189         -0.208401        2.000000        0.00000123        0.00001051        0.00002511        0.00000146
     190         -0.208067        2.000000        0.00002109        0.00001226        0.00004012        0.00001450
     191         -0.207628        2.000000        0.00000026        0.00000974        0.00001728        0.00000188
     192         -0.207419        2.000000        0.00002769        0.00000442        0.00001364        0.00000948
     193         -0.206511        2.000000        0.00000000        0.00000002        0.00000004        0.00000001
     194         -0.206338        2.000000        0.00000010        0.00000007        0.00000021        0.00000003
     195         -0.205963        2.000000        0.00005253        0.00006072        0.00038748        0.00021923
     196         -0.205597        2.000000        0.00000279        0.00000199        0.00000852        0.00000175
     197         -0.205313        2.000000        0.00000883        0.00000321        0.00001844        0.00000058
     198         -0.204841        2.000000        0.00001528        0.00001903        0.00012049        0.00001121
     199         -0.203616        2.000000        0.00000000        0.00000094        0.00000221        0.00000066
     200         -0.203451        2.000000        0.00003751        0.00001900        0.00007211        0.00001551
     201         -0.203030        2.000000        0.00012758        0.00001563        0.00006476        0.00001361
     202         -0.202913        2.000000        0.00001213        0.00003339        0.00011021        0.00003120
     203         -0.202644        2.000000        0.00014305        0.00009298        0.00019136        0.00004952
     204         -0.202503        2.000000        0.00051315        0.00062176        0.00212606        0.00029779
     205         -0.201994        2.000000        0.00000139        0.00004052        0.00024998        0.00001597
     206         -0.199814        2.000000        0.00002584        0.00001648        0.00004118        0.00000508
     207         -0.199636        2.000000        0.00042673        0.00005511        0.00020157        0.00010053
     208         -0.198721        2.000000        0.00057393        0.00044497        0.00048418        0.00008645
     209         -0.198436        2.000000        0.00008542        0.00003624        0.00049519        0.00000538
     210         -0.198253        2.000000        0.00007493        0.00008791        0.00049496        0.00001508
     211         -0.197512        2.000000        0.00003979        0.00007762        0.00010538        0.00003513
     212         -0.197220        2.000000        0.00003586        0.00000048        0.00005075        0.00000330
     213         -0.196993        2.000000        0.00002135        0.00004144        0.00009967        0.00001126
     214         -0.196926        2.000000        0.00003925        0.00002067        0.00024242        0.00001536
     215         -0.196592        2.000000        0.00000359        0.00000531        0.00000688        0.00000307
     216         -0.195971        2.000000        0.00003224        0.00004483        0.00011742        0.00002228
     217         -0.195555        2.000000        0.00000096        0.00000153        0.00000384        0.00000079
     218         -0.195413        2.000000        0.00035404        0.00026898        0.00078581        0.00018321
     219         -0.195235        2.000000        0.00008044        0.00002468        0.00007081        0.00001714
     220         -0.194013        2.000000        0.00008723        0.00002256        0.00001030        0.00000618
     221         -0.193891        2.000000        0.00006357        0.00001735        0.00001441        0.00000383
     222         -0.193483        2.000000        0.00007304        0.00002180        0.00002036        0.00002473
     223         -0.192982        2.000000        0.00012351        0.00004342        0.00001514        0.00000803
     224         -0.192738        2.000000        0.00029305        0.00020934        0.00019390        0.00002236
     225         -0.192586        2.000000        0.00003184        0.00001168        0.00013692        0.00001257
     226         -0.192138        2.000000        0.00150760        0.00033256        0.00019884        0.00014390
     227         -0.191972        2.000000        0.00042283        0.00012513        0.00017279        0.00006785
     228         -0.191590        2.000000        0.00013627        0.00006469        0.00005100        0.00003886
     229         -0.191457        2.000000        0.00000985        0.00000361        0.00002265        0.00000330
     230         -0.191076        2.000000        0.00034151        0.00002977        0.00021043        0.00003328
     231         -0.190560        2.000000        0.00000410        0.00033582        0.00048137        0.00018335
     232         -0.190385        2.000000        0.00002674        0.00017980        0.00041702        0.00003720
     233         -0.190304        2.000000        0.00001117        0.00005735        0.00016808        0.00001331
     234         -0.190023        2.000000        0.00021935        0.00023595        0.00068074        0.00005491
     235         -0.189651        2.000000        0.00113918        0.00060074        0.00149681        0.00024778
     236         -0.189547        2.000000        0.00012920        0.00010493        0.00067557        0.00004322
     237         -0.189184        2.000000        0.00074830        0.00039823        0.00108975        0.00020526
     238         -0.188852        2.000000        0.00000236        0.00006271        0.00076807        0.00008087
     239         -0.188649        2.000000        0.00002100        0.00007221        0.00005608        0.00002120
     240         -0.188433        2.000000        0.00016146        0.00010220        0.00007647        0.00006764
     241         -0.188236        2.000000        0.00019424        0.00009865        0.00012789        0.00005256
     242         -0.187848        2.000000        0.00005327        0.00035875        0.00142307        0.00011231
     243         -0.187625        2.000000        0.00010695        0.00002598        0.00001786        0.00000552
     244         -0.187413        2.000000        0.00017384        0.00021746        0.00066516        0.00006921
     245         -0.187322        2.000000        0.00119723        0.00042160        0.00054692        0.00013855
     246         -0.187050        2.000000        0.00054200        0.00024066        0.00048729        0.00008966
     247         -0.186387        2.000000        0.00052711        0.00041602        0.00109178        0.00033921
     248         -0.186179        2.000000        0.00000121        0.00013794        0.00059314        0.00006902
     249         -0.185204        2.000000        0.00033541        0.00006087        0.00008233        0.00001551
     250         -0.185131        2.000000        0.00000337        0.00003404        0.00007006        0.00001670
     251         -0.185068        2.000000        0.00000074        0.00010325        0.00027461        0.00006510
     252         -0.184904        2.000000        0.00001883        0.00002265        0.00009360        0.00002445
     253         -0.184464        2.000000        0.00029565        0.00012287        0.00024221        0.00004821
     254         -0.184113        2.000000        0.00008817        0.00000546        0.00011687        0.00001522
     255         -0.183824        2.000000        0.00003515        0.00000538        0.00006460        0.00001525
     256         -0.183682        2.000000        0.00002349        0.00001441        0.00003435        0.00000417
     257         -0.183323        2.000000        0.00003305        0.00004820        0.00025513        0.00003309
     258         -0.183170        2.000000        0.00004636        0.00001127        0.00004125        0.00000923
     259         -0.182926        2.000000        0.00016374        0.00019264        0.00040658        0.00003205