# Projected DOS for atomic kind AuW2 at iteration step i = 0, E(Fermi) =     0.128746 a.u.
#     MO Eigenvalue [a.u.]      Occupation                 s                 p                 d                 f
       1         -0.672430        2.000000        0.00000080        0.00000211        0.00000708        0.00000143
       2         -0.669483        2.000000        0.00000000        0.00000000        0.00000000        0.00000000
       3         -0.668614        2.000000        0.00000001        0.00000014        0.00000041        0.00000007
       4         -0.667955        2.000000        0.00000004        0.00000007        0.00000034        0.00000005
       5         -0.667056        2.000000        0.00000002        0.00000004        0.00000019        0.00000004
       6         -0.666292        2.000000        0.00000000        0.00000004        0.00000008        0.00000001
       7         -0.665197        2.000000        0.00000000        0.00000004        0.00000013        0.00000002
       8         -0.664753        2.000000        0.00000000        0.00000001        0.00000001        0.00000000
       9         -0.663687        2.000000        0.00000000        0.00000000        0.00000002        0.00000000
      10         -0.663175        2.000000        0.00000003        0.00000008        0.00000013        0.00000007
      11         -0.661580        2.000000        0.00000004        0.00000130        0.00000497        0.00000061
      12         -0.660455        2.000000        0.00000030        0.00000068        0.00000079        0.00000041
      13         -0.659162        2.000000        0.00000021        0.00000008        0.00000070        0.00000013
      14         -0.657063        2.000000        0.00000024        0.00000020        0.00000223        0.00000012
      15         -0.656320        2.000000        0.00000003        0.00000008        0.00000065        0.00000012
      16         -0.655890        2.000000        0.00000001        0.00000004        0.00000022        0.00000006
      17         -0.655624        2.000000        0.00000038        0.00000023        0.00000112        0.00000070
      18         -0.655323        2.000000        0.00000002        0.00000010        0.00000180        0.00000043
      19         -0.655233        2.000000        0.00000079        0.00000236        0.00000485        0.00000077
      20         -0.654915        2.000000        0.00000029        0.00000112        0.00000308        0.00000094
      21         -0.653870        2.000000        0.00000002        0.00000002        0.00000017        0.00000010
      22         -0.653373        2.000000        0.00000019        0.00000015        0.00000324        0.00000035
      23         -0.652901        2.000000        0.00000003        0.00000004        0.00000083        0.00000008
      24         -0.651720        2.000000        0.00000089        0.00000406        0.00001302        0.00000294
      25         -0.651508        2.000000        0.00000139        0.00000340        0.00002655        0.00000424
      26         -0.650655        2.000000        0.00000002        0.00000132        0.00000104        0.00000062
      27         -0.649699        2.000000        0.00000046        0.00000221        0.00000459        0.00000213
      28         -0.649408        2.000000        0.00000027        0.00000121        0.00000207        0.00000046
      29         -0.648811        2.000000        0.00000017        0.00000060        0.00000288        0.00000081
      30         -0.648716        2.000000        0.00000001        0.00000181        0.00000528        0.00000152
      31         -0.647328        2.000000        0.00000109        0.00000410        0.00001372        0.00000238
      32         -0.646555        2.000000        0.00000798        0.00000657        0.00003742        0.00001057
      33         -0.646412        2.000000        0.00000010        0.00000164        0.00000087        0.00000026
      34         -0.645775        2.000000        0.00000266        0.00000708        0.00005525        0.00000624
      35         -0.644835        2.000000        0.00000716        0.00001260        0.00006344        0.00002131
      36         -0.644778        2.000000        0.00000516        0.00001665        0.00006187        0.00000962
      37         -0.644567        2.000000        0.00005005        0.00021445        0.00069143        0.00021537
      38         -0.644393        2.000000        0.00000693        0.00004801        0.00019756        0.00005713
      39         -0.644271        2.000000        0.00007943        0.00036734        0.00142458        0.00042186
      40         -0.643299        2.000000        0.00000061        0.00000032        0.00002717        0.00000393
      41         -0.643003        2.000000        0.00000119        0.00002820        0.00015857        0.00003994
      42         -0.642780        2.000000        0.00000798        0.00001244        0.00012887        0.00002447
      43         -0.642567        2.000000        0.00000391        0.00003825        0.00005031        0.00001188
      44         -0.642113        2.000000        0.00000001        0.00000318        0.00001319        0.00000379
      45         -0.641741        2.000000        0.00000279        0.00003586        0.00005488        0.00003001
      46         -0.641499        2.000000        0.00000019        0.00000287        0.00012929        0.00001180
      47         -0.640713        2.000000        0.00000163        0.00000654        0.00001607        0.00000711
      48         -0.640530        2.000000        0.00000414        0.00000149        0.00001673        0.00001030
      49         -0.640030        2.000000        0.00000009        0.00001623        0.00008649        0.00001400
      50         -0.639867        2.000000        0.00001669        0.00001460        0.00012357        0.00001746
      51         -0.639444        2.000000        0.00000404        0.00001070        0.00002085        0.00000829
      52         -0.639210        2.000000        0.00000298        0.00001352        0.00003468        0.00001627
      53         -0.639146        2.000000        0.00001146        0.00001775        0.00007897        0.00001600
      54         -0.638732        2.000000        0.00000033        0.00000121        0.00001240        0.00000116
      55         -0.638289        2.000000        0.00000932        0.00001622        0.00007321        0.00001952
      56         -0.637321        2.000000        0.00000002        0.00003289        0.00004686        0.00001480
      57         -0.637203        2.000000        0.00000063        0.00000108        0.00001507        0.00001168
      58         -0.637066        2.000000        0.00000223        0.00000618        0.00001498        0.00000274
      59         -0.636675        2.000000        0.00001617        0.00003061        0.00012829        0.00003096
      60         -0.635935        2.000000        0.00001427        0.00011467        0.00025391        0.00005583
      61         -0.635227        2.000000        0.00000268        0.00001951        0.00005146        0.00000712
      62         -0.635107        2.000000        0.00000412        0.00000686        0.00007904        0.00002019
      63         -0.634833        2.000000        0.00000060        0.00000087        0.00000467        0.00000110
      64         -0.634470        2.000000        0.00001126        0.00004811        0.00014087        0.00003207
      65         -0.634367        2.000000        0.00000002        0.00000678        0.00001304        0.00000818
      66         -0.634038        2.000000        0.00000287        0.00001041        0.00002269        0.00000858
      67         -0.633843        2.000000        0.00000064        0.00000556        0.00024356        0.00006980
      68         -0.633384        2.000000        0.00001172        0.00003295        0.00008142        0.00001764
      69         -0.633044        2.000000        0.00000020        0.00000196        0.00001101        0.00000540
      70         -0.632857        2.000000        0.00000606        0.00000513        0.00002953        0.00000327
      71         -0.632275        2.000000        0.00000010        0.00003464        0.00006234        0.00002199
      72         -0.632105        2.000000        0.00000054        0.00001582        0.00001406        0.00000533
      73         -0.631869        2.000000        0.00000026        0.00006566        0.00035649        0.00011035
      74         -0.630858        2.000000        0.00000001        0.00002286        0.00006478        0.00002003
      75         -0.630633        2.000000        0.00003393        0.00010173        0.00041411        0.00011440
      76         -0.630425        2.000000        0.00000519        0.00003594        0.00018883        0.00003256
      77         -0.629951        2.000000        0.00000335        0.00001551        0.00011289        0.00002330
      78         -0.629454        2.000000        0.00000005        0.00000200        0.00002862        0.00000372
      79         -0.628653        2.000000        0.00000007        0.00001681        0.00015902        0.00003323
      80         -0.628576        2.000000        0.00002197        0.00002977        0.00044735        0.00007392
      81         -0.628358        2.000000        0.00000546        0.00002959        0.00016551        0.00002948
      82         -0.628217        2.000000        0.00000069        0.00001926        0.00001037        0.00001946
      83         -0.627320        2.000000        0.00000028        0.00001863        0.00004678        0.00001888
      84         -0.626841        2.000000        0.00000012        0.00000315        0.00005159        0.00001970
      85         -0.626336        2.000000        0.00000061        0.00005068        0.00039010        0.00005579
      86         -0.626147        2.000000        0.00000242        0.00003665        0.00009824        0.00002440
      87         -0.625987        2.000000        0.00001056        0.00005388        0.00009769        0.00003682
      88         -0.625774        2.000000        0.00000006        0.00000420        0.00008420        0.00003289
      89         -0.625361        2.000000        0.00000285        0.00002967        0.00020033        0.00004766
      90         -0.625165        2.000000        0.00000246        0.00003262        0.00019835        0.00004194
      91         -0.624866        2.000000        0.00000117        0.00002473        0.00031079        0.00005921
      92         -0.624565        2.000000        0.00000009        0.00001637        0.00028626        0.00003765
      93         -0.624237        2.000000        0.00000195        0.00001229        0.00007513        0.00001547
      94         -0.623721        2.000000        0.00001600        0.00006242        0.00021689        0.00004550
      95         -0.623594        2.000000        0.00000177        0.00001063        0.00007484        0.00002054
      96         -0.623257        2.000000        0.00000463        0.00002237        0.00011830        0.00003053
      97         -0.622851        2.000000        0.00000992        0.00002389        0.00012033        0.00004330
      98         -0.622232        2.000000        0.00000011        0.00004133        0.00021199        0.00005754
      99         -0.622173        2.000000        0.00000025        0.00003441        0.00015910        0.00003720
     100         -0.622079        2.000000        0.00000086        0.00001100        0.00006274        0.00001020
     101         -0.621451        2.000000        0.00000606        0.00005473        0.00017128        0.00004115
     102         -0.621089        2.000000        0.00000001        0.00002450        0.00004328        0.00001642
     103         -0.620735        2.000000        0.00000063        0.00002331        0.00008673        0.00001971
     104         -0.620425        2.000000        0.00000053        0.00006723        0.00015503        0.00005234
     105         -0.619781        2.000000        0.00003667        0.00003843        0.00022997        0.00008913
     106         -0.619575        2.000000        0.00001332        0.00002991        0.00007372        0.00001487
     107         -0.618915        2.000000        0.00000961        0.00000525        0.00011047        0.00004057
     108         -0.618512        2.000000        0.00000019        0.00000101        0.00001221        0.00000295
     109         -0.617954        2.000000        0.00002213        0.00008659        0.00024026        0.00006278
     110         -0.617665        2.000000        0.00000336        0.00006329        0.00011106        0.00003080
     111         -0.617194        2.000000        0.00000393        0.00000877        0.00005018        0.00000976
     112         -0.616932        2.000000        0.00000013        0.00000920        0.00001518        0.00000337
     113         -0.616563        2.000000        0.00000132        0.00002236        0.00003956        0.00002059
     114         -0.616066        2.000000        0.00000003        0.00000347        0.00001188        0.00000633
     115         -0.615647        2.000000        0.00000692        0.00000633        0.00003961        0.00001631
     116         -0.615401        2.000000        0.00000432        0.00001059        0.00011907        0.00005353
     117         -0.614602        2.000000        0.00000091        0.00002423        0.00013292        0.00006965
     118         -0.614459        2.000000        0.00000211        0.00000323        0.00005602        0.00001901
     119         -0.614065        2.000000        0.00000709        0.00004629        0.00015198        0.00004696
     120         -0.613776        2.000000        0.00000131        0.00000197        0.00000474        0.00000355
     121         -0.613333        2.000000        0.00000219        0.00003488        0.00030084        0.00013775
     122         -0.613233        2.000000        0.00000836        0.00001057        0.00004669        0.00001999
     123         -0.612983        2.000000        0.00000762        0.00003526        0.00013727        0.00006494
     124         -0.612581        2.000000        0.00000118        0.00002306        0.00021279        0.00004606
     125         -0.612469        2.000000        0.00000007        0.00000298        0.00010783        0.00001657
     126         -0.611596        2.000000        0.00000228        0.00000119        0.00000911        0.00001512
     127         -0.611199        2.000000        0.00000021        0.00000014        0.00000502        0.00000356
     128         -0.611011        2.000000        0.00000194        0.00000770        0.00004423        0.00000976
     129         -0.610802        2.000000        0.00000046        0.00000530        0.00001569        0.00000334
     130         -0.610602        2.000000        0.00000253        0.00001070        0.00004636        0.00001866
     131         -0.610315        2.000000        0.00000015        0.00000786        0.00001396        0.00000438
     132         -0.608920        2.000000        0.00000179        0.00000660        0.00001456        0.00000451
     133         -0.608714        2.000000        0.00000284        0.00000788        0.00005816        0.00001337
     134         -0.608689        2.000000        0.00000051        0.00000221        0.00000321        0.00000156
     135         -0.607712        2.000000        0.00000023        0.00000328        0.00000461        0.00000145
     136         -0.607241        2.000000        0.00000012        0.00000211        0.00001254        0.00000196
     137         -0.607015        2.000000        0.00000043        0.00000240        0.00001329        0.00000419
     138         -0.606961        2.000000        0.00000002        0.00000414        0.00000473        0.00000234
     139         -0.606668        2.000000        0.00000041        0.00000329        0.00001602        0.00000658
     140         -0.606217        2.000000        0.00000090        0.00000729        0.00001423        0.00000622
     141         -0.605760        2.000000        0.00000012        0.00001093        0.00002924        0.00000535
     142         -0.605530        2.000000        0.00000126        0.00000485        0.00002748        0.00000638
     143         -0.604726        2.000000        0.00000003        0.00000963        0.00001816        0.00002358
     144         -0.604251        2.000000        0.00000094        0.00000881        0.00003609        0.00001062
     145         -0.604012        2.000000        0.00000227        0.00002036        0.00007863        0.00002094
     146         -0.603621        2.000000        0.00000114        0.00000084        0.00002172        0.00000678
     147         -0.602798        2.000000        0.00000234        0.00000134        0.00003435        0.00000625
     148         -0.602043        2.000000        0.00000837        0.00000369        0.00011599        0.00001173
     149         -0.601806        2.000000        0.00000506        0.00006387        0.00019780        0.00003936
     150         -0.601164        2.000000        0.00000032        0.00000118        0.00000693        0.00000254
     151         -0.600494        2.000000        0.00000662        0.00002256        0.00012340        0.00002916
     152         -0.600235        2.000000        0.00001108        0.00006165        0.00022935        0.00007970
     153         -0.599390        2.000000        0.00000142        0.00000636        0.00003187        0.00001310
     154         -0.598787        2.000000        0.00000029        0.00000092        0.00000616        0.00000150
     155         -0.598286        2.000000        0.00000301        0.00000555        0.00005743        0.00001482
     156         -0.596934        2.000000        0.00000182        0.00001180        0.00002220        0.00001468
     157         -0.596320        2.000000        0.00000102        0.00000114        0.00000745        0.00000102
     158         -0.595753        2.000000        0.00000002        0.00000012        0.00000049        0.00000020
     159         -0.594631        2.000000        0.00000001        0.00000004        0.00000016        0.00000010
     160         -0.593777        2.000000        0.00000026        0.00000136        0.00000997        0.00000496
     161         -0.592082        2.000000        0.00000007        0.00000004        0.00000087        0.00000005
     162         -0.589122        2.000000        0.00000043        0.00000145        0.00002148        0.00001800
     163         -0.586735        2.000000        0.00000000        0.00000001        0.00000001        0.00000000
     164         -0.585766        2.000000        0.00000001        0.00000009        0.00000025        0.00000009
     165         -0.585182        2.000000        0.00000004        0.00000030        0.00000201        0.00000059
     166         -0.573903        2.000000        0.00000095        0.00000493        0.00001918        0.00000479
     167         -0.232303        2.000000        0.00000000        0.00000000        0.00000000        0.00000000
     168         -0.228380        2.000000        0.00000003        0.00000005        0.00000016        0.00000003
     169         -0.226510        2.000000        0.00000067        0.00000094        0.00000186        0.00000019
     170         -0.223708        2.000000        0.00000000        0.00000000        0.00000002        0.00000001
     171         -0.220593        2.000000        0.00000595        0.00000529        0.00000553        0.00000164
     172         -0.220130        2.000000        0.00000025        0.00000027        0.00000016        0.00000001
     173         -0.218641        2.000000        0.00000000        0.00000002        0.00000009        0.00000002
     174         -0.218322        2.000000        0.00000019        0.00000006        0.00000025        0.00000006
     175         -0.217040        2.000000        0.00000000        0.00000001        0.00000005        0.00000000
     176         -0.215954        2.000000        0.00000117        0.00000165        0.00000253        0.00000044
     177         -0.215808        2.000000        0.00004524        0.00003479        0.00006863        0.00001051
     178         -0.215345        2.000000        0.00000111        0.00000042        0.00000107        0.00000039
     179         -0.212987        2.000000        0.00000000        0.00000001        0.00000004        0.00000000
     180         -0.212274        2.000000        0.00000209        0.00000333        0.00000909        0.00000125
     181         -0.212168        2.000000        0.00000433        0.00000397        0.00000501        0.00000041
     182         -0.211357        2.000000        0.00000047        0.00000231        0.00002855        0.00000871
     183         -0.210843        2.000000        0.00000024        0.00000129        0.00000555        0.00000181
     184         -0.210303        2.000000        0.00001601        0.00001236        0.00004180        0.00001283
     185         -0.209997        2.000000        0.00008105        0.00015861        0.00061270        0.00010307
     186         -0.209803        2.000000        0.00000066        0.00000008        0.00000039        0.00000011
     187         -0.209469        2.000000        0.00000488        0.00000774        0.00002620        0.00000570
     188         -0.209379        2.000000        0.00000008        0.00000010        0.00000189        0.00000088
     189         -0.208401        2.000000        0.00000040        0.00000380        0.00000513        0.00000127
     190         -0.208067        2.000000        0.00000056        0.00000048        0.00000247        0.00000029
     191         -0.207628        2.000000        0.00000004        0.00000077        0.00000262        0.00000043
     192         -0.207419        2.000000        0.00000520        0.00000259        0.00000665        0.00000121
     193         -0.206511        2.000000        0.00000001        0.00000006        0.00000013        0.00000003
     194         -0.206338        2.000000        0.00000012        0.00000033        0.00000065        0.00000018
     195         -0.205963        2.000000        0.00000630        0.00000739        0.00004779        0.00001024
     196         -0.205597        2.000000        0.00000009        0.00000048        0.00000200        0.00000035
     197         -0.205313        2.000000        0.00000687        0.00000453        0.00000201        0.00000016
     198         -0.204841        2.000000        0.00000153        0.00000544        0.00000973        0.00000109
     199         -0.203616        2.000000        0.00000096        0.00000148        0.00000217        0.00000032
     200         -0.203451        2.000000        0.00000143        0.00000127        0.00000230        0.00000023
     201         -0.203030        2.000000        0.00000004        0.00000860        0.00001903        0.00000219
     202         -0.202913        2.000000        0.00001345        0.00001173        0.00003021        0.00000203
     203         -0.202644        2.000000        0.00000389        0.00000052        0.00000490        0.00000194
     204         -0.202503        2.000000        0.00000383        0.00000244        0.00001740        0.00000721
     205         -0.201994        2.000000        0.00004960        0.00002795        0.00007440        0.00001042
     206         -0.199814        2.000000        0.00000112        0.00000015        0.00000107        0.00000040
     207         -0.199636        2.000000        0.00000945        0.00000925        0.00004681        0.00000713
     208         -0.198721        2.000000        0.00000905        0.00001587        0.00007572        0.00001452
     209         -0.198436        2.000000        0.00000721        0.00001730        0.00004458        0.00001315
     210         -0.198253        2.000000        0.00000091        0.00001995        0.00006068        0.00001687
     211         -0.197512        2.000000        0.00002189        0.00000462        0.00002570        0.00000556
     212         -0.197220        2.000000        0.00005729        0.00001576        0.00003037        0.00000782
     213         -0.196993        2.000000        0.00001631        0.00004847        0.00002966        0.00000863
     214         -0.196926        2.000000        0.00002545        0.00000101        0.00004054        0.00000236
     215         -0.196592        2.000000        0.00000010        0.00000177        0.00001472        0.00000377
     216         -0.195971        2.000000        0.00011674        0.00001457        0.00006622        0.00001041
     217         -0.195555        2.000000        0.00001524        0.00000227        0.00001237        0.00000101
     218         -0.195413        2.000000        0.00007007        0.00007098        0.00008767        0.00000999
     219         -0.195235        2.000000        0.00000355        0.00000821        0.00000899        0.00000137
     220         -0.194013        2.000000        0.00005089        0.00003228        0.00003185        0.00000445
     221         -0.193891        2.000000        0.00003128        0.00001871        0.00003689        0.00000700
     222         -0.193483        2.000000        0.00002189        0.00000859        0.00001539        0.00000172
     223         -0.192982        2.000000        0.00004613        0.00005213        0.00009070        0.00000841
     224         -0.192738        2.000000        0.00008924        0.00007538        0.00012595        0.00001397
     225         -0.192586        2.000000        0.00000010        0.00001605        0.00005914        0.00000941
     226         -0.192138        2.000000        0.00045379        0.00025300        0.00014075        0.00000218
     227         -0.191972        2.000000        0.00002058        0.00003620        0.00010339        0.00000529
     228         -0.191590        2.000000        0.00003508        0.00001185        0.00006688        0.00001067
     229         -0.191457        2.000000        0.00001191        0.00001541        0.00001281        0.00000604
     230         -0.191076        2.000000        0.00011330        0.00003513        0.00003938        0.00000700
     231         -0.190560        2.000000        0.00002043        0.00000524        0.00035121        0.00007470
     232         -0.190385        2.000000        0.00000427        0.00004778        0.00017885        0.00003128
     233         -0.190304        2.000000        0.00002194        0.00001012        0.00002829        0.00000343
     234         -0.190023        2.000000        0.00059589        0.00019372        0.00015873        0.00001263
     235         -0.189651        2.000000        0.00053518        0.00030292        0.00010875        0.00001768
     236         -0.189547        2.000000        0.00013461        0.00009948        0.00004805        0.00001767
     237         -0.189184        2.000000        0.00004825        0.00009345        0.00044905        0.00007208
     238         -0.188852        2.000000        0.00112596        0.00021956        0.00065504        0.00008883
     239         -0.188649        2.000000        0.00027537        0.00006875        0.00010089        0.00001150
     240         -0.188433        2.000000        0.00004662        0.00003554        0.00021271        0.00007851
     241         -0.188236        2.000000        0.00041078        0.00017683        0.00022457        0.00006858
     242         -0.187848        2.000000        0.00038708        0.00026330        0.00048804        0.00011568
     243         -0.187625        2.000000        0.00006161        0.00002326        0.00010336        0.00001264
     244         -0.187413        2.000000        0.00000825        0.00006484        0.00008644        0.00001260
     245         -0.187322        2.000000        0.00023907        0.00014779        0.00056206        0.00006566
     246         -0.187050        2.000000        0.00001797        0.00010198        0.00024851        0.00005451
     247         -0.186387        2.000000        0.00000259        0.00014657        0.00047928        0.00008011
     248         -0.186179        2.000000        0.00003664        0.00003856        0.00013577        0.00002048
     249         -0.185204        2.000000        0.00005017        0.00003485        0.00005563        0.00001879
     250         -0.185131        2.000000        0.00018545        0.00007742        0.00026457        0.00004876
     251         -0.185068        2.000000        0.00041676        0.00028830        0.00108245        0.00016001
     252         -0.184904        2.000000        0.00026162        0.00010398        0.00037372        0.00008989
     253         -0.184464        2.000000        0.00004078        0.00002845        0.00011477        0.00001678
     254         -0.184113        2.000000        0.00001501        0.00005529        0.00010206        0.00002011
     255         -0.183824        2.000000        0.00010242        0.00015175        0.00011758        0.00001747
     256         -0.183682        2.000000        0.00003028        0.00006582        0.00009735        0.00003076
     257         -0.183323        2.000000        0.00002426        0.00003233        0.00017872        0.00002253
     258         -0.183170        2.000000        0.00000016        0.00003442        0.00007124        0.00001496
     259         -0.182926        2.000000        0.00000096        0.00005986        0.00022447        0.00005167