# Projected DOS for atomic kind AuW3 at iteration step i = 0, E(Fermi) =     0.128746 a.u.
#     MO Eigenvalue [a.u.]      Occupation                 s                 p                 d                 f
       1         -0.672430        2.000000        0.00000000        0.00000001        0.00000002        0.00000001
       2         -0.669483        2.000000        0.00000025        0.00000046        0.00000324        0.00000105
       3         -0.668614        2.000000        0.00000000        0.00000000        0.00000000        0.00000000
       4         -0.667955        2.000000        0.00000000        0.00000000        0.00000000        0.00000000
       5         -0.667056        2.000000        0.00000000        0.00000000        0.00000000        0.00000000
       6         -0.666292        2.000000        0.00000000        0.00000000        0.00000000        0.00000000
       7         -0.665197        2.000000        0.00000025        0.00000037        0.00000157        0.00000038
       8         -0.664753        2.000000        0.00000000        0.00000000        0.00000000        0.00000000
       9         -0.663687        2.000000        0.00000000        0.00000010        0.00000050        0.00000014
      10         -0.663175        2.000000        0.00000668        0.00002209        0.00012750        0.00002533
      11         -0.661580        2.000000        0.00000000        0.00000003        0.00000014        0.00000003
      12         -0.660455        2.000000        0.00000000        0.00000002        0.00000007        0.00000001
      13         -0.659162        2.000000        0.00000000        0.00000001        0.00000007        0.00000001
      14         -0.657063        2.000000        0.00000002        0.00000001        0.00000014        0.00000005
      15         -0.656320        2.000000        0.00000000        0.00000004        0.00000019        0.00000003
      16         -0.655890        2.000000        0.00000014        0.00000030        0.00000179        0.00000056
      17         -0.655624        2.000000        0.00000000        0.00000001        0.00000002        0.00000000
      18         -0.655323        2.000000        0.00000144        0.00000545        0.00003221        0.00000675
      19         -0.655233        2.000000        0.00000001        0.00000008        0.00000015        0.00000004
      20         -0.654915        2.000000        0.00000547        0.00001206        0.00007342        0.00001963
      21         -0.653870        2.000000        0.00000002        0.00000005        0.00000016        0.00000003
      22         -0.653373        2.000000        0.00000002        0.00000022        0.00000275        0.00000075
      23         -0.652901        2.000000        0.00000007        0.00000024        0.00000035        0.00000019
      24         -0.651720        2.000000        0.00000004        0.00000129        0.00000845        0.00000092
      25         -0.651508        2.000000        0.00000003        0.00000194        0.00001235        0.00000149
      26         -0.650655        2.000000        0.00000000        0.00000024        0.00000074        0.00000017
      27         -0.649699        2.000000        0.00000015        0.00000320        0.00000838        0.00000306
      28         -0.649408        2.000000        0.00000015        0.00000073        0.00000154        0.00000068
      29         -0.648811        2.000000        0.00000082        0.00000348        0.00000763        0.00000307
      30         -0.648716        2.000000        0.00000345        0.00000661        0.00003527        0.00000837
      31         -0.647328        2.000000        0.00000001        0.00000011        0.00000257        0.00000055
      32         -0.646555        2.000000        0.00000072        0.00000227        0.00004513        0.00001233
      33         -0.646412        2.000000        0.00000616        0.00005602        0.00014998        0.00003730
      34         -0.645775        2.000000        0.00000076        0.00000210        0.00004996        0.00001541
      35         -0.644835        2.000000        0.00000140        0.00000253        0.00001047        0.00000296
      36         -0.644778        2.000000        0.00000337        0.00001582        0.00002897        0.00001127
      37         -0.644567        2.000000        0.00000373        0.00000629        0.00009036        0.00002334
      38         -0.644393        2.000000        0.00000170        0.00000458        0.00008284        0.00001618
      39         -0.644271        2.000000        0.00000018        0.00000242        0.00004869        0.00000696
      40         -0.643299        2.000000        0.00000043        0.00000679        0.00008970        0.00002378
      41         -0.643003        2.000000        0.00000223        0.00000345        0.00002088        0.00000861
      42         -0.642780        2.000000        0.00000003        0.00000126        0.00001332        0.00000247
      43         -0.642567        2.000000        0.00001517        0.00012117        0.00040395        0.00010639
      44         -0.642113        2.000000        0.00000013        0.00000217        0.00000298        0.00000138
      45         -0.641741        2.000000        0.00001344        0.00006003        0.00029563        0.00006060
      46         -0.641499        2.000000        0.00000279        0.00002044        0.00006966        0.00001909
      47         -0.640713        2.000000        0.00000065        0.00000639        0.00002779        0.00000664
      48         -0.640530        2.000000        0.00000001        0.00000019        0.00000240        0.00000044
      49         -0.640030        2.000000        0.00000016        0.00000280        0.00001445        0.00000350
      50         -0.639867        2.000000        0.00000175        0.00001718        0.00002247        0.00001286
      51         -0.639444        2.000000        0.00000038        0.00000091        0.00000698        0.00000311
      52         -0.639210        2.000000        0.00000005        0.00000191        0.00001559        0.00000282
      53         -0.639146        2.000000        0.00000343        0.00001264        0.00011272        0.00002214
      54         -0.638732        2.000000        0.00000322        0.00000312        0.00007886        0.00001087
      55         -0.638289        2.000000        0.00000079        0.00000082        0.00001170        0.00000166
      56         -0.637321        2.000000        0.00000030        0.00000412        0.00003243        0.00000513
      57         -0.637203        2.000000        0.00000357        0.00001841        0.00009144        0.00001946
      58         -0.637066        2.000000        0.00000523        0.00007877        0.00022018        0.00006617
      59         -0.636675        2.000000        0.00000226        0.00000983        0.00006252        0.00001305
      60         -0.635935        2.000000        0.00001242        0.00001164        0.00023051        0.00003058
      61         -0.635227        2.000000        0.00000220        0.00004801        0.00010544        0.00004351
      62         -0.635107        2.000000        0.00000021        0.00000043        0.00000972        0.00000350
      63         -0.634833        2.000000        0.00000002        0.00000051        0.00000056        0.00000018
      64         -0.634470        2.000000        0.00000024        0.00000126        0.00001421        0.00000464
      65         -0.634367        2.000000        0.00000067        0.00000202        0.00000711        0.00000280
      66         -0.634038        2.000000        0.00000010        0.00000032        0.00000457        0.00000066
      67         -0.633843        2.000000        0.00000065        0.00000084        0.00002360        0.00000886
      68         -0.633384        2.000000        0.00000103        0.00000080        0.00004305        0.00000709
      69         -0.633044        2.000000        0.00000134        0.00001403        0.00004140        0.00001516
      70         -0.632857        2.000000        0.00000071        0.00001849        0.00004260        0.00001390
      71         -0.632275        2.000000        0.00000142        0.00000103        0.00004069        0.00000921
      72         -0.632105        2.000000        0.00000000        0.00000113        0.00000556        0.00000159
      73         -0.631869        2.000000        0.00000002        0.00000178        0.00002633        0.00000691
      74         -0.630858        2.000000        0.00000001        0.00000215        0.00000319        0.00000187
      75         -0.630633        2.000000        0.00000008        0.00000108        0.00000765        0.00000072
      76         -0.630425        2.000000        0.00000046        0.00000021        0.00000723        0.00000133
      77         -0.629951        2.000000        0.00000010        0.00000148        0.00001088        0.00000394
      78         -0.629454        2.000000        0.00000006        0.00000104        0.00000532        0.00000129
      79         -0.628653        2.000000        0.00000041        0.00000390        0.00001545        0.00000608
      80         -0.628576        2.000000        0.00000032        0.00000147        0.00000224        0.00000168
      81         -0.628358        2.000000        0.00000000        0.00000022        0.00000117        0.00000020
      82         -0.628217        2.000000        0.00000049        0.00000038        0.00001311        0.00000196
      83         -0.627320        2.000000        0.00000006        0.00000107        0.00001349        0.00000329
      84         -0.626841        2.000000        0.00000001        0.00000177        0.00000309        0.00000169
      85         -0.626336        2.000000        0.00000008        0.00000460        0.00002185        0.00000166
      86         -0.626147        2.000000        0.00000007        0.00000139        0.00002784        0.00000555
      87         -0.625987        2.000000        0.00000340        0.00001367        0.00003607        0.00001736
      88         -0.625774        2.000000        0.00000026        0.00000079        0.00005336        0.00001081
      89         -0.625361        2.000000        0.00000110        0.00000480        0.00002304        0.00000558
      90         -0.625165        2.000000        0.00000007        0.00000246        0.00001476        0.00000078
      91         -0.624866        2.000000        0.00000009        0.00000294        0.00002102        0.00000473
      92         -0.624565        2.000000        0.00000005        0.00000339        0.00001388        0.00000274
      93         -0.624237        2.000000        0.00000014        0.00000054        0.00004379        0.00000467
      94         -0.623721        2.000000        0.00000027        0.00000136        0.00009547        0.00001826
      95         -0.623594        2.000000        0.00000001        0.00000117        0.00002831        0.00000611
      96         -0.623257        2.000000        0.00000006        0.00000059        0.00003380        0.00000930
      97         -0.622851        2.000000        0.00000145        0.00001565        0.00006767        0.00003160
      98         -0.622232        2.000000        0.00000007        0.00000054        0.00004712        0.00000684
      99         -0.622173        2.000000        0.00000000        0.00000282        0.00001793        0.00000416
     100         -0.622079        2.000000        0.00000079        0.00000099        0.00000397        0.00000218
     101         -0.621451        2.000000        0.00000148        0.00000356        0.00002748        0.00000878
     102         -0.621089        2.000000        0.00000102        0.00000321        0.00000660        0.00000265
     103         -0.620735        2.000000        0.00000025        0.00000092        0.00003615        0.00000629
     104         -0.620425        2.000000        0.00000105        0.00000319        0.00012625        0.00002398
     105         -0.619781        2.000000        0.00000184        0.00000404        0.00002694        0.00001637
     106         -0.619575        2.000000        0.00000028        0.00002791        0.00011993        0.00004332
     107         -0.618915        2.000000        0.00000821        0.00002912        0.00013364        0.00003086
     108         -0.618512        2.000000        0.00000519        0.00001223        0.00020255        0.00002596
     109         -0.617954        2.000000        0.00000518        0.00002414        0.00002988        0.00000504
     110         -0.617665        2.000000        0.00000063        0.00001308        0.00003278        0.00000492
     111         -0.617194        2.000000        0.00000051        0.00000104        0.00000740        0.00000032
     112         -0.616932        2.000000        0.00000005        0.00001090        0.00002313        0.00000413
     113         -0.616563        2.000000        0.00000062        0.00000199        0.00000277        0.00000073
     114         -0.616066        2.000000        0.00000008        0.00000274        0.00000967        0.00000520
     115         -0.615647        2.000000        0.00000077        0.00000046        0.00000427        0.00000174
     116         -0.615401        2.000000        0.00000012        0.00000386        0.00002189        0.00000554
     117         -0.614602        2.000000        0.00000197        0.00001265        0.00007607        0.00001505
     118         -0.614459        2.000000        0.00000115        0.00000044        0.00001591        0.00000761
     119         -0.614065        2.000000        0.00000360        0.00000886        0.00006322        0.00003180
     120         -0.613776        2.000000        0.00000163        0.00001808        0.00008201        0.00001509
     121         -0.613333        2.000000        0.00000799        0.00004381        0.00023087        0.00005978
     122         -0.613233        2.000000        0.00000735        0.00007274        0.00036310        0.00007469
     123         -0.612983        2.000000        0.00001257        0.00002511        0.00010266        0.00003506
     124         -0.612581        2.000000        0.00002438        0.00012824        0.00053659        0.00014740
     125         -0.612469        2.000000        0.00000446        0.00001003        0.00003564        0.00001346
     126         -0.611596        2.000000        0.00000009        0.00000926        0.00001664        0.00000452
     127         -0.611199        2.000000        0.00000212        0.00001454        0.00003185        0.00001155
     128         -0.611011        2.000000        0.00000346        0.00002011        0.00008687        0.00003132
     129         -0.610802        2.000000        0.00000009        0.00000160        0.00000506        0.00000301
     130         -0.610602        2.000000        0.00000212        0.00001223        0.00005465        0.00001202
     131         -0.610315        2.000000        0.00000191        0.00000082        0.00002083        0.00000913
     132         -0.608920        2.000000        0.00000048        0.00000255        0.00002170        0.00000259
     133         -0.608714        2.000000        0.00000003        0.00000003        0.00000025        0.00000058
     134         -0.608689        2.000000        0.00000009        0.00000083        0.00000225        0.00000108
     135         -0.607712        2.000000        0.00000000        0.00000021        0.00000310        0.00000063
     136         -0.607241        2.000000        0.00000035        0.00000454        0.00001460        0.00000300
     137         -0.607015        2.000000        0.00000005        0.00001059        0.00002120        0.00001152
     138         -0.606961        2.000000        0.00000035        0.00000165        0.00001148        0.00000125
     139         -0.606668        2.000000        0.00000044        0.00000878        0.00001400        0.00000882
     140         -0.606217        2.000000        0.00000078        0.00000334        0.00004502        0.00000726
     141         -0.605760        2.000000        0.00000199        0.00000283        0.00005280        0.00000719
     142         -0.605530        2.000000        0.00000404        0.00001373        0.00006468        0.00001807
     143         -0.604726        2.000000        0.00000490        0.00000607        0.00008810        0.00002928
     144         -0.604251        2.000000        0.00000036        0.00000036        0.00000551        0.00000310
     145         -0.604012        2.000000        0.00000109        0.00000072        0.00001535        0.00000775
     146         -0.603621        2.000000        0.00000339        0.00005414        0.00019654        0.00004806
     147         -0.602798        2.000000        0.00000088        0.00001583        0.00008943        0.00001232
     148         -0.602043        2.000000        0.00000899        0.00001304        0.00004753        0.00001880
     149         -0.601806        2.000000        0.00000131        0.00002114        0.00003030        0.00002038
     150         -0.601164        2.000000        0.00000008        0.00000013        0.00000211        0.00000038
     151         -0.600494        2.000000        0.00000015        0.00000124        0.00002266        0.00000274
     152         -0.600235        2.000000        0.00000017        0.00001226        0.00006928        0.00001133
     153         -0.599390        2.000000        0.00000010        0.00000063        0.00001198        0.00000189
     154         -0.598787        2.000000        0.00000003        0.00000003        0.00000153        0.00000028
     155         -0.598286        2.000000        0.00000025        0.00000023        0.00002194        0.00000468
     156         -0.596934        2.000000        0.00000086        0.00000808        0.00003231        0.00001518
     157         -0.596320        2.000000        0.00000059        0.00000328        0.00002571        0.00001554
     158         -0.595753        2.000000        0.00000632        0.00003191        0.00012661        0.00002835
     159         -0.594631        2.000000        0.00000000        0.00000000        0.00000011        0.00000002
     160         -0.593777        2.000000        0.00000010        0.00000010        0.00000215        0.00000040
     161         -0.592082        2.000000        0.00000000        0.00000001        0.00000030        0.00000009
     162         -0.589122        2.000000        0.00000042        0.00000135        0.00003068        0.00002123
     163         -0.586735        2.000000        0.00000000        0.00000000        0.00000000        0.00000000
     164         -0.585766        2.000000        0.00000000        0.00000000        0.00000003        0.00000000
     165         -0.585182        2.000000        0.00000000        0.00000003        0.00000024        0.00000016
     166         -0.573903        2.000000        0.00000014        0.00000057        0.00000344        0.00000096
     167         -0.232303        2.000000        0.00000000        0.00000000        0.00000000        0.00000000
     168         -0.228380        2.000000        0.00000034        0.00000075        0.00000280        0.00000081
     169         -0.226510        2.000000        0.00002701        0.00003857        0.00010711        0.00002558
     170         -0.223708        2.000000        0.00000000        0.00000000        0.00000000        0.00000000
     171         -0.220593        2.000000        0.00000002        0.00000009        0.00000037        0.00000006
     172         -0.220130        2.000000        0.00000000        0.00000001        0.00000003        0.00000000
     173         -0.218641        2.000000        0.00000000        0.00000019        0.00000092        0.00000027
     174         -0.218322        2.000000        0.00000000        0.00000000        0.00000000        0.00000000
     175         -0.217040        2.000000        0.00000004        0.00000029        0.00000097        0.00000010
     176         -0.215954        2.000000        0.00000052        0.00000087        0.00000221        0.00000027
     177         -0.215808        2.000000        0.00001448        0.00002634        0.00005768        0.00000796
     178         -0.215345        2.000000        0.00000002        0.00000003        0.00000002        0.00000001
     179         -0.212987        2.000000        0.00000000        0.00000003        0.00000003        0.00000000
     180         -0.212274        2.000000        0.00000001        0.00000002        0.00000005        0.00000001
     181         -0.212168        2.000000        0.00000002        0.00000008        0.00000014        0.00000001
     182         -0.211357        2.000000        0.00000010        0.00000009        0.00000078        0.00000016
     183         -0.210843        2.000000        0.00000000        0.00000004        0.00000010        0.00000004
     184         -0.210303        2.000000        0.00000001        0.00000086        0.00000235        0.00000061
     185         -0.209997        2.000000        0.00000028        0.00000562        0.00003214        0.00000721
     186         -0.209803        2.000000        0.00000001        0.00000018        0.00000090        0.00000010
     187         -0.209469        2.000000        0.00000002        0.00000139        0.00000631        0.00000152
     188         -0.209379        2.000000        0.00000004        0.00000000        0.00000003        0.00000001
     189         -0.208401        2.000000        0.00000002        0.00000008        0.00000023        0.00000011
     190         -0.208067        2.000000        0.00000003        0.00000001        0.00000013        0.00000003
     191         -0.207628        2.000000        0.00000004        0.00000005        0.00000005        0.00000001
     192         -0.207419        2.000000        0.00000005        0.00000015        0.00000068        0.00000005
     193         -0.206511        2.000000        0.00000003        0.00000042        0.00000180        0.00000031
     194         -0.206338        2.000000        0.00000018        0.00000280        0.00000986        0.00000173
     195         -0.205963        2.000000        0.00000001        0.00000028        0.00000216        0.00000060
     196         -0.205597        2.000000        0.00000148        0.00000272        0.00000827        0.00000386
     197         -0.205313        2.000000        0.00001694        0.00000981        0.00001714        0.00000303
     198         -0.204841        2.000000        0.00000130        0.00000088        0.00000339        0.00000101
     199         -0.203616        2.000000        0.00000213        0.00000280        0.00002383        0.00000314
     200         -0.203451        2.000000        0.00000000        0.00000006        0.00000013        0.00000003
     201         -0.203030        2.000000        0.00000022        0.00000031        0.00000039        0.00000018
     202         -0.202913        2.000000        0.00000243        0.00000660        0.00000248        0.00000288
     203         -0.202644        2.000000        0.00000009        0.00000294        0.00000216        0.00000157
     204         -0.202503        2.000000        0.00000126        0.00000029        0.00000410        0.00000028
     205         -0.201994        2.000000        0.00001293        0.00000826        0.00002106        0.00000380
     206         -0.199814        2.000000        0.00000002        0.00000008        0.00000171        0.00000054
     207         -0.199636        2.000000        0.00000057        0.00000063        0.00000118        0.00000020
     208         -0.198721        2.000000        0.00000108        0.00000111        0.00000588        0.00000168
     209         -0.198436        2.000000        0.00000001        0.00000077        0.00000543        0.00000152
     210         -0.198253        2.000000        0.00000319        0.00000029        0.00000307        0.00000087
     211         -0.197512        2.000000        0.00000051        0.00000143        0.00000617        0.00000258
     212         -0.197220        2.000000        0.00011074        0.00001855        0.00022811        0.00005907
     213         -0.196993        2.000000        0.00003392        0.00001021        0.00020948        0.00007324
     214         -0.196926        2.000000        0.00000645        0.00000891        0.00009645        0.00003253
     215         -0.196592        2.000000        0.00000176        0.00013619        0.00032583        0.00003374
     216         -0.195971        2.000000        0.00002239        0.00000702        0.00002355        0.00000292
     217         -0.195555        2.000000        0.00000192        0.00000138        0.00001389        0.00000499
     218         -0.195413        2.000000        0.00000635        0.00001401        0.00002118        0.00000364
     219         -0.195235        2.000000        0.00000000        0.00000212        0.00000165        0.00000082
     220         -0.194013        2.000000        0.00001268        0.00002454        0.00002365        0.00001745
     221         -0.193891        2.000000        0.00000680        0.00000341        0.00003715        0.00000537
     222         -0.193483        2.000000        0.00000578        0.00000026        0.00000696        0.00000045
     223         -0.192982        2.000000        0.00003173        0.00001851        0.00002615        0.00000461
     224         -0.192738        2.000000        0.00000155        0.00000121        0.00001343        0.00000248
     225         -0.192586        2.000000        0.00000023        0.00001710        0.00001066        0.00000722
     226         -0.192138        2.000000        0.00001499        0.00003091        0.00003136        0.00000637
     227         -0.191972        2.000000        0.00000275        0.00001402        0.00002102        0.00000641
     228         -0.191590        2.000000        0.00003073        0.00001059        0.00015687        0.00001473
     229         -0.191457        2.000000        0.00001621        0.00000104        0.00003728        0.00000150
     230         -0.191076        2.000000        0.00000606        0.00000209        0.00002945        0.00000848
     231         -0.190560        2.000000        0.00000014        0.00000793        0.00010604        0.00002891
     232         -0.190385        2.000000        0.00000141        0.00000114        0.00002207        0.00001015
     233         -0.190304        2.000000        0.00000788        0.00002259        0.00008335        0.00001998
     234         -0.190023        2.000000        0.00004566        0.00004364        0.00006378        0.00000838
     235         -0.189651        2.000000        0.00001716        0.00036602        0.00055173        0.00014037
     236         -0.189547        2.000000        0.00001650        0.00001645        0.00013880        0.00004719
     237         -0.189184        2.000000        0.00003222        0.00004585        0.00006241        0.00000969
     238         -0.188852        2.000000        0.00020175        0.00011588        0.00019732        0.00000521
     239         -0.188649        2.000000        0.00034387        0.00009391        0.00097651        0.00012112
     240         -0.188433        2.000000        0.00002512        0.00000862        0.00005060        0.00000523
     241         -0.188236        2.000000        0.00006839        0.00028829        0.00031107        0.00003422
     242         -0.187848        2.000000        0.00002573        0.00000501        0.00007990        0.00000905
     243         -0.187625        2.000000        0.00001370        0.00000587        0.00008602        0.00001343
     244         -0.187413        2.000000        0.00000522        0.00000141        0.00002954        0.00000259
     245         -0.187322        2.000000        0.00000036        0.00003729        0.00015181        0.00004276
     246         -0.187050        2.000000        0.00000040        0.00002781        0.00002088        0.00000787
     247         -0.186387        2.000000        0.00003832        0.00004406        0.00008440        0.00001498
     248         -0.186179        2.000000        0.00000371        0.00001074        0.00001732        0.00000515
     249         -0.185204        2.000000        0.00004379        0.00003975        0.00011538        0.00001221
     250         -0.185131        2.000000        0.00000289        0.00000516        0.00003010        0.00000242
     251         -0.185068        2.000000        0.00011992        0.00014128        0.00047290        0.00002985
     252         -0.184904        2.000000        0.00112295        0.00059915        0.00135949        0.00030332
     253         -0.184464        2.000000        0.00009963        0.00004053        0.00011775        0.00002854
     254         -0.184113        2.000000        0.00010177        0.00008310        0.00013979        0.00002832
     255         -0.183824        2.000000        0.00028456        0.00006824        0.00009321        0.00001732
     256         -0.183682        2.000000        0.00000690        0.00000979        0.00005741        0.00000488
     257         -0.183323        2.000000        0.00008708        0.00001573        0.00006432        0.00001201
     258         -0.183170        2.000000        0.00004822        0.00028422        0.00040317        0.00008534
     259         -0.182926        2.000000        0.00003412        0.00002079        0.00011032        0.00003457