# Projected DOS for atomic kind AuB1 at iteration step i = 0, E(Fermi) =     0.128746 a.u.
#     MO Eigenvalue [a.u.]      Occupation                 s                 p                 d                 f
       1         -0.672430        2.000000        0.00008443        0.00021801        0.00069723        0.00019299
       2         -0.669483        2.000000        0.00000001        0.00000002        0.00000008        0.00000002
       3         -0.668614        2.000000        0.00000980        0.00003312        0.00009384        0.00001656
       4         -0.667955        2.000000        0.00001219        0.00002221        0.00005490        0.00001831
       5         -0.667056        2.000000        0.00003759        0.00008131        0.00017662        0.00003229
       6         -0.666292        2.000000        0.00001418        0.00003520        0.00008175        0.00001386
       7         -0.665197        2.000000        0.00000002        0.00000004        0.00000008        0.00000002
       8         -0.664753        2.000000        0.00000805        0.00001414        0.00002630        0.00000647
       9         -0.663687        2.000000        0.00000000        0.00000000        0.00000000        0.00000000
      10         -0.663175        2.000000        0.00000005        0.00000010        0.00000027        0.00000007
      11         -0.661580        2.000000        0.00049708        0.00105446        0.00274376        0.00069992
      12         -0.660455        2.000000        0.00055392        0.00110007        0.00261381        0.00072124
      13         -0.659162        2.000000        0.00018718        0.00040876        0.00109135        0.00026277
      14         -0.657063        2.000000        0.00020654        0.00050098        0.00162540        0.00041415
      15         -0.656320        2.000000        0.00004669        0.00010739        0.00032022        0.00008335
      16         -0.655890        2.000000        0.00000127        0.00000259        0.00000720        0.00000210
      17         -0.655624        2.000000        0.00026497        0.00058083        0.00176998        0.00052588
      18         -0.655323        2.000000        0.00001119        0.00003227        0.00010751        0.00003162
      19         -0.655233        2.000000        0.00029416        0.00082480        0.00276646        0.00083941
      20         -0.654915        2.000000        0.00000532        0.00001415        0.00004693        0.00001453
      21         -0.653870        2.000000        0.00001184        0.00003635        0.00013256        0.00003898
      22         -0.653373        2.000000        0.00000083        0.00000284        0.00001151        0.00000347
      23         -0.652901        2.000000        0.00000010        0.00000018        0.00000051        0.00000018
      24         -0.651720        2.000000        0.00000734        0.00003968        0.00023208        0.00006145
      25         -0.651508        2.000000        0.00000821        0.00002022        0.00006084        0.00001476
      26         -0.650655        2.000000        0.00000552        0.00001507        0.00005299        0.00001376
      27         -0.649699        2.000000        0.00006536        0.00019241        0.00064445        0.00019798
      28         -0.649408        2.000000        0.00008288        0.00030417        0.00114461        0.00033005
      29         -0.648811        2.000000        0.00004178        0.00010598        0.00034798        0.00010931
      30         -0.648716        2.000000        0.00000970        0.00002519        0.00008756        0.00002720
      31         -0.647328        2.000000        0.00001225        0.00002721        0.00007663        0.00002299
      32         -0.646555        2.000000        0.00001106        0.00002198        0.00006216        0.00001942
      33         -0.646412        2.000000        0.00000047        0.00000097        0.00000289        0.00000097
      34         -0.645775        2.000000        0.00000328        0.00000668        0.00002005        0.00000624
      35         -0.644835        2.000000        0.00031902        0.00064542        0.00173426        0.00059885
      36         -0.644778        2.000000        0.00015664        0.00031445        0.00085366        0.00029471
      37         -0.644567        2.000000        0.00003632        0.00008201        0.00025549        0.00007685
      38         -0.644393        2.000000        0.00000510        0.00004091        0.00020492        0.00004877
      39         -0.644271        2.000000        0.00000945        0.00003058        0.00010965        0.00003412
      40         -0.643299        2.000000        0.00026042        0.00047732        0.00124247        0.00044275
      41         -0.643003        2.000000        0.00009034        0.00017101        0.00044422        0.00015387
      42         -0.642780        2.000000        0.00007246        0.00013251        0.00034236        0.00012383
      43         -0.642567        2.000000        0.00000623        0.00000950        0.00001658        0.00000584
      44         -0.642113        2.000000        0.00008113        0.00016921        0.00044682        0.00015211
      45         -0.641741        2.000000        0.00000446        0.00000721        0.00001309        0.00000518
      46         -0.641499        2.000000        0.00007954        0.00015420        0.00034203        0.00010485
      47         -0.640713        2.000000        0.00013207        0.00026120        0.00074580        0.00024347
      48         -0.640530        2.000000        0.00002888        0.00010230        0.00054828        0.00017968
      49         -0.640030        2.000000        0.00000163        0.00001456        0.00006677        0.00001483
      50         -0.639867        2.000000        0.00001265        0.00002379        0.00004974        0.00001597
      51         -0.639444        2.000000        0.00003642        0.00009648        0.00022475        0.00005122
      52         -0.639210        2.000000        0.00002078        0.00004236        0.00009368        0.00002811
      53         -0.639146        2.000000        0.00002000        0.00004618        0.00013865        0.00004018
      54         -0.638732        2.000000        0.00006078        0.00012055        0.00031735        0.00010219
      55         -0.638289        2.000000        0.00015405        0.00031711        0.00087794        0.00030311
      56         -0.637321        2.000000        0.00003834        0.00008122        0.00022514        0.00007529
      57         -0.637203        2.000000        0.00017278        0.00033938        0.00091603        0.00030340
      58         -0.637066        2.000000        0.00008158        0.00016372        0.00043081        0.00013962
      59         -0.636675        2.000000        0.00005836        0.00011311        0.00029220        0.00009791
      60         -0.635935        2.000000        0.00000730        0.00001694        0.00005717        0.00002002
      61         -0.635227        2.000000        0.00000656        0.00001831        0.00006117        0.00002092
      62         -0.635107        2.000000        0.00003098        0.00007567        0.00020119        0.00005073
      63         -0.634833        2.000000        0.00017254        0.00042152        0.00103165        0.00022873
      64         -0.634470        2.000000        0.00000472        0.00004104        0.00021056        0.00006050
      65         -0.634367        2.000000        0.00000664        0.00001520        0.00004717        0.00001609
      66         -0.634038        2.000000        0.00002434        0.00008881        0.00032384        0.00006926
      67         -0.633843        2.000000        0.00001830        0.00019202        0.00123210        0.00035931
      68         -0.633384        2.000000        0.00000985        0.00002517        0.00010804        0.00003074
      69         -0.633044        2.000000        0.00002102        0.00008259        0.00031490        0.00007408
      70         -0.632857        2.000000        0.00007316        0.00018454        0.00057318        0.00015981
      71         -0.632275        2.000000        0.00006792        0.00019283        0.00084518        0.00028400
      72         -0.632105        2.000000        0.00005131        0.00017075        0.00076295        0.00024866
      73         -0.631869        2.000000        0.00010135        0.00024772        0.00089849        0.00027143
      74         -0.630858        2.000000        0.00010817        0.00025318        0.00088072        0.00031558
      75         -0.630633        2.000000        0.00001358        0.00003291        0.00010405        0.00003059
      76         -0.630425        2.000000        0.00000168        0.00000484        0.00002143        0.00000740
      77         -0.629951        2.000000        0.00005482        0.00011164        0.00032800        0.00012202
      78         -0.629454        2.000000        0.00011688        0.00022457        0.00050980        0.00016493
      79         -0.628653        2.000000        0.00002979        0.00007386        0.00028061        0.00010042
      80         -0.628576        2.000000        0.00003382        0.00006699        0.00018647        0.00006275
      81         -0.628358        2.000000        0.00003883        0.00009998        0.00031412        0.00009307
      82         -0.628217        2.000000        0.00005300        0.00013651        0.00052036        0.00018751
      83         -0.627320        2.000000        0.00005880        0.00009778        0.00023184        0.00010012
      84         -0.626841        2.000000        0.00000548        0.00001412        0.00004389        0.00001229
      85         -0.626336        2.000000        0.00004662        0.00010117        0.00030464        0.00010268
      86         -0.626147        2.000000        0.00002830        0.00005690        0.00014193        0.00004789
      87         -0.625987        2.000000        0.00000922        0.00002091        0.00006875        0.00002408
      88         -0.625774        2.000000        0.00016433        0.00034227        0.00093814        0.00030769
      89         -0.625361        2.000000        0.00003854        0.00007152        0.00016750        0.00006342
      90         -0.625165        2.000000        0.00000816        0.00001753        0.00005512        0.00002021
      91         -0.624866        2.000000        0.00001056        0.00001760        0.00004994        0.00002349
      92         -0.624565        2.000000        0.00001101        0.00002086        0.00005473        0.00002112
      93         -0.624237        2.000000        0.00004929        0.00009384        0.00024878        0.00009770
      94         -0.623721        2.000000        0.00000862        0.00001936        0.00007651        0.00003474
      95         -0.623594        2.000000        0.00000951        0.00002164        0.00006674        0.00002237
      96         -0.623257        2.000000        0.00010882        0.00021688        0.00067887        0.00028236
      97         -0.622851        2.000000        0.00001477        0.00002668        0.00007748        0.00003506
      98         -0.622232        2.000000        0.00008089        0.00014571        0.00037032        0.00016120
      99         -0.622173        2.000000        0.00010137        0.00017544        0.00042121        0.00018743
     100         -0.622079        2.000000        0.00000235        0.00000529        0.00001511        0.00000435
     101         -0.621451        2.000000        0.00001981        0.00003732        0.00010542        0.00004196
     102         -0.621089        2.000000        0.00001101        0.00002082        0.00005621        0.00002369
     103         -0.620735        2.000000        0.00000909        0.00002112        0.00006604        0.00002065
     104         -0.620425        2.000000        0.00001389        0.00004141        0.00015123        0.00004869
     105         -0.619781        2.000000        0.00000378        0.00000946        0.00003669        0.00001434
     106         -0.619575        2.000000        0.00000423        0.00000736        0.00002164        0.00000987
     107         -0.618915        2.000000        0.00000379        0.00000786        0.00002195        0.00000794
     108         -0.618512        2.000000        0.00000100        0.00000208        0.00000549        0.00000186
     109         -0.617954        2.000000        0.00004786        0.00011428        0.00035734        0.00011808
     110         -0.617665        2.000000        0.00003025        0.00005894        0.00017974        0.00007788
     111         -0.617194        2.000000        0.00078196        0.00181943        0.00528243        0.00153987
     112         -0.616932        2.000000        0.00003133        0.00007402        0.00022603        0.00007303
     113         -0.616563        2.000000        0.00002750        0.00004500        0.00011806        0.00005637
     114         -0.616066        2.000000        0.00000071        0.00000167        0.00000993        0.00000423
     115         -0.615647        2.000000        0.00004984        0.00009187        0.00028670        0.00013663
     116         -0.615401        2.000000        0.00001983        0.00004189        0.00012253        0.00004498
     117         -0.614602        2.000000        0.00001132        0.00002401        0.00006475        0.00002168
     118         -0.614459        2.000000        0.00000060        0.00000121        0.00000394        0.00000147
     119         -0.614065        2.000000        0.00000418        0.00000971        0.00003681        0.00001386
     120         -0.613776        2.000000        0.00000406        0.00000952        0.00003621        0.00001485
     121         -0.613333        2.000000        0.00000052        0.00000133        0.00000799        0.00000322
     122         -0.613233        2.000000        0.00000996        0.00002146        0.00006374        0.00002538
     123         -0.612983        2.000000        0.00000335        0.00000696        0.00001910        0.00000743
     124         -0.612581        2.000000        0.00000260        0.00000492        0.00001176        0.00000524
     125         -0.612469        2.000000        0.00000469        0.00000839        0.00002288        0.00001238
     126         -0.611596        2.000000        0.00000251        0.00000507        0.00001432        0.00000516
     127         -0.611199        2.000000        0.00000015        0.00000032        0.00000103        0.00000044
     128         -0.611011        2.000000        0.00000593        0.00001393        0.00004161        0.00001401
     129         -0.610802        2.000000        0.00001159        0.00002265        0.00006130        0.00002201
     130         -0.610602        2.000000        0.00000414        0.00000993        0.00003124        0.00001114
     131         -0.610315        2.000000        0.00000230        0.00000510        0.00001519        0.00000545
     132         -0.608920        2.000000        0.00000090        0.00000187        0.00000544        0.00000191
     133         -0.608714        2.000000        0.00000258        0.00000484        0.00001340        0.00000458
     134         -0.608689        2.000000        0.00000270        0.00000474        0.00001252        0.00000479
     135         -0.607712        2.000000        0.00001252        0.00002527        0.00007082        0.00002696
     136         -0.607241        2.000000        0.00000180        0.00000603        0.00002563        0.00000933
     137         -0.607015        2.000000        0.00006142        0.00013248        0.00039098        0.00014403
     138         -0.606961        2.000000        0.00001779        0.00004418        0.00014527        0.00005143
     139         -0.606668        2.000000        0.00002210        0.00004780        0.00014277        0.00005254
     140         -0.606217        2.000000        0.00000654        0.00001433        0.00004186        0.00001527
     141         -0.605760        2.000000        0.00000113        0.00000250        0.00000757        0.00000266
     142         -0.605530        2.000000        0.00000023        0.00000051        0.00000158        0.00000058
     143         -0.604726        2.000000        0.00000005        0.00000010        0.00000039        0.00000017
     144         -0.604251        2.000000        0.00000209        0.00000434        0.00001218        0.00000386
     145         -0.604012        2.000000        0.00000152        0.00000295        0.00000818        0.00000284
     146         -0.603621        2.000000        0.00000006        0.00000011        0.00000028        0.00000011
     147         -0.602798        2.000000        0.00000002        0.00000004        0.00000016        0.00000008
     148         -0.602043        2.000000        0.00000005        0.00000012        0.00000038        0.00000017
     149         -0.601806        2.000000        0.00000000        0.00000000        0.00000002        0.00000001
     150         -0.601164        2.000000        0.00000054        0.00000116        0.00000400        0.00000153
     151         -0.600494        2.000000        0.00000049        0.00000100        0.00000390        0.00000172
     152         -0.600235        2.000000        0.00000043        0.00000081        0.00000295        0.00000134
     153         -0.599390        2.000000        0.00000063        0.00000126        0.00000595        0.00000282
     154         -0.598787        2.000000        0.00000047        0.00000461        0.00002072        0.00000523
     155         -0.598286        2.000000        0.00000085        0.00000147        0.00000581        0.00000278
     156         -0.596934        2.000000        0.00000014        0.00000024        0.00000099        0.00000050
     157         -0.596320        2.000000        0.00000005        0.00000013        0.00000041        0.00000014
     158         -0.595753        2.000000        0.00000000        0.00000000        0.00000000        0.00000000
     159         -0.594631        2.000000        0.00000124        0.00000300        0.00000792        0.00000248
     160         -0.593777        2.000000        0.00000016        0.00000029        0.00000118        0.00000062
     161         -0.592082        2.000000        0.00000000        0.00000000        0.00000001        0.00000000
     162         -0.589122        2.000000        0.00000002        0.00000002        0.00000008        0.00000005
     163         -0.586735        2.000000        0.00000044        0.00000640        0.00002940        0.00000599
     164         -0.585766        2.000000        0.00000001        0.00000004        0.00000021        0.00000008
     165         -0.585182        2.000000        0.00000000        0.00000000        0.00000001        0.00000000
     166         -0.573903        2.000000        0.00000000        0.00000000        0.00000000        0.00000000
     167         -0.232303        2.000000        0.00000004        0.00000002        0.00000007        0.00000002
     168         -0.228380        2.000000        0.00000001        0.00000000        0.00000000        0.00000000
     169         -0.226510        2.000000        0.00000000        0.00000000        0.00000000        0.00000000
     170         -0.223708        2.000000        0.00000067        0.00000139        0.00000429        0.00000118
     171         -0.220593        2.000000        0.00143534        0.00087964        0.00207720        0.00028177
     172         -0.220130        2.000000        0.00003169        0.00005411        0.00012512        0.00003505
     173         -0.218641        2.000000        0.00000000        0.00000001        0.00000001        0.00000000
     174         -0.218322        2.000000        0.00002579        0.00002994        0.00009673        0.00001479
     175         -0.217040        2.000000        0.00000005        0.00000003        0.00000008        0.00000001
     176         -0.215954        2.000000        0.00000319        0.00000181        0.00000573        0.00000078
     177         -0.215808        2.000000        0.00000009        0.00000005        0.00000028        0.00000006
     178         -0.215345        2.000000        0.00006050        0.00007267        0.00014724        0.00002322
     179         -0.212987        2.000000        0.00000015        0.00000005        0.00000002        0.00000001
     180         -0.212274        2.000000        0.00001435        0.00001012        0.00005457        0.00001545
     181         -0.212168        2.000000        0.00022481        0.00013483        0.00033784        0.00006001
     182         -0.211357        2.000000        0.00259603        0.00113280        0.00343325        0.00057711
     183         -0.210843        2.000000        0.00028575        0.00019739        0.00046293        0.00008882
     184         -0.210303        2.000000        0.00055298        0.00049221        0.00293932        0.00069714
     185         -0.209997        2.000000        0.00031431        0.00025522        0.00114603        0.00018584
     186         -0.209803        2.000000        0.00000379        0.00000268        0.00001381        0.00000354
     187         -0.209469        2.000000        0.00001250        0.00001031        0.00003564        0.00000591
     188         -0.209379        2.000000        0.00064822        0.00012633        0.00038317        0.00006835
     189         -0.208401        2.000000        0.00038496        0.00014399        0.00035248        0.00004734
     190         -0.208067        2.000000        0.00199110        0.00198489        0.00448833        0.00068535
     191         -0.207628        2.000000        0.00002980        0.00002043        0.00005728        0.00000726
     192         -0.207419        2.000000        0.00036252        0.00013721        0.00054985        0.00007182
     193         -0.206511        2.000000        0.00000009        0.00000011        0.00000047        0.00000004
     194         -0.206338        2.000000        0.00000004        0.00000001        0.00000008        0.00000001
     195         -0.205963        2.000000        0.00153821        0.00049102        0.00211767        0.00029634
     196         -0.205597        2.000000        0.00000145        0.00000214        0.00001350        0.00000183
     197         -0.205313        2.000000        0.00000559        0.00000890        0.00002743        0.00000483
     198         -0.204841        2.000000        0.00002073        0.00004508        0.00023586        0.00004106
     199         -0.203616        2.000000        0.00002314        0.00000670        0.00002268        0.00000403
     200         -0.203451        2.000000        0.00252068        0.00106662        0.00293174        0.00047004
     201         -0.203030        2.000000        0.00027451        0.00011725        0.00035075        0.00004257
     202         -0.202913        2.000000        0.00040223        0.00047636        0.00185189        0.00035508
     203         -0.202644        2.000000        0.00019446        0.00030316        0.00106683        0.00018205
     204         -0.202503        2.000000        0.00057853        0.00121018        0.00364461        0.00057887
     205         -0.201994        2.000000        0.00012648        0.00021701        0.00081745        0.00016132
     206         -0.199814        2.000000        0.00052552        0.00031677        0.00025952        0.00002296
     207         -0.199636        2.000000        0.00003509        0.00046679        0.00331406        0.00076926
     208         -0.198721        2.000000        0.00003933        0.00005606        0.00073704        0.00026868
     209         -0.198436        2.000000        0.00002024        0.00008225        0.00054746        0.00015109
     210         -0.198253        2.000000        0.00006368        0.00003447        0.00019305        0.00003969
     211         -0.197512        2.000000        0.00002704        0.00007232        0.00057432        0.00014283
     212         -0.197220        2.000000        0.00001269        0.00001236        0.00007288        0.00002334
     213         -0.196993        2.000000        0.00001683        0.00001401        0.00012899        0.00003442
     214         -0.196926        2.000000        0.00003959        0.00006719        0.00061247        0.00014779
     215         -0.196592        2.000000        0.00000588        0.00000321        0.00000707        0.00000178
     216         -0.195971        2.000000        0.00003497        0.00002768        0.00013432        0.00003760
     217         -0.195555        2.000000        0.00000674        0.00000192        0.00000366        0.00000036
     218         -0.195413        2.000000        0.00003929        0.00008667        0.00024778        0.00006432
     219         -0.195235        2.000000        0.00018549        0.00014037        0.00030907        0.00005271
     220         -0.194013        2.000000        0.00000300        0.00000278        0.00001188        0.00000177
     221         -0.193891        2.000000        0.00002238        0.00000279        0.00001573        0.00000281
     222         -0.193483        2.000000        0.00017742        0.00010026        0.00057582        0.00013349
     223         -0.192982        2.000000        0.00002392        0.00000478        0.00002487        0.00000473
     224         -0.192738        2.000000        0.00007220        0.00007008        0.00032581        0.00010069
     225         -0.192586        2.000000        0.00001532        0.00001302        0.00005523        0.00001595
     226         -0.192138        2.000000        0.00013596        0.00012396        0.00054877        0.00012061
     227         -0.191972        2.000000        0.00004821        0.00003584        0.00016698        0.00004057
     228         -0.191590        2.000000        0.00001123        0.00001134        0.00002674        0.00000607
     229         -0.191457        2.000000        0.00001552        0.00000320        0.00002248        0.00000456
     230         -0.191076        2.000000        0.00011606        0.00009814        0.00026323        0.00004087
     231         -0.190560        2.000000        0.00008172        0.00004779        0.00012448        0.00002594
     232         -0.190385        2.000000        0.00003920        0.00002167        0.00009110        0.00002414
     233         -0.190304        2.000000        0.00001038        0.00000739        0.00003931        0.00001272
     234         -0.190023        2.000000        0.00001436        0.00003613        0.00016226        0.00005841
     235         -0.189651        2.000000        0.00002587        0.00001677        0.00007887        0.00002477
     236         -0.189547        2.000000        0.00003791        0.00007562        0.00015759        0.00004947
     237         -0.189184        2.000000        0.00008228        0.00014118        0.00052055        0.00009750
     238         -0.188852        2.000000        0.00007993        0.00015712        0.00060853        0.00008584
     239         -0.188649        2.000000        0.00000313        0.00000769        0.00003549        0.00000967
     240         -0.188433        2.000000        0.00000335        0.00001328        0.00014686        0.00004387
     241         -0.188236        2.000000        0.00000797        0.00000727        0.00003503        0.00000810
     242         -0.187848        2.000000        0.00000094        0.00000318        0.00004040        0.00001063
     243         -0.187625        2.000000        0.00000571        0.00000478        0.00000430        0.00000089
     244         -0.187413        2.000000        0.00001599        0.00001193        0.00010029        0.00002138
     245         -0.187322        2.000000        0.00001200        0.00001107        0.00007847        0.00002238
     246         -0.187050        2.000000        0.00000599        0.00001130        0.00003887        0.00001014
     247         -0.186387        2.000000        0.00002966        0.00004709        0.00008724        0.00001374
     248         -0.186179        2.000000        0.00000599        0.00001045        0.00004143        0.00000526
     249         -0.185204        2.000000        0.00059039        0.00018164        0.00069945        0.00008644
     250         -0.185131        2.000000        0.00011896        0.00018006        0.00061892        0.00007717
     251         -0.185068        2.000000        0.00010773        0.00004355        0.00018096        0.00002182
     252         -0.184904        2.000000        0.00000593        0.00002449        0.00007633        0.00001018
     253         -0.184464        2.000000        0.00003450        0.00009178        0.00032493        0.00004608
     254         -0.184113        2.000000        0.00000286        0.00001163        0.00002719        0.00000352
     255         -0.183824        2.000000        0.00000547        0.00000786        0.00002674        0.00000435
     256         -0.183682        2.000000        0.00000738        0.00001397        0.00002538        0.00000403
     257         -0.183323        2.000000        0.00002631        0.00005229        0.00012317        0.00001925
     258         -0.183170        2.000000        0.00001141        0.00000300        0.00001034        0.00000141
     259         -0.182926        2.000000        0.00003512        0.00002707        0.00008710        0.00001273