# Projected DOS for atomic kind Au3 at iteration step i = 0, E(Fermi) =     0.128746 a.u.
#     MO Eigenvalue [a.u.]      Occupation                 s                 p                 d                 f
       1         -0.672430        2.000000        0.00005739        0.00016490        0.00055527        0.00011114
       2         -0.669483        2.000000        0.00000001        0.00000004        0.00000016        0.00000003
       3         -0.668614        2.000000        0.00004573        0.00019022        0.00074220        0.00013984
       4         -0.667955        2.000000        0.00003940        0.00017965        0.00076422        0.00015931
       5         -0.667056        2.000000        0.00004300        0.00016645        0.00062158        0.00011556
       6         -0.666292        2.000000        0.00007866        0.00034436        0.00143973        0.00030454
       7         -0.665197        2.000000        0.00000002        0.00000008        0.00000035        0.00000007
       8         -0.664753        2.000000        0.00004270        0.00022738        0.00108504        0.00025736
       9         -0.663687        2.000000        0.00000000        0.00000000        0.00000001        0.00000000
      10         -0.663175        2.000000        0.00000001        0.00000004        0.00000013        0.00000003
      11         -0.661580        2.000000        0.00013507        0.00032589        0.00102973        0.00025306
      12         -0.660455        2.000000        0.00004263        0.00011273        0.00038063        0.00009070
      13         -0.659162        2.000000        0.00008665        0.00019124        0.00053868        0.00014161
      14         -0.657063        2.000000        0.00007606        0.00026920        0.00099915        0.00019629
      15         -0.656320        2.000000        0.00022111        0.00075518        0.00250191        0.00044394
      16         -0.655890        2.000000        0.00000117        0.00000290        0.00000928        0.00000231
      17         -0.655624        2.000000        0.00036733        0.00081502        0.00246943        0.00068328
      18         -0.655323        2.000000        0.00001695        0.00004435        0.00014006        0.00003037
      19         -0.655233        2.000000        0.00026029        0.00072644        0.00252972        0.00055150
      20         -0.654915        2.000000        0.00000472        0.00001293        0.00004478        0.00000996
      21         -0.653870        2.000000        0.00007283        0.00028612        0.00107394        0.00022068
      22         -0.653373        2.000000        0.00000857        0.00003678        0.00014614        0.00003084
      23         -0.652901        2.000000        0.00000089        0.00000348        0.00001312        0.00000269
      24         -0.651720        2.000000        0.00015393        0.00053544        0.00213952        0.00048671
      25         -0.651508        2.000000        0.00006887        0.00032529        0.00149193        0.00033853
      26         -0.650655        2.000000        0.00009634        0.00042455        0.00175094        0.00038733
      27         -0.649699        2.000000        0.00027366        0.00065017        0.00207604        0.00054508
      28         -0.649408        2.000000        0.00062247        0.00144459        0.00449256        0.00119165
      29         -0.648811        2.000000        0.00006663        0.00017605        0.00067530        0.00018530
      30         -0.648716        2.000000        0.00002334        0.00006096        0.00022287        0.00006059
      31         -0.647328        2.000000        0.00001869        0.00007353        0.00028994        0.00006414
      32         -0.646555        2.000000        0.00002908        0.00008753        0.00029181        0.00006266
      33         -0.646412        2.000000        0.00000025        0.00000078        0.00000260        0.00000050
      34         -0.645775        2.000000        0.00002180        0.00008270        0.00032426        0.00006922
      35         -0.644835        2.000000        0.00021135        0.00058193        0.00182480        0.00035598
      36         -0.644778        2.000000        0.00006311        0.00017231        0.00055248        0.00010925
      37         -0.644567        2.000000        0.00006303        0.00018044        0.00064700        0.00016114
      38         -0.644393        2.000000        0.00042548        0.00118911        0.00421706        0.00109396
      39         -0.644271        2.000000        0.00019180        0.00053824        0.00191952        0.00049904
      40         -0.643299        2.000000        0.00024501        0.00070422        0.00225046        0.00044327
      41         -0.643003        2.000000        0.00008888        0.00025282        0.00080721        0.00015897
      42         -0.642780        2.000000        0.00007691        0.00024003        0.00085241        0.00018557
      43         -0.642567        2.000000        0.00001100        0.00003392        0.00010355        0.00001822
      44         -0.642113        2.000000        0.00016784        0.00057254        0.00200620        0.00042039
      45         -0.641741        2.000000        0.00000797        0.00002668        0.00010016        0.00002233
      46         -0.641499        2.000000        0.00007574        0.00024413        0.00076587        0.00013083
      47         -0.640713        2.000000        0.00005375        0.00016592        0.00063220        0.00016199
      48         -0.640530        2.000000        0.00009270        0.00035589        0.00168477        0.00047610
      49         -0.640030        2.000000        0.00001972        0.00007266        0.00028393        0.00005899
      50         -0.639867        2.000000        0.00000795        0.00002774        0.00010942        0.00002603
      51         -0.639444        2.000000        0.00010923        0.00036214        0.00126875        0.00027516
      52         -0.639210        2.000000        0.00002567        0.00008570        0.00028152        0.00005198
      53         -0.639146        2.000000        0.00001032        0.00004040        0.00019232        0.00005359
      54         -0.638732        2.000000        0.00002059        0.00007326        0.00034849        0.00010067
      55         -0.638289        2.000000        0.00008798        0.00026357        0.00109559        0.00031724
      56         -0.637321        2.000000        0.00002568        0.00007095        0.00027052        0.00007736
      57         -0.637203        2.000000        0.00012421        0.00038647        0.00162303        0.00048801
      58         -0.637066        2.000000        0.00002846        0.00008792        0.00034789        0.00009885
      59         -0.636675        2.000000        0.00003674        0.00010261        0.00039527        0.00011427
      60         -0.635935        2.000000        0.00000621        0.00002159        0.00009661        0.00002863
      61         -0.635227        2.000000        0.00002684        0.00008703        0.00031831        0.00007466
      62         -0.635107        2.000000        0.00006357        0.00021266        0.00087980        0.00022571
      63         -0.634833        2.000000        0.00026690        0.00093457        0.00356448        0.00080967
      64         -0.634470        2.000000        0.00007510        0.00022021        0.00078962        0.00018145
      65         -0.634367        2.000000        0.00000932        0.00002850        0.00012422        0.00003881
      66         -0.634038        2.000000        0.00006996        0.00023480        0.00098816        0.00024405
      67         -0.633843        2.000000        0.00016870        0.00057238        0.00223503        0.00053015
      68         -0.633384        2.000000        0.00001368        0.00005092        0.00023376        0.00006398
      69         -0.633044        2.000000        0.00007544        0.00023479        0.00092286        0.00022402
      70         -0.632857        2.000000        0.00010993        0.00031129        0.00115982        0.00028602
      71         -0.632275        2.000000        0.00006684        0.00022586        0.00097022        0.00027638
      72         -0.632105        2.000000        0.00004974        0.00017342        0.00073543        0.00018678
      73         -0.631869        2.000000        0.00003892        0.00012544        0.00050684        0.00013180
      74         -0.630858        2.000000        0.00012651        0.00042376        0.00183553        0.00047007
      75         -0.630633        2.000000        0.00006592        0.00016576        0.00053141        0.00012483
      76         -0.630425        2.000000        0.00001739        0.00004532        0.00016096        0.00004020
      77         -0.629951        2.000000        0.00009624        0.00025531        0.00089028        0.00021135
      78         -0.629454        2.000000        0.00020989        0.00070719        0.00280949        0.00072796
      79         -0.628653        2.000000        0.00003958        0.00010650        0.00038466        0.00009534
      80         -0.628576        2.000000        0.00011651        0.00032507        0.00123295        0.00034086
      81         -0.628358        2.000000        0.00011632        0.00029259        0.00107408        0.00030927
      82         -0.628217        2.000000        0.00012433        0.00031493        0.00112620        0.00028638
      83         -0.627320        2.000000        0.00008887        0.00022286        0.00070307        0.00017465
      84         -0.626841        2.000000        0.00000505        0.00001517        0.00006400        0.00001656
      85         -0.626336        2.000000        0.00006612        0.00024727        0.00106275        0.00028068
      86         -0.626147        2.000000        0.00003787        0.00012472        0.00053887        0.00013600
      87         -0.625987        2.000000        0.00001684        0.00006327        0.00025044        0.00006359
      88         -0.625774        2.000000        0.00006284        0.00018835        0.00069788        0.00019014
      89         -0.625361        2.000000        0.00008745        0.00025670        0.00091298        0.00023093
      90         -0.625165        2.000000        0.00002005        0.00006440        0.00023642        0.00005998
      91         -0.624866        2.000000        0.00009869        0.00022967        0.00074193        0.00022636
      92         -0.624565        2.000000        0.00000995        0.00002815        0.00010285        0.00002699
      93         -0.624237        2.000000        0.00001058        0.00003041        0.00012013        0.00003060
      94         -0.623721        2.000000        0.00000670        0.00002310        0.00009810        0.00002526
      95         -0.623594        2.000000        0.00000508        0.00001220        0.00004311        0.00001386
      96         -0.623257        2.000000        0.00040966        0.00090720        0.00287157        0.00093047
      97         -0.622851        2.000000        0.00009347        0.00020823        0.00065592        0.00021169
      98         -0.622232        2.000000        0.00009434        0.00025678        0.00093833        0.00025286
      99         -0.622173        2.000000        0.00020500        0.00047029        0.00155859        0.00047417
     100         -0.622079        2.000000        0.00004342        0.00010535        0.00036724        0.00010221
     101         -0.621451        2.000000        0.00001036        0.00002674        0.00009886        0.00002909
     102         -0.621089        2.000000        0.00006642        0.00019506        0.00072384        0.00018479
     103         -0.620735        2.000000        0.00024653        0.00066321        0.00246157        0.00064423
     104         -0.620425        2.000000        0.00011072        0.00029019        0.00109773        0.00031559
     105         -0.619781        2.000000        0.00000873        0.00003090        0.00012378        0.00003044
     106         -0.619575        2.000000        0.00002713        0.00007473        0.00028867        0.00008186
     107         -0.618915        2.000000        0.00000664        0.00001744        0.00006361        0.00001811
     108         -0.618512        2.000000        0.00000037        0.00000120        0.00000481        0.00000122
     109         -0.617954        2.000000        0.00013358        0.00038021        0.00139161        0.00036745
     110         -0.617665        2.000000        0.00001317        0.00004897        0.00020770        0.00005345
     111         -0.617194        2.000000        0.00004019        0.00014687        0.00079173        0.00022661
     112         -0.616932        2.000000        0.00003898        0.00011707        0.00044242        0.00011464
     113         -0.616563        2.000000        0.00023911        0.00070861        0.00275315        0.00077631
     114         -0.616066        2.000000        0.00003227        0.00009783        0.00038476        0.00010936
     115         -0.615647        2.000000        0.00031558        0.00105130        0.00413099        0.00108111
     116         -0.615401        2.000000        0.00002489        0.00008814        0.00035295        0.00008779
     117         -0.614602        2.000000        0.00005687        0.00014920        0.00052746        0.00014413
     118         -0.614459        2.000000        0.00000283        0.00000816        0.00002918        0.00000778
     119         -0.614065        2.000000        0.00001631        0.00006621        0.00029282        0.00007542
     120         -0.613776        2.000000        0.00019894        0.00059971        0.00244408        0.00068921
     121         -0.613333        2.000000        0.00005536        0.00016495        0.00066372        0.00019027
     122         -0.613233        2.000000        0.00008353        0.00028546        0.00123249        0.00035351
     123         -0.612983        2.000000        0.00000598        0.00002418        0.00010390        0.00002866
     124         -0.612581        2.000000        0.00000637        0.00002156        0.00008612        0.00002397
     125         -0.612469        2.000000        0.00001350        0.00005073        0.00021380        0.00005759
     126         -0.611596        2.000000        0.00002408        0.00006078        0.00023486        0.00008016
     127         -0.611199        2.000000        0.00000038        0.00000139        0.00000598        0.00000174
     128         -0.611011        2.000000        0.00001160        0.00003001        0.00012194        0.00004341
     129         -0.610802        2.000000        0.00008251        0.00020954        0.00082199        0.00029144
     130         -0.610602        2.000000        0.00001657        0.00004549        0.00018966        0.00006709
     131         -0.610315        2.000000        0.00000090        0.00000320        0.00001514        0.00000500
     132         -0.608920        2.000000        0.00000927        0.00002126        0.00007354        0.00002439
     133         -0.608714        2.000000        0.00002482        0.00008954        0.00034708        0.00009421
     134         -0.608689        2.000000        0.00018522        0.00040626        0.00135011        0.00045690
     135         -0.607712        2.000000        0.00017293        0.00038043        0.00122719        0.00038732
     136         -0.607241        2.000000        0.00005505        0.00015622        0.00060933        0.00018245
     137         -0.607015        2.000000        0.00004912        0.00015562        0.00075953        0.00026538
     138         -0.606961        2.000000        0.00006304        0.00019256        0.00079931        0.00024198
     139         -0.606668        2.000000        0.00002194        0.00006424        0.00029710        0.00010426
     140         -0.606217        2.000000        0.00001127        0.00003501        0.00015303        0.00005304
     141         -0.605760        2.000000        0.00000916        0.00003248        0.00013848        0.00004337
     142         -0.605530        2.000000        0.00000091        0.00000322        0.00001427        0.00000468
     143         -0.604726        2.000000        0.00000360        0.00000854        0.00002988        0.00000959
     144         -0.604251        2.000000        0.00044908        0.00106706        0.00387823        0.00133422
     145         -0.604012        2.000000        0.00033302        0.00079771        0.00293471        0.00101558
     146         -0.603621        2.000000        0.00000156        0.00000431        0.00001812        0.00000614
     147         -0.602798        2.000000        0.00000049        0.00000125        0.00000470        0.00000154
     148         -0.602043        2.000000        0.00000030        0.00000081        0.00000351        0.00000124
     149         -0.601806        2.000000        0.00000151        0.00000355        0.00001245        0.00000431
     150         -0.601164        2.000000        0.00004402        0.00019413        0.00096729        0.00025889
     151         -0.600494        2.000000        0.00002311        0.00010724        0.00055182        0.00015081
     152         -0.600235        2.000000        0.00000959        0.00004205        0.00021240        0.00005832
     153         -0.599390        2.000000        0.00003296        0.00015088        0.00077604        0.00021504
     154         -0.598787        2.000000        0.00008683        0.00024544        0.00096900        0.00031855
     155         -0.598286        2.000000        0.00001259        0.00005524        0.00028153        0.00007850
     156         -0.596934        2.000000        0.00000110        0.00000483        0.00002579        0.00000770
     157         -0.596320        2.000000        0.00000159        0.00000542        0.00002410        0.00000746
     158         -0.595753        2.000000        0.00000000        0.00000001        0.00000004        0.00000002
     159         -0.594631        2.000000        0.00036178        0.00102400        0.00409213        0.00140302
     160         -0.593777        2.000000        0.00000333        0.00000955        0.00003841        0.00001323
     161         -0.592082        2.000000        0.00000013        0.00000042        0.00000180        0.00000055
     162         -0.589122        2.000000        0.00000001        0.00000006        0.00000046        0.00000016
     163         -0.586735        2.000000        0.00006268        0.00020787        0.00096242        0.00034248
     164         -0.585766        2.000000        0.00000141        0.00000538        0.00002439        0.00000665
     165         -0.585182        2.000000        0.00000003        0.00000012        0.00000058        0.00000015
     166         -0.573903        2.000000        0.00000000        0.00000000        0.00000000        0.00000000
     167         -0.232303        2.000000        0.00008788        0.00011130        0.00036406        0.00006394
     168         -0.228380        2.000000        0.00000075        0.00000024        0.00000007        0.00000000
     169         -0.226510        2.000000        0.00000006        0.00000002        0.00000000        0.00000000
     170         -0.223708        2.000000        0.00002746        0.00004802        0.00024842        0.00006731
     171         -0.220593        2.000000        0.00024789        0.00029057        0.00116209        0.00023769
     172         -0.220130        2.000000        0.00051814        0.00026368        0.00056243        0.00008273
     173         -0.218641        2.000000        0.00000009        0.00000004        0.00000009        0.00000002
     174         -0.218322        2.000000        0.00130738        0.00083472        0.00222708        0.00044802
     175         -0.217040        2.000000        0.00000009        0.00000010        0.00000024        0.00000004
     176         -0.215954        2.000000        0.00033291        0.00022979        0.00061862        0.00009465
     177         -0.215808        2.000000        0.00001383        0.00000880        0.00002346        0.00000356
     178         -0.215345        2.000000        0.00021967        0.00029748        0.00112990        0.00025114
     179         -0.212987        2.000000        0.00002060        0.00000347        0.00000074        0.00000006
     180         -0.212274        2.000000        0.00040643        0.00012847        0.00037074        0.00008110
     181         -0.212168        2.000000        0.00082300        0.00042323        0.00124112        0.00027280
     182         -0.211357        2.000000        0.00118279        0.00080905        0.00294168        0.00058412
     183         -0.210843        2.000000        0.00188318        0.00079695        0.00186485        0.00028079
     184         -0.210303        2.000000        0.00187953        0.00103966        0.00306038        0.00053915
     185         -0.209997        2.000000        0.00022233        0.00019003        0.00067970        0.00012910
     186         -0.209803        2.000000        0.00001192        0.00000769        0.00002238        0.00000378
     187         -0.209469        2.000000        0.00003005        0.00001887        0.00005123        0.00000853
     188         -0.209379        2.000000        0.00516043        0.00278108        0.00668840        0.00094523
     189         -0.208401        2.000000        0.00531580        0.00197757        0.00500637        0.00073395
     190         -0.208067        2.000000        0.00536349        0.00253192        0.00721794        0.00123905
     191         -0.207628        2.000000        0.00631876        0.00234696        0.00555135        0.00077228
     192         -0.207419        2.000000        0.00384838        0.00115754        0.00299165        0.00046127
     193         -0.206511        2.000000        0.00000254        0.00000165        0.00000091        0.00000015
     194         -0.206338        2.000000        0.00000062        0.00000033        0.00000023        0.00000004
     195         -0.205963        2.000000        0.00086549        0.00056550        0.00166368        0.00028585
     196         -0.205597        2.000000        0.00001839        0.00001441        0.00003992        0.00000634
     197         -0.205313        2.000000        0.00005598        0.00004401        0.00012330        0.00001934
     198         -0.204841        2.000000        0.00037419        0.00027270        0.00080818        0.00013272
     199         -0.203616        2.000000        0.00002692        0.00001878        0.00005827        0.00000945
     200         -0.203451        2.000000        0.00172479        0.00162014        0.00855716        0.00159851
     201         -0.203030        2.000000        0.00035134        0.00033920        0.00134989        0.00026698
     202         -0.202913        2.000000        0.00136099        0.00104661        0.00340137        0.00055408
     203         -0.202644        2.000000        0.00096595        0.00044835        0.00152073        0.00024646
     204         -0.202503        2.000000        0.00048849        0.00039481        0.00140866        0.00026746
     205         -0.201994        2.000000        0.00067466        0.00037220        0.00107044        0.00016648
     206         -0.199814        2.000000        0.05723848        0.01122355        0.00059547        0.00007283
     207         -0.199636        2.000000        0.00042078        0.00049527        0.00175035        0.00030255
     208         -0.198721        2.000000        0.00087160        0.00070578        0.00088147        0.00016686
     209         -0.198436        2.000000        0.00036854        0.00043567        0.00202253        0.00037796
     210         -0.198253        2.000000        0.00052560        0.00077286        0.00361596        0.00066489
     211         -0.197512        2.000000        0.00061409        0.00067618        0.00281356        0.00049109
     212         -0.197220        2.000000        0.00014256        0.00004038        0.00009394        0.00001652
     213         -0.196993        2.000000        0.00022515        0.00012061        0.00034962        0.00006305
     214         -0.196926        2.000000        0.00055955        0.00062321        0.00123008        0.00024535
     215         -0.196592        2.000000        0.00036300        0.00009550        0.00006759        0.00001200
     216         -0.195971        2.000000        0.00053100        0.00022122        0.00046912        0.00008715
     217         -0.195555        2.000000        0.00032127        0.00004075        0.00005559        0.00000865
     218         -0.195413        2.000000        0.00065451        0.00081755        0.00260552        0.00043710
     219         -0.195235        2.000000        0.00095023        0.00070494        0.00256752        0.00053984
     220         -0.194013        2.000000        0.00029058        0.00005441        0.00002874        0.00000443
     221         -0.193891        2.000000        0.00046307        0.00012534        0.00034282        0.00005973
     222         -0.193483        2.000000        0.00143091        0.00118214        0.00482913        0.00090346
     223         -0.192982        2.000000        0.00010931        0.00002211        0.00007516        0.00001344
     224         -0.192738        2.000000        0.00061186        0.00086683        0.00359196        0.00060707
     225         -0.192586        2.000000        0.00023292        0.00015108        0.00068931        0.00012421
     226         -0.192138        2.000000        0.00047679        0.00049241        0.00162587        0.00024592
     227         -0.191972        2.000000        0.00010823        0.00012453        0.00027868        0.00003579
     228         -0.191590        2.000000        0.00011288        0.00005953        0.00018238        0.00002896
     229         -0.191457        2.000000        0.00007331        0.00004264        0.00012086        0.00001798
     230         -0.191076        2.000000        0.00029511        0.00028578        0.00121673        0.00022077
     231         -0.190560        2.000000        0.00056039        0.00047076        0.00136171        0.00018297
     232         -0.190385        2.000000        0.00031903        0.00015409        0.00046229        0.00006974
     233         -0.190304        2.000000        0.00009444        0.00005729        0.00014697        0.00002106
     234         -0.190023        2.000000        0.00013769        0.00009842        0.00025956        0.00004217
     235         -0.189651        2.000000        0.00014368        0.00007190        0.00019903        0.00002844
     236         -0.189547        2.000000        0.00011600        0.00013293        0.00048607        0.00008137
     237         -0.189184        2.000000        0.00064273        0.00053293        0.00179639        0.00025061
     238         -0.188852        2.000000        0.00071594        0.00046433        0.00143901        0.00020812
     239         -0.188649        2.000000        0.00008607        0.00004035        0.00011436        0.00001870
     240         -0.188433        2.000000        0.00040460        0.00018534        0.00065221        0.00011109
     241         -0.188236        2.000000        0.00009767        0.00002882        0.00006989        0.00001134
     242         -0.187848        2.000000        0.00005032        0.00002381        0.00007675        0.00001258
     243         -0.187625        2.000000        0.00034486        0.00003637        0.00002671        0.00000226
     244         -0.187413        2.000000        0.00022733        0.00014200        0.00032147        0.00004679
     245         -0.187322        2.000000        0.00017371        0.00004821        0.00011073        0.00001684
     246         -0.187050        2.000000        0.00013065        0.00004157        0.00009740        0.00001427
     247         -0.186387        2.000000        0.00016530        0.00007912        0.00021765        0.00002980
     248         -0.186179        2.000000        0.00007496        0.00003836        0.00011406        0.00001913
     249         -0.185204        2.000000        0.00375556        0.00119651        0.00404680        0.00065456
     250         -0.185131        2.000000        0.01307742        0.00321488        0.00559698        0.00066757
     251         -0.185068        2.000000        0.00153808        0.00055269        0.00148298        0.00020735
     252         -0.184904        2.000000        0.00138545        0.00030777        0.00055256        0.00006176
     253         -0.184464        2.000000        0.00371802        0.00130476        0.00313592        0.00043116
     254         -0.184113        2.000000        0.00024349        0.00016277        0.00039959        0.00006431
     255         -0.183824        2.000000        0.00025785        0.00005488        0.00012439        0.00001822
     256         -0.183682        2.000000        0.00071869        0.00021027        0.00024923        0.00003043
     257         -0.183323        2.000000        0.00065295        0.00018100        0.00043606        0.00006373
     258         -0.183170        2.000000        0.00088243        0.00014129        0.00018371        0.00002078
     259         -0.182926        2.000000        0.00205920        0.00049811        0.00104627        0.00012643