# Projected DOS for atomic kind Au2 at iteration step i = 0, E(Fermi) =     0.128746 a.u.
#     MO Eigenvalue [a.u.]      Occupation                 s                 p                 d                 f
       1         -0.672430        2.000000        0.00000008        0.00000029        0.00000080        0.00000013
       2         -0.669483        2.000000        0.00000000        0.00000000        0.00000000        0.00000000
       3         -0.668614        2.000000        0.00000010        0.00000038        0.00000077        0.00000015
       4         -0.667955        2.000000        0.00000009        0.00000029        0.00000071        0.00000017
       5         -0.667056        2.000000        0.00000006        0.00000027        0.00000079        0.00000016
       6         -0.666292        2.000000        0.00000015        0.00000050        0.00000135        0.00000029
       7         -0.665197        2.000000        0.00000000        0.00000000        0.00000000        0.00000000
       8         -0.664753        2.000000        0.00000007        0.00000030        0.00000086        0.00000019
       9         -0.663687        2.000000        0.00000000        0.00000000        0.00000000        0.00000000
      10         -0.663175        2.000000        0.00000000        0.00000000        0.00000000        0.00000000
      11         -0.661580        2.000000        0.00000013        0.00000067        0.00000184        0.00000035
      12         -0.660455        2.000000        0.00000006        0.00000027        0.00000083        0.00000018
      13         -0.659162        2.000000        0.00000008        0.00000038        0.00000098        0.00000016
      14         -0.657063        2.000000        0.00000015        0.00000054        0.00000137        0.00000024
      15         -0.656320        2.000000        0.00000029        0.00000108        0.00000323        0.00000054
      16         -0.655890        2.000000        0.00000000        0.00000000        0.00000001        0.00000000
      17         -0.655624        2.000000        0.00000031        0.00000112        0.00000356        0.00000077
      18         -0.655323        2.000000        0.00000002        0.00000008        0.00000023        0.00000004
      19         -0.655233        2.000000        0.00000035        0.00000135        0.00000371        0.00000065
      20         -0.654915        2.000000        0.00000001        0.00000002        0.00000007        0.00000001
      21         -0.653870        2.000000        0.00000016        0.00000045        0.00000122        0.00000025
      22         -0.653373        2.000000        0.00000002        0.00000006        0.00000015        0.00000003
      23         -0.652901        2.000000        0.00000000        0.00000001        0.00000002        0.00000000
      24         -0.651720        2.000000        0.00000027        0.00000077        0.00000198        0.00000044
      25         -0.651508        2.000000        0.00000017        0.00000039        0.00000097        0.00000025
      26         -0.650655        2.000000        0.00000021        0.00000062        0.00000162        0.00000036
      27         -0.649699        2.000000        0.00000024        0.00000096        0.00000279        0.00000053
      28         -0.649408        2.000000        0.00000048        0.00000198        0.00000610        0.00000121
      29         -0.648811        2.000000        0.00000008        0.00000022        0.00000063        0.00000015
      30         -0.648716        2.000000        0.00000002        0.00000008        0.00000023        0.00000006
      31         -0.647328        2.000000        0.00000004        0.00000011        0.00000028        0.00000006
      32         -0.646555        2.000000        0.00000004        0.00000017        0.00000044        0.00000007
      33         -0.646412        2.000000        0.00000000        0.00000000        0.00000001        0.00000000
      34         -0.645775        2.000000        0.00000004        0.00000012        0.00000037        0.00000008
      35         -0.644835        2.000000        0.00000029        0.00000104        0.00000328        0.00000059
      36         -0.644778        2.000000        0.00000009        0.00000032        0.00000098        0.00000019
      37         -0.644567        2.000000        0.00000007        0.00000024        0.00000069        0.00000015
      38         -0.644393        2.000000        0.00000039        0.00000154        0.00000446        0.00000095
      39         -0.644271        2.000000        0.00000019        0.00000070        0.00000202        0.00000042
      40         -0.643299        2.000000        0.00000026        0.00000108        0.00000332        0.00000062
      41         -0.643003        2.000000        0.00000010        0.00000037        0.00000119        0.00000023
      42         -0.642780        2.000000        0.00000011        0.00000033        0.00000104        0.00000023
      43         -0.642567        2.000000        0.00000001        0.00000007        0.00000019        0.00000002
      44         -0.642113        2.000000        0.00000033        0.00000122        0.00000303        0.00000046
      45         -0.641741        2.000000        0.00000002        0.00000006        0.00000013        0.00000002
      46         -0.641499        2.000000        0.00000008        0.00000046        0.00000128        0.00000019
      47         -0.640713        2.000000        0.00000007        0.00000028        0.00000072        0.00000016
      48         -0.640530        2.000000        0.00000017        0.00000037        0.00000078        0.00000024
      49         -0.640030        2.000000        0.00000003        0.00000012        0.00000035        0.00000006
      50         -0.639867        2.000000        0.00000001        0.00000004        0.00000012        0.00000003
      51         -0.639444        2.000000        0.00000015        0.00000058        0.00000161        0.00000028
      52         -0.639210        2.000000        0.00000004        0.00000016        0.00000045        0.00000007
      53         -0.639146        2.000000        0.00000001        0.00000006        0.00000017        0.00000004
      54         -0.638732        2.000000        0.00000003        0.00000010        0.00000030        0.00000009
      55         -0.638289        2.000000        0.00000012        0.00000034        0.00000100        0.00000027
      56         -0.637321        2.000000        0.00000003        0.00000010        0.00000030        0.00000007
      57         -0.637203        2.000000        0.00000017        0.00000054        0.00000130        0.00000035
      58         -0.637066        2.000000        0.00000005        0.00000012        0.00000031        0.00000008
      59         -0.636675        2.000000        0.00000004        0.00000014        0.00000043        0.00000011
      60         -0.635935        2.000000        0.00000001        0.00000004        0.00000008        0.00000002
      61         -0.635227        2.000000        0.00000004        0.00000016        0.00000042        0.00000008
      62         -0.635107        2.000000        0.00000010        0.00000035        0.00000098        0.00000022
      63         -0.634833        2.000000        0.00000045        0.00000171        0.00000451        0.00000089
      64         -0.634470        2.000000        0.00000009        0.00000042        0.00000120        0.00000027
      65         -0.634367        2.000000        0.00000002        0.00000005        0.00000012        0.00000003
      66         -0.634038        2.000000        0.00000017        0.00000048        0.00000122        0.00000023
      67         -0.633843        2.000000        0.00000027        0.00000111        0.00000279        0.00000059
      68         -0.633384        2.000000        0.00000002        0.00000008        0.00000021        0.00000005
      69         -0.633044        2.000000        0.00000019        0.00000057        0.00000146        0.00000027
      70         -0.632857        2.000000        0.00000021        0.00000071        0.00000195        0.00000037
      71         -0.632275        2.000000        0.00000012        0.00000044        0.00000106        0.00000021
      72         -0.632105        2.000000        0.00000016        0.00000046        0.00000107        0.00000018
      73         -0.631869        2.000000        0.00000006        0.00000024        0.00000062        0.00000014
      74         -0.630858        2.000000        0.00000032        0.00000077        0.00000206        0.00000048
      75         -0.630633        2.000000        0.00000010        0.00000037        0.00000106        0.00000020
      76         -0.630425        2.000000        0.00000003        0.00000010        0.00000028        0.00000006
      77         -0.629951        2.000000        0.00000018        0.00000052        0.00000152        0.00000031
      78         -0.629454        2.000000        0.00000022        0.00000117        0.00000289        0.00000069
      79         -0.628653        2.000000        0.00000006        0.00000023        0.00000066        0.00000014
      80         -0.628576        2.000000        0.00000020        0.00000063        0.00000164        0.00000035
      81         -0.628358        2.000000        0.00000016        0.00000054        0.00000148        0.00000027
      82         -0.628217        2.000000        0.00000021        0.00000075        0.00000212        0.00000045
      83         -0.627320        2.000000        0.00000010        0.00000047        0.00000121        0.00000020
      84         -0.626841        2.000000        0.00000001        0.00000003        0.00000009        0.00000002
      85         -0.626336        2.000000        0.00000011        0.00000038        0.00000085        0.00000024
      86         -0.626147        2.000000        0.00000006        0.00000019        0.00000053        0.00000015
      87         -0.625987        2.000000        0.00000003        0.00000011        0.00000027        0.00000006
      88         -0.625774        2.000000        0.00000008        0.00000034        0.00000093        0.00000020
      89         -0.625361        2.000000        0.00000010        0.00000048        0.00000130        0.00000029
      90         -0.625165        2.000000        0.00000003        0.00000010        0.00000025        0.00000006
      91         -0.624866        2.000000        0.00000011        0.00000034        0.00000094        0.00000022
      92         -0.624565        2.000000        0.00000001        0.00000005        0.00000012        0.00000003
      93         -0.624237        2.000000        0.00000001        0.00000006        0.00000018        0.00000004
      94         -0.623721        2.000000        0.00000001        0.00000004        0.00000011        0.00000002
      95         -0.623594        2.000000        0.00000001        0.00000002        0.00000005        0.00000001
      96         -0.623257        2.000000        0.00000040        0.00000144        0.00000383        0.00000090
      97         -0.622851        2.000000        0.00000009        0.00000032        0.00000087        0.00000021
      98         -0.622232        2.000000        0.00000014        0.00000044        0.00000130        0.00000030
      99         -0.622173        2.000000        0.00000028        0.00000077        0.00000235        0.00000052
     100         -0.622079        2.000000        0.00000006        0.00000018        0.00000057        0.00000013
     101         -0.621451        2.000000        0.00000001        0.00000004        0.00000012        0.00000003
     102         -0.621089        2.000000        0.00000010        0.00000030        0.00000090        0.00000023
     103         -0.620735        2.000000        0.00000034        0.00000098        0.00000329        0.00000081
     104         -0.620425        2.000000        0.00000014        0.00000038        0.00000128        0.00000032
     105         -0.619781        2.000000        0.00000002        0.00000006        0.00000014        0.00000003
     106         -0.619575        2.000000        0.00000004        0.00000010        0.00000033        0.00000008
     107         -0.618915        2.000000        0.00000001        0.00000003        0.00000009        0.00000002
     108         -0.618512        2.000000        0.00000000        0.00000000        0.00000001        0.00000000
     109         -0.617954        2.000000        0.00000020        0.00000065        0.00000178        0.00000045
     110         -0.617665        2.000000        0.00000003        0.00000010        0.00000022        0.00000005
     111         -0.617194        2.000000        0.00000011        0.00000039        0.00000102        0.00000029
     112         -0.616932        2.000000        0.00000007        0.00000021        0.00000054        0.00000013
     113         -0.616563        2.000000        0.00000038        0.00000126        0.00000314        0.00000081
     114         -0.616066        2.000000        0.00000005        0.00000015        0.00000036        0.00000009
     115         -0.615647        2.000000        0.00000068        0.00000182        0.00000393        0.00000095
     116         -0.615401        2.000000        0.00000006        0.00000016        0.00000036        0.00000009
     117         -0.614602        2.000000        0.00000008        0.00000025        0.00000076        0.00000020
     118         -0.614459        2.000000        0.00000000        0.00000001        0.00000004        0.00000001
     119         -0.614065        2.000000        0.00000005        0.00000009        0.00000020        0.00000005
     120         -0.613776        2.000000        0.00000039        0.00000089        0.00000228        0.00000066
     121         -0.613333        2.000000        0.00000011        0.00000026        0.00000064        0.00000018
     122         -0.613233        2.000000        0.00000020        0.00000041        0.00000092        0.00000027
     123         -0.612983        2.000000        0.00000002        0.00000004        0.00000009        0.00000002
     124         -0.612581        2.000000        0.00000001        0.00000003        0.00000008        0.00000002
     125         -0.612469        2.000000        0.00000003        0.00000008        0.00000017        0.00000004
     126         -0.611596        2.000000        0.00000006        0.00000011        0.00000027        0.00000007
     127         -0.611199        2.000000        0.00000000        0.00000000        0.00000001        0.00000000
     128         -0.611011        2.000000        0.00000002        0.00000006        0.00000013        0.00000003
     129         -0.610802        2.000000        0.00000022        0.00000040        0.00000092        0.00000023
     130         -0.610602        2.000000        0.00000004        0.00000008        0.00000018        0.00000005
     131         -0.610315        2.000000        0.00000000        0.00000001        0.00000001        0.00000000
     132         -0.608920        2.000000        0.00000002        0.00000005        0.00000012        0.00000003
     133         -0.608714        2.000000        0.00000007        0.00000014        0.00000035        0.00000009
     134         -0.608689        2.000000        0.00000037        0.00000087        0.00000231        0.00000054
     135         -0.607712        2.000000        0.00000030        0.00000080        0.00000224        0.00000051
     136         -0.607241        2.000000        0.00000014        0.00000035        0.00000069        0.00000016
     137         -0.607015        2.000000        0.00000012        0.00000033        0.00000059        0.00000017
     138         -0.606961        2.000000        0.00000018        0.00000045        0.00000084        0.00000017
     139         -0.606668        2.000000        0.00000005        0.00000014        0.00000028        0.00000008
     140         -0.606217        2.000000        0.00000003        0.00000007        0.00000015        0.00000004
     141         -0.605760        2.000000        0.00000003        0.00000005        0.00000011        0.00000003
     142         -0.605530        2.000000        0.00000000        0.00000001        0.00000001        0.00000000
     143         -0.604726        2.000000        0.00000001        0.00000002        0.00000005        0.00000001
     144         -0.604251        2.000000        0.00000070        0.00000207        0.00000545        0.00000154
     145         -0.604012        2.000000        0.00000052        0.00000154        0.00000400        0.00000115
     146         -0.603621        2.000000        0.00000000        0.00000001        0.00000002        0.00000001
     147         -0.602798        2.000000        0.00000000        0.00000000        0.00000001        0.00000000
     148         -0.602043        2.000000        0.00000000        0.00000000        0.00000000        0.00000000
     149         -0.601806        2.000000        0.00000000        0.00000001        0.00000002        0.00000000
     150         -0.601164        2.000000        0.00000019        0.00000036        0.00000062        0.00000014
     151         -0.600494        2.000000        0.00000012        0.00000021        0.00000034        0.00000008
     152         -0.600235        2.000000        0.00000005        0.00000009        0.00000015        0.00000003
     153         -0.599390        2.000000        0.00000018        0.00000030        0.00000048        0.00000012
     154         -0.598787        2.000000        0.00000028        0.00000064        0.00000126        0.00000027
     155         -0.598286        2.000000        0.00000007        0.00000013        0.00000022        0.00000005
     156         -0.596934        2.000000        0.00000001        0.00000001        0.00000002        0.00000000
     157         -0.596320        2.000000        0.00000001        0.00000001        0.00000002        0.00000001
     158         -0.595753        2.000000        0.00000000        0.00000000        0.00000000        0.00000000
     159         -0.594631        2.000000        0.00000108        0.00000209        0.00000458        0.00000104
     160         -0.593777        2.000000        0.00000001        0.00000002        0.00000004        0.00000001
     161         -0.592082        2.000000        0.00000000        0.00000000        0.00000000        0.00000000
     162         -0.589122        2.000000        0.00000000        0.00000000        0.00000000        0.00000000
     163         -0.586735        2.000000        0.00000030        0.00000066        0.00000109        0.00000019
     164         -0.585766        2.000000        0.00000001        0.00000001        0.00000003        0.00000000
     165         -0.585182        2.000000        0.00000000        0.00000000        0.00000000        0.00000000
     166         -0.573903        2.000000        0.00000000        0.00000000        0.00000000        0.00000000
     167         -0.232303        2.000000        0.00000307        0.00000220        0.00000434        0.00000043
     168         -0.228380        2.000000        0.00000657        0.00000133        0.00000059        0.00000003
     169         -0.226510        2.000000        0.00000046        0.00000008        0.00000003        0.00000000
     170         -0.223708        2.000000        0.00000115        0.00000055        0.00000122        0.00000017
     171         -0.220593        2.000000        0.00001761        0.00000818        0.00001337        0.00000128
     172         -0.220130        2.000000        0.00007415        0.00001733        0.00002018        0.00000155
     173         -0.218641        2.000000        0.00000002        0.00000000        0.00000000        0.00000000
     174         -0.218322        2.000000        0.00014486        0.00003146        0.00003772        0.00000299
     175         -0.217040        2.000000        0.00000032        0.00000007        0.00000004        0.00000000
     176         -0.215954        2.000000        0.00003963        0.00001167        0.00001639        0.00000135
     177         -0.215808        2.000000        0.00000177        0.00000048        0.00000063        0.00000005
     178         -0.215345        2.000000        0.00001181        0.00000646        0.00001262        0.00000129
     179         -0.212987        2.000000        0.00009741        0.00000887        0.00000236        0.00000011
     180         -0.212274        2.000000        0.00012077        0.00000773        0.00000712        0.00000063
     181         -0.212168        2.000000        0.00013733        0.00002582        0.00002505        0.00000183
     182         -0.211357        2.000000        0.00023426        0.00003603        0.00005129        0.00000449
     183         -0.210843        2.000000        0.00048352        0.00004378        0.00005567        0.00000456
     184         -0.210303        2.000000        0.00044125        0.00006176        0.00008960        0.00000753
     185         -0.209997        2.000000        0.00002096        0.00000872        0.00001330        0.00000114
     186         -0.209803        2.000000        0.00000110        0.00000057        0.00000049        0.00000004
     187         -0.209469        2.000000        0.00000438        0.00000116        0.00000134        0.00000011
     188         -0.209379        2.000000        0.00099676        0.00014484        0.00018947        0.00001558
     189         -0.208401        2.000000        0.00190223        0.00012846        0.00017821        0.00001506
     190         -0.208067        2.000000        0.00151289        0.00020352        0.00023657        0.00001765
     191         -0.207628        2.000000        0.00202648        0.00020237        0.00023098        0.00001698
     192         -0.207419        2.000000        0.00171103        0.00009398        0.00011118        0.00000826
     193         -0.206511        2.000000        0.00001931        0.00000158        0.00000020        0.00000001
     194         -0.206338        2.000000        0.00000404        0.00000039        0.00000012        0.00000001
     195         -0.205963        2.000000        0.00014201        0.00003684        0.00004230        0.00000292
     196         -0.205597        2.000000        0.00000415        0.00000105        0.00000135        0.00000010
     197         -0.205313        2.000000        0.00000619        0.00000277        0.00000389        0.00000030
     198         -0.204841        2.000000        0.00007309        0.00001588        0.00002388        0.00000195
     199         -0.203616        2.000000        0.00003845        0.00000222        0.00000182        0.00000014
     200         -0.203451        2.000000        0.00059635        0.00005253        0.00014669        0.00001934
     201         -0.203030        2.000000        0.00003053        0.00001241        0.00002657        0.00000291
     202         -0.202913        2.000000        0.00024037        0.00004813        0.00008099        0.00000781
     203         -0.202644        2.000000        0.00113779        0.00003189        0.00003895        0.00000365
     204         -0.202503        2.000000        0.00010624        0.00001579        0.00001958        0.00000161
     205         -0.201994        2.000000        0.00025976        0.00001996        0.00002890        0.00000234
     206         -0.199814        2.000000        0.22350876        0.00689570        0.00209632        0.00006640
     207         -0.199636        2.000000        0.00004361        0.00001443        0.00002506        0.00000222
     208         -0.198721        2.000000        0.00487219        0.00026529        0.00007843        0.00000297
     209         -0.198436        2.000000        0.00013766        0.00001918        0.00003121        0.00000338
     210         -0.198253        2.000000        0.00011418        0.00002548        0.00005607        0.00000645
     211         -0.197512        2.000000        0.00013088        0.00002928        0.00004548        0.00000472
     212         -0.197220        2.000000        0.00003526        0.00000873        0.00000491        0.00000024
     213         -0.196993        2.000000        0.00002855        0.00002512        0.00000997        0.00000072
     214         -0.196926        2.000000        0.00228892        0.00019817        0.00005593        0.00000248
     215         -0.196592        2.000000        0.00134355        0.00003331        0.00002088        0.00000052
     216         -0.195971        2.000000        0.00016077        0.00004496        0.00002184        0.00000116
     217         -0.195555        2.000000        0.00072995        0.00000953        0.00001304        0.00000037
     218         -0.195413        2.000000        0.00050414        0.00008635        0.00006613        0.00000545
     219         -0.195235        2.000000        0.00066017        0.00013662        0.00006170        0.00000482
     220         -0.194013        2.000000        0.00092308        0.00001887        0.00002078        0.00000041
     221         -0.193891        2.000000        0.00115913        0.00001947        0.00003015        0.00000120
     222         -0.193483        2.000000        0.00027104        0.00007655        0.00011502        0.00000888
     223         -0.192982        2.000000        0.00011118        0.00000337        0.00000457        0.00000021
     224         -0.192738        2.000000        0.00020859        0.00004681        0.00006960        0.00000686
     225         -0.192586        2.000000        0.00025970        0.00000679        0.00001785        0.00000142
     226         -0.192138        2.000000        0.00008166        0.00004979        0.00003442        0.00000292
     227         -0.191972        2.000000        0.00007821        0.00002258        0.00001094        0.00000064
     228         -0.191590        2.000000        0.00008727        0.00000402        0.00000691        0.00000038
     229         -0.191457        2.000000        0.00001947        0.00000569        0.00000398        0.00000026
     230         -0.191076        2.000000        0.00007652        0.00003203        0.00002706        0.00000252
     231         -0.190560        2.000000        0.00009522        0.00003435        0.00003657        0.00000293
     232         -0.190385        2.000000        0.00009220        0.00001661        0.00001551        0.00000101
     233         -0.190304        2.000000        0.00002050        0.00000820        0.00000546        0.00000033
     234         -0.190023        2.000000        0.00012595        0.00001317        0.00001077        0.00000052
     235         -0.189651        2.000000        0.00004387        0.00000999        0.00000712        0.00000046
     236         -0.189547        2.000000        0.00009583        0.00001471        0.00001281        0.00000087
     237         -0.189184        2.000000        0.00009701        0.00003575        0.00004294        0.00000348
     238         -0.188852        2.000000        0.00014459        0.00005078        0.00003883        0.00000281
     239         -0.188649        2.000000        0.00018155        0.00000616        0.00000976        0.00000028
     240         -0.188433        2.000000        0.00017085        0.00002492        0.00001788        0.00000133
     241         -0.188236        2.000000        0.00009100        0.00000394        0.00000585        0.00000023
     242         -0.187848        2.000000        0.00002498        0.00000511        0.00000279        0.00000019
     243         -0.187625        2.000000        0.00068444        0.00004153        0.00003390        0.00000052
     244         -0.187413        2.000000        0.00021393        0.00003063        0.00001847        0.00000086
     245         -0.187322        2.000000        0.00027378        0.00001117        0.00001589        0.00000039
     246         -0.187050        2.000000        0.00010576        0.00001287        0.00000672        0.00000028
     247         -0.186387        2.000000        0.00013409        0.00001634        0.00001154        0.00000054
     248         -0.186179        2.000000        0.00003251        0.00000722        0.00000562        0.00000034
     249         -0.185204        2.000000        0.00200975        0.00034812        0.00016982        0.00001192
     250         -0.185131        2.000000        0.00549099        0.00135871        0.00050038        0.00002455
     251         -0.185068        2.000000        0.00087445        0.00014405        0.00008478        0.00000544
     252         -0.184904        2.000000        0.00079163        0.00012697        0.00005400        0.00000233
     253         -0.184464        2.000000        0.00102181        0.00039448        0.00014892        0.00000890
     254         -0.184113        2.000000        0.00012194        0.00003593        0.00001769        0.00000087
     255         -0.183824        2.000000        0.00026524        0.00004400        0.00001622        0.00000058
     256         -0.183682        2.000000        0.00157432        0.00018579        0.00008805        0.00000164
     257         -0.183323        2.000000        0.00031522        0.00005542        0.00002888        0.00000155
     258         -0.183170        2.000000        0.00138455        0.00020696        0.00006512        0.00000144
     259         -0.182926        2.000000        0.00078969        0.00023640        0.00007405        0.00000412