# Projected DOS for atomic kind Au4 at iteration step i = 0, E(Fermi) =     0.128746 a.u.
#     MO Eigenvalue [a.u.]      Occupation                 s                 p                 d                 f
       1         -0.672430        2.000000        0.00000000        0.00000000        0.00000000        0.00000000
       2         -0.669483        2.000000        0.00003554        0.00014355        0.00063816        0.00014850
       3         -0.668614        2.000000        0.00000001        0.00000004        0.00000016        0.00000004
       4         -0.667955        2.000000        0.00000000        0.00000001        0.00000006        0.00000001
       5         -0.667056        2.000000        0.00000000        0.00000001        0.00000004        0.00000001
       6         -0.666292        2.000000        0.00000000        0.00000000        0.00000000        0.00000000
       7         -0.665197        2.000000        0.00005156        0.00017414        0.00062712        0.00012385
       8         -0.664753        2.000000        0.00000001        0.00000002        0.00000008        0.00000002
       9         -0.663687        2.000000        0.00039878        0.00135617        0.00483854        0.00101539
      10         -0.663175        2.000000        0.00001779        0.00006442        0.00022684        0.00004735
      11         -0.661580        2.000000        0.00000003        0.00000011        0.00000037        0.00000007
      12         -0.660455        2.000000        0.00000001        0.00000003        0.00000010        0.00000002
      13         -0.659162        2.000000        0.00000008        0.00000027        0.00000092        0.00000017
      14         -0.657063        2.000000        0.00000019        0.00000067        0.00000222        0.00000039
      15         -0.656320        2.000000        0.00000018        0.00000063        0.00000225        0.00000043
      16         -0.655890        2.000000        0.00065945        0.00223720        0.00725696        0.00123588
      17         -0.655624        2.000000        0.00000249        0.00000847        0.00002768        0.00000477
      18         -0.655323        2.000000        0.00001189        0.00004458        0.00017220        0.00003536
      19         -0.655233        2.000000        0.00000098        0.00000339        0.00001160        0.00000213
      20         -0.654915        2.000000        0.00009039        0.00029618        0.00096609        0.00019099
      21         -0.653870        2.000000        0.00000804        0.00002858        0.00010058        0.00001904
      22         -0.653373        2.000000        0.00005848        0.00020361        0.00072057        0.00014360
      23         -0.652901        2.000000        0.00016438        0.00054477        0.00185971        0.00037165
      24         -0.651720        2.000000        0.00000862        0.00002711        0.00008739        0.00001801
      25         -0.651508        2.000000        0.00001548        0.00004791        0.00015239        0.00003140
      26         -0.650655        2.000000        0.00000434        0.00001300        0.00004063        0.00000843
      27         -0.649699        2.000000        0.00005976        0.00017065        0.00052426        0.00011381
      28         -0.649408        2.000000        0.00001999        0.00005577        0.00016771        0.00003659
      29         -0.648811        2.000000        0.00009292        0.00026304        0.00082078        0.00018645
      30         -0.648716        2.000000        0.00029145        0.00082893        0.00258471        0.00058142
      31         -0.647328        2.000000        0.00000865        0.00003119        0.00011388        0.00002545
      32         -0.646555        2.000000        0.00001871        0.00006698        0.00025674        0.00005257
      33         -0.646412        2.000000        0.00020712        0.00067241        0.00246959        0.00050899
      34         -0.645775        2.000000        0.00004680        0.00017270        0.00063236        0.00013125
      35         -0.644835        2.000000        0.00007372        0.00025695        0.00093008        0.00020709
      36         -0.644778        2.000000        0.00015292        0.00054592        0.00205305        0.00045507
      37         -0.644567        2.000000        0.00007831        0.00024351        0.00088273        0.00019315
      38         -0.644393        2.000000        0.00005859        0.00017552        0.00060205        0.00013663
      39         -0.644271        2.000000        0.00003337        0.00009823        0.00033173        0.00007661
      40         -0.643299        2.000000        0.00003012        0.00009271        0.00034356        0.00008192
      41         -0.643003        2.000000        0.00007928        0.00024506        0.00088937        0.00019595
      42         -0.642780        2.000000        0.00000994        0.00003520        0.00013703        0.00003099
      43         -0.642567        2.000000        0.00006760        0.00024513        0.00094428        0.00021648
      44         -0.642113        2.000000        0.00001171        0.00003691        0.00014100        0.00003148
      45         -0.641741        2.000000        0.00008937        0.00027212        0.00091275        0.00019376
      46         -0.641499        2.000000        0.00004892        0.00016179        0.00061100        0.00013032
      47         -0.640713        2.000000        0.00001470        0.00004921        0.00019429        0.00004405
      48         -0.640530        2.000000        0.00000149        0.00000505        0.00001964        0.00000430
      49         -0.640030        2.000000        0.00002074        0.00007128        0.00024562        0.00004990
      50         -0.639867        2.000000        0.00002950        0.00009690        0.00036716        0.00008764
      51         -0.639444        2.000000        0.00003698        0.00011609        0.00042956        0.00009863
      52         -0.639210        2.000000        0.00008911        0.00028736        0.00106628        0.00024037
      53         -0.639146        2.000000        0.00005430        0.00018234        0.00070649        0.00015841
      54         -0.638732        2.000000        0.00009091        0.00031058        0.00116441        0.00025785
      55         -0.638289        2.000000        0.00003539        0.00012678        0.00050444        0.00011615
      56         -0.637321        2.000000        0.00005218        0.00022409        0.00103719        0.00025513
      57         -0.637203        2.000000        0.00006763        0.00019332        0.00068458        0.00017043
      58         -0.637066        2.000000        0.00023100        0.00074660        0.00280683        0.00065566
      59         -0.636675        2.000000        0.00009221        0.00032270        0.00125798        0.00027145
      60         -0.635935        2.000000        0.00013931        0.00054459        0.00238419        0.00061425
      61         -0.635227        2.000000        0.00022448        0.00067639        0.00245635        0.00062731
      62         -0.635107        2.000000        0.00004977        0.00021946        0.00106649        0.00028895
      63         -0.634833        2.000000        0.00001826        0.00005842        0.00022949        0.00006079
      64         -0.634470        2.000000        0.00010380        0.00038164        0.00161323        0.00041370
      65         -0.634367        2.000000        0.00016898        0.00063105        0.00252615        0.00059201
      66         -0.634038        2.000000        0.00000933        0.00003989        0.00018308        0.00004674
      67         -0.633843        2.000000        0.00004969        0.00017492        0.00066719        0.00015458
      68         -0.633384        2.000000        0.00025383        0.00077672        0.00287404        0.00074080
      69         -0.633044        2.000000        0.00012921        0.00043757        0.00175124        0.00045882
      70         -0.632857        2.000000        0.00009957        0.00032093        0.00127031        0.00033918
      71         -0.632275        2.000000        0.00000599        0.00002114        0.00008543        0.00002205
      72         -0.632105        2.000000        0.00000581        0.00001976        0.00007674        0.00001889
      73         -0.631869        2.000000        0.00001554        0.00006311        0.00029236        0.00007934
      74         -0.630858        2.000000        0.00000480        0.00002239        0.00011390        0.00002979
      75         -0.630633        2.000000        0.00004170        0.00018215        0.00086590        0.00022520
      76         -0.630425        2.000000        0.00011718        0.00052511        0.00240755        0.00054524
      77         -0.629951        2.000000        0.00001456        0.00004828        0.00019875        0.00005456
      78         -0.629454        2.000000        0.00000053        0.00000230        0.00001028        0.00000261
      79         -0.628653        2.000000        0.00012633        0.00050858        0.00231018        0.00061030
      80         -0.628576        2.000000        0.00000375        0.00001418        0.00006331        0.00001619
      81         -0.628358        2.000000        0.00000591        0.00002147        0.00008651        0.00002196
      82         -0.628217        2.000000        0.00005967        0.00023959        0.00107395        0.00028125
      83         -0.627320        2.000000        0.00000975        0.00003396        0.00014290        0.00003840
      84         -0.626841        2.000000        0.00027639        0.00096952        0.00405062        0.00107786
      85         -0.626336        2.000000        0.00004659        0.00013931        0.00050580        0.00012319
      86         -0.626147        2.000000        0.00012499        0.00039272        0.00156585        0.00041118
      87         -0.625987        2.000000        0.00015270        0.00050616        0.00185080        0.00040099
      88         -0.625774        2.000000        0.00009623        0.00028250        0.00099048        0.00024278
      89         -0.625361        2.000000        0.00009103        0.00025325        0.00084721        0.00020345
      90         -0.625165        2.000000        0.00003778        0.00013176        0.00056231        0.00015742
      91         -0.624866        2.000000        0.00002268        0.00007377        0.00027130        0.00006153
      92         -0.624565        2.000000        0.00015270        0.00046805        0.00172860        0.00041991
      93         -0.624237        2.000000        0.00032984        0.00095812        0.00343677        0.00084533
      94         -0.623721        2.000000        0.00006227        0.00022844        0.00098623        0.00025887
      95         -0.623594        2.000000        0.00009274        0.00032122        0.00143516        0.00042558
      96         -0.623257        2.000000        0.00000587        0.00002957        0.00015626        0.00004450
      97         -0.622851        2.000000        0.00008979        0.00029233        0.00105528        0.00023726
      98         -0.622232        2.000000        0.00001713        0.00006241        0.00026172        0.00006694
      99         -0.622173        2.000000        0.00000869        0.00002784        0.00011409        0.00003341
     100         -0.622079        2.000000        0.00005343        0.00017087        0.00067091        0.00018885
     101         -0.621451        2.000000        0.00001705        0.00005037        0.00017899        0.00004637
     102         -0.621089        2.000000        0.00001979        0.00005781        0.00021383        0.00006240
     103         -0.620735        2.000000        0.00001047        0.00002939        0.00009700        0.00002664
     104         -0.620425        2.000000        0.00002235        0.00006166        0.00019472        0.00005132
     105         -0.619781        2.000000        0.00000823        0.00002877        0.00011676        0.00003192
     106         -0.619575        2.000000        0.00002971        0.00007855        0.00024240        0.00006433
     107         -0.618915        2.000000        0.00009803        0.00032306        0.00120973        0.00030825
     108         -0.618512        2.000000        0.00006154        0.00019076        0.00071696        0.00019888
     109         -0.617954        2.000000        0.00002818        0.00008432        0.00028264        0.00007315
     110         -0.617665        2.000000        0.00004031        0.00011682        0.00040193        0.00010379
     111         -0.617194        2.000000        0.00001027        0.00002913        0.00009981        0.00002597
     112         -0.616932        2.000000        0.00030203        0.00082116        0.00266907        0.00065575
     113         -0.616563        2.000000        0.00006204        0.00016933        0.00054774        0.00013550
     114         -0.616066        2.000000        0.00022115        0.00061587        0.00204082        0.00053739
     115         -0.615647        2.000000        0.00001313        0.00003621        0.00012097        0.00003471
     116         -0.615401        2.000000        0.00001505        0.00005405        0.00023025        0.00006004
     117         -0.614602        2.000000        0.00000561        0.00001978        0.00008571        0.00002304
     118         -0.614459        2.000000        0.00003109        0.00009195        0.00034420        0.00009388
     119         -0.614065        2.000000        0.00003460        0.00009737        0.00033427        0.00008941
     120         -0.613776        2.000000        0.00002941        0.00009636        0.00039760        0.00010708
     121         -0.613333        2.000000        0.00005314        0.00018263        0.00076476        0.00020065
     122         -0.613233        2.000000        0.00004064        0.00015711        0.00072409        0.00019348
     123         -0.612983        2.000000        0.00009008        0.00032231        0.00138799        0.00036572
     124         -0.612581        2.000000        0.00006881        0.00025380        0.00115851        0.00031533
     125         -0.612469        2.000000        0.00007005        0.00022371        0.00088304        0.00023504
     126         -0.611596        2.000000        0.00007949        0.00022604        0.00085337        0.00027208
     127         -0.611199        2.000000        0.00023746        0.00084202        0.00365633        0.00106505
     128         -0.611011        2.000000        0.00008932        0.00024062        0.00082237        0.00023016
     129         -0.610802        2.000000        0.00001941        0.00005828        0.00023048        0.00007134
     130         -0.610602        2.000000        0.00008392        0.00021968        0.00069328        0.00016970
     131         -0.610315        2.000000        0.00016314        0.00047002        0.00171558        0.00049358
     132         -0.608920        2.000000        0.00011600        0.00030266        0.00100271        0.00029383
     133         -0.608714        2.000000        0.00000058        0.00000192        0.00000790        0.00000235
     134         -0.608689        2.000000        0.00002216        0.00006027        0.00020956        0.00006167
     135         -0.607712        2.000000        0.00000488        0.00001567        0.00006332        0.00001912
     136         -0.607241        2.000000        0.00001188        0.00003931        0.00015703        0.00004916
     137         -0.607015        2.000000        0.00003620        0.00011084        0.00043109        0.00013419
     138         -0.606961        2.000000        0.00000661        0.00002279        0.00009514        0.00002940
     139         -0.606668        2.000000        0.00006825        0.00019462        0.00071607        0.00022113
     140         -0.606217        2.000000        0.00004370        0.00014182        0.00058395        0.00017876
     141         -0.605760        2.000000        0.00005124        0.00017672        0.00075368        0.00023940
     142         -0.605530        2.000000        0.00035539        0.00117574        0.00487715        0.00158997
     143         -0.604726        2.000000        0.00005950        0.00017426        0.00065098        0.00019962
     144         -0.604251        2.000000        0.00001185        0.00003930        0.00016553        0.00005025
     145         -0.604012        2.000000        0.00001908        0.00005911        0.00023464        0.00007038
     146         -0.603621        2.000000        0.00016947        0.00056397        0.00232492        0.00069434
     147         -0.602798        2.000000        0.00008296        0.00036946        0.00180705        0.00052791
     148         -0.602043        2.000000        0.00005128        0.00015310        0.00056242        0.00015834
     149         -0.601806        2.000000        0.00000446        0.00001509        0.00006129        0.00001682
     150         -0.601164        2.000000        0.00000400        0.00001900        0.00009596        0.00002874
     151         -0.600494        2.000000        0.00001571        0.00007120        0.00035374        0.00010759
     152         -0.600235        2.000000        0.00000176        0.00000610        0.00002708        0.00000821
     153         -0.599390        2.000000        0.00000442        0.00001677        0.00007748        0.00002414
     154         -0.598787        2.000000        0.00000004        0.00000012        0.00000045        0.00000014
     155         -0.598286        2.000000        0.00000035        0.00000107        0.00000392        0.00000105
     156         -0.596934        2.000000        0.00000186        0.00000539        0.00002179        0.00000708
     157         -0.596320        2.000000        0.00000082        0.00000249        0.00001091        0.00000355
     158         -0.595753        2.000000        0.00016472        0.00053561        0.00226881        0.00067861
     159         -0.594631        2.000000        0.00000000        0.00000000        0.00000001        0.00000000
     160         -0.593777        2.000000        0.00000005        0.00000013        0.00000042        0.00000013
     161         -0.592082        2.000000        0.00000005        0.00000019        0.00000104        0.00000033
     162         -0.589122        2.000000        0.00000027        0.00000068        0.00000252        0.00000090
     163         -0.586735        2.000000        0.00000000        0.00000000        0.00000000        0.00000000
     164         -0.585766        2.000000        0.00000001        0.00000002        0.00000007        0.00000002
     165         -0.585182        2.000000        0.00000018        0.00000048        0.00000174        0.00000057
     166         -0.573903        2.000000        0.00000001        0.00000003        0.00000009        0.00000002
     167         -0.232303        2.000000        0.00000000        0.00000000        0.00000000        0.00000000
     168         -0.228380        2.000000        0.00346224        0.00257056        0.00751547        0.00136368
     169         -0.226510        2.000000        0.00016686        0.00011096        0.00027593        0.00003951
     170         -0.223708        2.000000        0.00000000        0.00000000        0.00000000        0.00000000
     171         -0.220593        2.000000        0.00000003        0.00000002        0.00000001        0.00000000
     172         -0.220130        2.000000        0.00000053        0.00000016        0.00000003        0.00000000
     173         -0.218641        2.000000        0.00000697        0.00000620        0.00002560        0.00000647
     174         -0.218322        2.000000        0.00000155        0.00000041        0.00000008        0.00000001
     175         -0.217040        2.000000        0.00019784        0.00027263        0.00127502        0.00029312
     176         -0.215954        2.000000        0.00000098        0.00000030        0.00000065        0.00000012
     177         -0.215808        2.000000        0.00000607        0.00000416        0.00001104        0.00000202
     178         -0.215345        2.000000        0.00000008        0.00000006        0.00000018        0.00000004
     179         -0.212987        2.000000        0.00701439        0.00386861        0.01181638        0.00181460
     180         -0.212274        2.000000        0.00000313        0.00000086        0.00000016        0.00000002
     181         -0.212168        2.000000        0.00000195        0.00000072        0.00000044        0.00000005
     182         -0.211357        2.000000        0.00000527        0.00000149        0.00000028        0.00000003
     183         -0.210843        2.000000        0.00001474        0.00000476        0.00000256        0.00000042
     184         -0.210303        2.000000        0.00001417        0.00000298        0.00000089        0.00000015
     185         -0.209997        2.000000        0.00000794        0.00000619        0.00002394        0.00000498
     186         -0.209803        2.000000        0.00001487        0.00001387        0.00007221        0.00001531
     187         -0.209469        2.000000        0.00017012        0.00012400        0.00048354        0.00010161
     188         -0.209379        2.000000        0.00003190        0.00000747        0.00000210        0.00000030
     189         -0.208401        2.000000        0.00009066        0.00002056        0.00000199        0.00000017
     190         -0.208067        2.000000        0.00005263        0.00001199        0.00000146        0.00000010
     191         -0.207628        2.000000        0.00008774        0.00002006        0.00000161        0.00000013
     192         -0.207419        2.000000        0.00009154        0.00002015        0.00000198        0.00000024
     193         -0.206511        2.000000        0.00087444        0.00108364        0.00595916        0.00141149
     194         -0.206338        2.000000        0.00034774        0.00040581        0.00194496        0.00043823
     195         -0.205963        2.000000        0.00000442        0.00000095        0.00000065        0.00000008
     196         -0.205597        2.000000        0.00005746        0.00003188        0.00011385        0.00002342
     197         -0.205313        2.000000        0.00005915        0.00005053        0.00017347        0.00002754
     198         -0.204841        2.000000        0.00002436        0.00000692        0.00001965        0.00000332
     199         -0.203616        2.000000        0.00046489        0.00039251        0.00117113        0.00020599
     200         -0.203451        2.000000        0.00006138        0.00001444        0.00000630        0.00000095
     201         -0.203030        2.000000        0.00000661        0.00000378        0.00001192        0.00000206
     202         -0.202913        2.000000        0.00010182        0.00009423        0.00031037        0.00005530
     203         -0.202644        2.000000        0.00075416        0.00030644        0.00118778        0.00023226
     204         -0.202503        2.000000        0.00004593        0.00005059        0.00020960        0.00004195
     205         -0.201994        2.000000        0.00002089        0.00003237        0.00012685        0.00002717
     206         -0.199814        2.000000        0.05788619        0.01010171        0.00048755        0.00005281
     207         -0.199636        2.000000        0.00000457        0.00000100        0.00000065        0.00000008
     208         -0.198721        2.000000        0.00164445        0.00027337        0.00001632        0.00000173
     209         -0.198436        2.000000        0.00003438        0.00000712        0.00000529        0.00000073
     210         -0.198253        2.000000        0.00002647        0.00000652        0.00000322        0.00000050
     211         -0.197512        2.000000        0.00001740        0.00001190        0.00002701        0.00000354
     212         -0.197220        2.000000        0.00084654        0.00046724        0.00124698        0.00018441
     213         -0.196993        2.000000        0.00070873        0.00045558        0.00135786        0.00018137
     214         -0.196926        2.000000        0.00084437        0.00036052        0.00053243        0.00006677
     215         -0.196592        2.000000        0.00068496        0.00051161        0.00098703        0.00015815
     216         -0.195971        2.000000        0.00013590        0.00002873        0.00009284        0.00001836
     217         -0.195555        2.000000        0.00068844        0.00063833        0.00244452        0.00050833
     218         -0.195413        2.000000        0.00020347        0.00009412        0.00015182        0.00002366
     219         -0.195235        2.000000        0.00029034        0.00006815        0.00002699        0.00000538
     220         -0.194013        2.000000        0.00239641        0.00153327        0.00407658        0.00059734
     221         -0.193891        2.000000        0.00176410        0.00109665        0.00279236        0.00043213
     222         -0.193483        2.000000        0.00009119        0.00006748        0.00017110        0.00002652
     223         -0.192982        2.000000        0.00035639        0.00023643        0.00084014        0.00015078
     224         -0.192738        2.000000        0.00010776        0.00012462        0.00041501        0.00008455
     225         -0.192586        2.000000        0.00072749        0.00054490        0.00231391        0.00049330
     226         -0.192138        2.000000        0.00029710        0.00022606        0.00098465        0.00018996
     227         -0.191972        2.000000        0.00111278        0.00110829        0.00508963        0.00097753
     228         -0.191590        2.000000        0.00038564        0.00029309        0.00113585        0.00021891
     229         -0.191457        2.000000        0.00018750        0.00018434        0.00086262        0.00019158
     230         -0.191076        2.000000        0.00011621        0.00010916        0.00040725        0.00007792
     231         -0.190560        2.000000        0.00005934        0.00005581        0.00022317        0.00004652
     232         -0.190385        2.000000        0.00056564        0.00038822        0.00177563        0.00034438
     233         -0.190304        2.000000        0.00044393        0.00046524        0.00201718        0.00041330
     234         -0.190023        2.000000        0.00058444        0.00054731        0.00255587        0.00053477
     235         -0.189651        2.000000        0.00020457        0.00019697        0.00093488        0.00019810
     236         -0.189547        2.000000        0.00010997        0.00013462        0.00053516        0.00009893
     237         -0.189184        2.000000        0.00005446        0.00004206        0.00020356        0.00004322
     238         -0.188852        2.000000        0.00004525        0.00004198        0.00014549        0.00003088
     239         -0.188649        2.000000        0.00081061        0.00057975        0.00235813        0.00038890
     240         -0.188433        2.000000        0.00027521        0.00014470        0.00062389        0.00011219
     241         -0.188236        2.000000        0.00026108        0.00015713        0.00049811        0.00008885
     242         -0.187848        2.000000        0.00005351        0.00003390        0.00012184        0.00002631
     243         -0.187625        2.000000        0.00260883        0.00119729        0.00489690        0.00101074
     244         -0.187413        2.000000        0.00019200        0.00016830        0.00060038        0.00012164
     245         -0.187322        2.000000        0.00081582        0.00041806        0.00173789        0.00035445
     246         -0.187050        2.000000        0.00011178        0.00004396        0.00016031        0.00003116
     247         -0.186387        2.000000        0.00029187        0.00011334        0.00027879        0.00004598
     248         -0.186179        2.000000        0.00010887        0.00004396        0.00011138        0.00001969
     249         -0.185204        2.000000        0.00023495        0.00006576        0.00006278        0.00000820
     250         -0.185131        2.000000        0.00140837        0.00028261        0.00009383        0.00000479
     251         -0.185068        2.000000        0.00011836        0.00005983        0.00018767        0.00003495
     252         -0.184904        2.000000        0.00066905        0.00023173        0.00084680        0.00015529
     253         -0.184464        2.000000        0.00059996        0.00010521        0.00005848        0.00000819
     254         -0.184113        2.000000        0.00060638        0.00031038        0.00074454        0.00010929
     255         -0.183824        2.000000        0.00069731        0.00035270        0.00098931        0.00015878
     256         -0.183682        2.000000        0.00373125        0.00132130        0.00293123        0.00044408
     257         -0.183323        2.000000        0.00020799        0.00004042        0.00011758        0.00002151
     258         -0.183170        2.000000        0.00194473        0.00045259        0.00093430        0.00016220
     259         -0.182926        2.000000        0.00029988        0.00011015        0.00015438        0.00002882