# Projected DOS for atomic kind Au5 at iteration step i = 0, E(Fermi) =     0.128746 a.u.
#     MO Eigenvalue [a.u.]      Occupation                 s                 p                 d                 f
       1         -0.672430        2.000000        0.00000000        0.00000000        0.00000000        0.00000000
       2         -0.669483        2.000000        0.00000012        0.00000027        0.00000070        0.00000019
       3         -0.668614        2.000000        0.00000000        0.00000000        0.00000000        0.00000000
       4         -0.667955        2.000000        0.00000000        0.00000000        0.00000000        0.00000000
       5         -0.667056        2.000000        0.00000000        0.00000000        0.00000000        0.00000000
       6         -0.666292        2.000000        0.00000000        0.00000000        0.00000000        0.00000000
       7         -0.665197        2.000000        0.00000010        0.00000034        0.00000089        0.00000012
       8         -0.664753        2.000000        0.00000000        0.00000000        0.00000000        0.00000000
       9         -0.663687        2.000000        0.00000067        0.00000275        0.00000689        0.00000123
      10         -0.663175        2.000000        0.00000005        0.00000016        0.00000036        0.00000008
      11         -0.661580        2.000000        0.00000000        0.00000000        0.00000000        0.00000000
      12         -0.660455        2.000000        0.00000000        0.00000000        0.00000000        0.00000000
      13         -0.659162        2.000000        0.00000000        0.00000000        0.00000000        0.00000000
      14         -0.657063        2.000000        0.00000000        0.00000000        0.00000000        0.00000000
      15         -0.656320        2.000000        0.00000000        0.00000000        0.00000001        0.00000000
      16         -0.655890        2.000000        0.00000233        0.00000599        0.00001406        0.00000236
      17         -0.655624        2.000000        0.00000001        0.00000002        0.00000005        0.00000001
      18         -0.655323        2.000000        0.00000005        0.00000011        0.00000027        0.00000006
      19         -0.655233        2.000000        0.00000000        0.00000001        0.00000002        0.00000000
      20         -0.654915        2.000000        0.00000027        0.00000070        0.00000169        0.00000032
      21         -0.653870        2.000000        0.00000003        0.00000007        0.00000017        0.00000003
      22         -0.653373        2.000000        0.00000017        0.00000049        0.00000115        0.00000021
      23         -0.652901        2.000000        0.00000032        0.00000119        0.00000297        0.00000050
      24         -0.651720        2.000000        0.00000002        0.00000007        0.00000015        0.00000003
      25         -0.651508        2.000000        0.00000004        0.00000011        0.00000028        0.00000005
      26         -0.650655        2.000000        0.00000001        0.00000003        0.00000008        0.00000002
      27         -0.649699        2.000000        0.00000017        0.00000040        0.00000103        0.00000021
      28         -0.649408        2.000000        0.00000006        0.00000013        0.00000034        0.00000007
      29         -0.648811        2.000000        0.00000024        0.00000056        0.00000156        0.00000033
      30         -0.648716        2.000000        0.00000071        0.00000173        0.00000484        0.00000102
      31         -0.647328        2.000000        0.00000001        0.00000004        0.00000013        0.00000003
      32         -0.646555        2.000000        0.00000004        0.00000011        0.00000029        0.00000007
      33         -0.646412        2.000000        0.00000038        0.00000132        0.00000381        0.00000068
      34         -0.645775        2.000000        0.00000009        0.00000026        0.00000067        0.00000017
      35         -0.644835        2.000000        0.00000013        0.00000037        0.00000095        0.00000023
      36         -0.644778        2.000000        0.00000024        0.00000073        0.00000198        0.00000047
      37         -0.644567        2.000000        0.00000011        0.00000037        0.00000099        0.00000020
      38         -0.644393        2.000000        0.00000009        0.00000029        0.00000075        0.00000015
      39         -0.644271        2.000000        0.00000006        0.00000017        0.00000042        0.00000009
      40         -0.643299        2.000000        0.00000003        0.00000013        0.00000039        0.00000008
      41         -0.643003        2.000000        0.00000009        0.00000032        0.00000102        0.00000021
      42         -0.642780        2.000000        0.00000001        0.00000005        0.00000015        0.00000003
      43         -0.642567        2.000000        0.00000016        0.00000042        0.00000109        0.00000025
      44         -0.642113        2.000000        0.00000001        0.00000005        0.00000014        0.00000003
      45         -0.641741        2.000000        0.00000014        0.00000047        0.00000131        0.00000024
      46         -0.641499        2.000000        0.00000006        0.00000024        0.00000070        0.00000015
      47         -0.640713        2.000000        0.00000002        0.00000007        0.00000021        0.00000005
      48         -0.640530        2.000000        0.00000000        0.00000001        0.00000002        0.00000000
      49         -0.640030        2.000000        0.00000005        0.00000015        0.00000036        0.00000007
      50         -0.639867        2.000000        0.00000006        0.00000018        0.00000046        0.00000010
      51         -0.639444        2.000000        0.00000004        0.00000018        0.00000050        0.00000010
      52         -0.639210        2.000000        0.00000009        0.00000045        0.00000122        0.00000025
      53         -0.639146        2.000000        0.00000008        0.00000030        0.00000084        0.00000020
      54         -0.638732        2.000000        0.00000013        0.00000056        0.00000144        0.00000029
      55         -0.638289        2.000000        0.00000004        0.00000021        0.00000051        0.00000011
      56         -0.637321        2.000000        0.00000015        0.00000042        0.00000100        0.00000025
      57         -0.637203        2.000000        0.00000007        0.00000033        0.00000086        0.00000015
      58         -0.637066        2.000000        0.00000034        0.00000136        0.00000351        0.00000071
      59         -0.636675        2.000000        0.00000017        0.00000057        0.00000159        0.00000030
      60         -0.635935        2.000000        0.00000029        0.00000087        0.00000213        0.00000058
      61         -0.635227        2.000000        0.00000031        0.00000107        0.00000255        0.00000064
      62         -0.635107        2.000000        0.00000019        0.00000042        0.00000103        0.00000031
      63         -0.634833        2.000000        0.00000004        0.00000010        0.00000023        0.00000007
      64         -0.634470        2.000000        0.00000028        0.00000063        0.00000161        0.00000045
      65         -0.634367        2.000000        0.00000042        0.00000101        0.00000275        0.00000067
      66         -0.634038        2.000000        0.00000003        0.00000007        0.00000017        0.00000004
      67         -0.633843        2.000000        0.00000011        0.00000027        0.00000074        0.00000018
      68         -0.633384        2.000000        0.00000047        0.00000125        0.00000292        0.00000072
      69         -0.633044        2.000000        0.00000028        0.00000060        0.00000160        0.00000042
      70         -0.632857        2.000000        0.00000017        0.00000044        0.00000098        0.00000024
      71         -0.632275        2.000000        0.00000002        0.00000005        0.00000012        0.00000003
      72         -0.632105        2.000000        0.00000001        0.00000004        0.00000010        0.00000002
      73         -0.631869        2.000000        0.00000005        0.00000012        0.00000027        0.00000007
      74         -0.630858        2.000000        0.00000002        0.00000004        0.00000009        0.00000003
      75         -0.630633        2.000000        0.00000013        0.00000030        0.00000071        0.00000021
      76         -0.630425        2.000000        0.00000020        0.00000078        0.00000200        0.00000047
      77         -0.629951        2.000000        0.00000006        0.00000010        0.00000027        0.00000008
      78         -0.629454        2.000000        0.00000000        0.00000001        0.00000001        0.00000000
      79         -0.628653        2.000000        0.00000038        0.00000095        0.00000205        0.00000054
      80         -0.628576        2.000000        0.00000001        0.00000003        0.00000008        0.00000002
      81         -0.628358        2.000000        0.00000001        0.00000004        0.00000009        0.00000002
      82         -0.628217        2.000000        0.00000019        0.00000042        0.00000102        0.00000028
      83         -0.627320        2.000000        0.00000003        0.00000008        0.00000021        0.00000005
      84         -0.626841        2.000000        0.00000097        0.00000170        0.00000534        0.00000154
      85         -0.626336        2.000000        0.00000008        0.00000020        0.00000064        0.00000016
      86         -0.626147        2.000000        0.00000024        0.00000068        0.00000195        0.00000042
      87         -0.625987        2.000000        0.00000019        0.00000072        0.00000198        0.00000039
      88         -0.625774        2.000000        0.00000018        0.00000047        0.00000142        0.00000032
      89         -0.625361        2.000000        0.00000013        0.00000044        0.00000133        0.00000028
      90         -0.625165        2.000000        0.00000011        0.00000026        0.00000077        0.00000020
      91         -0.624866        2.000000        0.00000003        0.00000012        0.00000035        0.00000007
      92         -0.624565        2.000000        0.00000020        0.00000061        0.00000186        0.00000044
      93         -0.624237        2.000000        0.00000046        0.00000168        0.00000476        0.00000099
      94         -0.623721        2.000000        0.00000012        0.00000033        0.00000093        0.00000023
      95         -0.623594        2.000000        0.00000035        0.00000072        0.00000195        0.00000047
      96         -0.623257        2.000000        0.00000003        0.00000007        0.00000015        0.00000004
      97         -0.622851        2.000000        0.00000012        0.00000056        0.00000141        0.00000025
      98         -0.622232        2.000000        0.00000003        0.00000010        0.00000026        0.00000006
      99         -0.622173        2.000000        0.00000002        0.00000005        0.00000012        0.00000002
     100         -0.622079        2.000000        0.00000008        0.00000030        0.00000066        0.00000014
     101         -0.621451        2.000000        0.00000002        0.00000009        0.00000021        0.00000003
     102         -0.621089        2.000000        0.00000004        0.00000012        0.00000028        0.00000005
     103         -0.620735        2.000000        0.00000003        0.00000008        0.00000018        0.00000003
     104         -0.620425        2.000000        0.00000007        0.00000018        0.00000043        0.00000008
     105         -0.619781        2.000000        0.00000002        0.00000007        0.00000014        0.00000003
     106         -0.619575        2.000000        0.00000010        0.00000023        0.00000057        0.00000012
     107         -0.618915        2.000000        0.00000015        0.00000056        0.00000119        0.00000022
     108         -0.618512        2.000000        0.00000012        0.00000042        0.00000081        0.00000013
     109         -0.617954        2.000000        0.00000009        0.00000022        0.00000052        0.00000011
     110         -0.617665        2.000000        0.00000004        0.00000016        0.00000037        0.00000007
     111         -0.617194        2.000000        0.00000001        0.00000004        0.00000011        0.00000002
     112         -0.616932        2.000000        0.00000038        0.00000132        0.00000346        0.00000054
     113         -0.616563        2.000000        0.00000008        0.00000029        0.00000071        0.00000011
     114         -0.616066        2.000000        0.00000043        0.00000120        0.00000294        0.00000052
     115         -0.615647        2.000000        0.00000004        0.00000009        0.00000023        0.00000005
     116         -0.615401        2.000000        0.00000004        0.00000009        0.00000021        0.00000005
     117         -0.614602        2.000000        0.00000002        0.00000005        0.00000011        0.00000002
     118         -0.614459        2.000000        0.00000014        0.00000029        0.00000066        0.00000014
     119         -0.614065        2.000000        0.00000014        0.00000031        0.00000072        0.00000016
     120         -0.613776        2.000000        0.00000013        0.00000028        0.00000059        0.00000011
     121         -0.613333        2.000000        0.00000020        0.00000047        0.00000103        0.00000021
     122         -0.613233        2.000000        0.00000010        0.00000028        0.00000057        0.00000012
     123         -0.612983        2.000000        0.00000028        0.00000068        0.00000161        0.00000035
     124         -0.612581        2.000000        0.00000024        0.00000051        0.00000119        0.00000024
     125         -0.612469        2.000000        0.00000026        0.00000057        0.00000132        0.00000025
     126         -0.611596        2.000000        0.00000015        0.00000051        0.00000096        0.00000017
     127         -0.611199        2.000000        0.00000052        0.00000189        0.00000369        0.00000082
     128         -0.611011        2.000000        0.00000028        0.00000056        0.00000166        0.00000044
     129         -0.610802        2.000000        0.00000006        0.00000017        0.00000034        0.00000008
     130         -0.610602        2.000000        0.00000014        0.00000045        0.00000133        0.00000024
     131         -0.610315        2.000000        0.00000057        0.00000118        0.00000313        0.00000082
     132         -0.608920        2.000000        0.00000043        0.00000084        0.00000238        0.00000061
     133         -0.608714        2.000000        0.00000000        0.00000000        0.00000001        0.00000000
     134         -0.608689        2.000000        0.00000008        0.00000016        0.00000045        0.00000012
     135         -0.607712        2.000000        0.00000002        0.00000004        0.00000009        0.00000002
     136         -0.607241        2.000000        0.00000003        0.00000009        0.00000016        0.00000003
     137         -0.607015        2.000000        0.00000008        0.00000024        0.00000047        0.00000009
     138         -0.606961        2.000000        0.00000002        0.00000005        0.00000008        0.00000002
     139         -0.606668        2.000000        0.00000021        0.00000046        0.00000109        0.00000024
     140         -0.606217        2.000000        0.00000012        0.00000031        0.00000065        0.00000017
     141         -0.605760        2.000000        0.00000015        0.00000038        0.00000068        0.00000017
     142         -0.605530        2.000000        0.00000099        0.00000278        0.00000495        0.00000110
     143         -0.604726        2.000000        0.00000014        0.00000041        0.00000081        0.00000015
     144         -0.604251        2.000000        0.00000003        0.00000009        0.00000018        0.00000005
     145         -0.604012        2.000000        0.00000003        0.00000012        0.00000026        0.00000006
     146         -0.603621        2.000000        0.00000041        0.00000125        0.00000227        0.00000043
     147         -0.602798        2.000000        0.00000043        0.00000080        0.00000125        0.00000026
     148         -0.602043        2.000000        0.00000011        0.00000031        0.00000062        0.00000011
     149         -0.601806        2.000000        0.00000001        0.00000003        0.00000006        0.00000001
     150         -0.601164        2.000000        0.00000003        0.00000005        0.00000007        0.00000002
     151         -0.600494        2.000000        0.00000011        0.00000019        0.00000032        0.00000007
     152         -0.600235        2.000000        0.00000001        0.00000002        0.00000004        0.00000001
     153         -0.599390        2.000000        0.00000003        0.00000005        0.00000010        0.00000002
     154         -0.598787        2.000000        0.00000000        0.00000000        0.00000000        0.00000000
     155         -0.598286        2.000000        0.00000000        0.00000000        0.00000001        0.00000000
     156         -0.596934        2.000000        0.00000001        0.00000001        0.00000003        0.00000001
     157         -0.596320        2.000000        0.00000000        0.00000001        0.00000001        0.00000000
     158         -0.595753        2.000000        0.00000047        0.00000116        0.00000211        0.00000049
     159         -0.594631        2.000000        0.00000000        0.00000000        0.00000000        0.00000000
     160         -0.593777        2.000000        0.00000000        0.00000000        0.00000000        0.00000000
     161         -0.592082        2.000000        0.00000000        0.00000000        0.00000000        0.00000000
     162         -0.589122        2.000000        0.00000000        0.00000000        0.00000000        0.00000000
     163         -0.586735        2.000000        0.00000000        0.00000000        0.00000000        0.00000000
     164         -0.585766        2.000000        0.00000000        0.00000000        0.00000000        0.00000000
     165         -0.585182        2.000000        0.00000000        0.00000000        0.00000000        0.00000000
     166         -0.573903        2.000000        0.00000000        0.00000000        0.00000000        0.00000000
     167         -0.232303        2.000000        0.00000002        0.00000001        0.00000001        0.00000000
     168         -0.228380        2.000000        0.00029538        0.00011599        0.00016861        0.00001595
     169         -0.226510        2.000000        0.00001559        0.00000549        0.00000760        0.00000072
     170         -0.223708        2.000000        0.00000003        0.00000001        0.00000000        0.00000000
     171         -0.220593        2.000000        0.00000033        0.00000009        0.00000007        0.00000000
     172         -0.220130        2.000000        0.00000385        0.00000055        0.00000015        0.00000001
     173         -0.218641        2.000000        0.00000038        0.00000023        0.00000040        0.00000004
     174         -0.218322        2.000000        0.00000996        0.00000122        0.00000028        0.00000001
     175         -0.217040        2.000000        0.00001068        0.00000548        0.00001180        0.00000133
     176         -0.215954        2.000000        0.00000310        0.00000037        0.00000018        0.00000001
     177         -0.215808        2.000000        0.00000044        0.00000027        0.00000032        0.00000003
     178         -0.215345        2.000000        0.00000041        0.00000009        0.00000005        0.00000000
     179         -0.212987        2.000000        0.00091799        0.00020458        0.00033705        0.00003568
     180         -0.212274        2.000000        0.00001816        0.00000155        0.00000011        0.00000001
     181         -0.212168        2.000000        0.00001243        0.00000152        0.00000043        0.00000002
     182         -0.211357        2.000000        0.00003089        0.00000279        0.00000044        0.00000002
     183         -0.210843        2.000000        0.00008216        0.00000692        0.00000081        0.00000004
     184         -0.210303        2.000000        0.00007066        0.00000554        0.00000096        0.00000005
     185         -0.209997        2.000000        0.00000087        0.00000053        0.00000060        0.00000005
     186         -0.209803        2.000000        0.00000282        0.00000046        0.00000060        0.00000007
     187         -0.209469        2.000000        0.00001845        0.00000707        0.00000983        0.00000092
     188         -0.209379        2.000000        0.00016028        0.00001269        0.00000223        0.00000011
     189         -0.208401        2.000000        0.00045427        0.00003192        0.00000405        0.00000019
     190         -0.208067        2.000000        0.00026720        0.00002068        0.00000419        0.00000017
     191         -0.207628        2.000000        0.00043162        0.00002902        0.00000368        0.00000018
     192         -0.207419        2.000000        0.00044310        0.00002777        0.00000243        0.00000014
     193         -0.206511        2.000000        0.00009034        0.00002156        0.00008395        0.00001029
     194         -0.206338        2.000000        0.00002969        0.00001040        0.00002704        0.00000307
     195         -0.205963        2.000000        0.00001942        0.00000189        0.00000085        0.00000003
     196         -0.205597        2.000000        0.00001391        0.00000220        0.00000275        0.00000023
     197         -0.205313        2.000000        0.00001469        0.00000220        0.00000297        0.00000024
     198         -0.204841        2.000000        0.00003556        0.00000129        0.00000082        0.00000005
     199         -0.203616        2.000000        0.00009315        0.00001825        0.00003023        0.00000269
     200         -0.203451        2.000000        0.00026509        0.00001306        0.00000224        0.00000009
     201         -0.203030        2.000000        0.00000504        0.00000050        0.00000049        0.00000003
     202         -0.202913        2.000000        0.00005008        0.00001013        0.00000761        0.00000064
     203         -0.202644        2.000000        0.00110038        0.00002946        0.00002437        0.00000159
     204         -0.202503        2.000000        0.00001588        0.00000569        0.00000356        0.00000025
     205         -0.201994        2.000000        0.00006973        0.00000902        0.00000211        0.00000017
     206         -0.199814        2.000000        0.21508113        0.00661559        0.00169862        0.00005319
     207         -0.199636        2.000000        0.00001694        0.00000073        0.00000033        0.00000001
     208         -0.198721        2.000000        0.00586103        0.00015829        0.00005372        0.00000145
     209         -0.198436        2.000000        0.00012114        0.00000402        0.00000155        0.00000006
     210         -0.198253        2.000000        0.00009967        0.00000324        0.00000137        0.00000005
     211         -0.197512        2.000000        0.00005806        0.00000428        0.00000234        0.00000010
     212         -0.197220        2.000000        0.00014032        0.00004311        0.00004622        0.00000329
     213         -0.196993        2.000000        0.00025090        0.00002867        0.00004232        0.00000329
     214         -0.196926        2.000000        0.00300490        0.00011451        0.00005542        0.00000215
     215         -0.196592        2.000000        0.00077671        0.00011849        0.00004809        0.00000293
     216         -0.195971        2.000000        0.00022098        0.00000482        0.00000553        0.00000023
     217         -0.195555        2.000000        0.00021356        0.00008547        0.00004288        0.00000364
     218         -0.195413        2.000000        0.00080368        0.00002777        0.00001589        0.00000055
     219         -0.195235        2.000000        0.00109341        0.00002905        0.00001861        0.00000035
     220         -0.194013        2.000000        0.00055873        0.00020863        0.00015551        0.00001153
     221         -0.193891        2.000000        0.00043032        0.00019715        0.00011044        0.00000810
     222         -0.193483        2.000000        0.00003403        0.00001597        0.00000966        0.00000053
     223         -0.192982        2.000000        0.00006419        0.00002820        0.00002088        0.00000165
     224         -0.192738        2.000000        0.00026236        0.00002239        0.00001381        0.00000080
     225         -0.192586        2.000000        0.00010681        0.00006071        0.00004244        0.00000351
     226         -0.192138        2.000000        0.00029994        0.00001482        0.00002066        0.00000158
     227         -0.191972        2.000000        0.00027879        0.00005338        0.00008242        0.00000821
     228         -0.191590        2.000000        0.00004640        0.00002530        0.00002062        0.00000178
     229         -0.191457        2.000000        0.00004029        0.00000861        0.00001229        0.00000116
     230         -0.191076        2.000000        0.00016645        0.00001160        0.00001163        0.00000074
     231         -0.190560        2.000000        0.00005330        0.00000577        0.00000555        0.00000032
     232         -0.190385        2.000000        0.00010398        0.00002777        0.00003198        0.00000285
     233         -0.190304        2.000000        0.00007759        0.00001951        0.00003202        0.00000291
     234         -0.190023        2.000000        0.00011809        0.00003707        0.00004016        0.00000406
     235         -0.189651        2.000000        0.00005468        0.00001059        0.00001363        0.00000131
     236         -0.189547        2.000000        0.00006860        0.00001769        0.00000984        0.00000080
     237         -0.189184        2.000000        0.00005165        0.00000361        0.00000506        0.00000032
     238         -0.188852        2.000000        0.00012579        0.00000694        0.00000710        0.00000026
     239         -0.188649        2.000000        0.00016801        0.00006580        0.00004946        0.00000419
     240         -0.188433        2.000000        0.00012925        0.00002225        0.00001173        0.00000087
     241         -0.188236        2.000000        0.00002938        0.00001881        0.00000956        0.00000066
     242         -0.187848        2.000000        0.00002880        0.00000450        0.00000337        0.00000018
     243         -0.187625        2.000000        0.00079332        0.00020568        0.00009789        0.00000728
     244         -0.187413        2.000000        0.00010653        0.00003505        0.00001428        0.00000087
     245         -0.187322        2.000000        0.00018374        0.00006992        0.00003188        0.00000254
     246         -0.187050        2.000000        0.00006574        0.00001366        0.00000498        0.00000025
     247         -0.186387        2.000000        0.00012912        0.00002923        0.00001372        0.00000072
     248         -0.186179        2.000000        0.00005022        0.00000965        0.00000503        0.00000022
     249         -0.185204        2.000000        0.00090850        0.00012503        0.00005280        0.00000082
     250         -0.185131        2.000000        0.00428158        0.00029826        0.00023681        0.00000265
     251         -0.185068        2.000000        0.00032386        0.00005938        0.00002444        0.00000052
     252         -0.184904        2.000000        0.00050059        0.00007796        0.00004388        0.00000172
     253         -0.184464        2.000000        0.00157181        0.00005945        0.00007656        0.00000076
     254         -0.184113        2.000000        0.00027180        0.00005267        0.00003678        0.00000204
     255         -0.183824        2.000000        0.00039269        0.00006505        0.00004321        0.00000233
     256         -0.183682        2.000000        0.00198343        0.00041396        0.00016340        0.00000834
     257         -0.183323        2.000000        0.00021324        0.00002849        0.00001404        0.00000034
     258         -0.183170        2.000000        0.00186952        0.00027625        0.00008794        0.00000259
     259         -0.182926        2.000000        0.00086826        0.00004832        0.00005227        0.00000070