# Projected DOS for atomic kind Au at iteration step i = 0, E(Fermi) =     0.128746 a.u.
#     MO Eigenvalue [a.u.]      Occupation                 s                 p                 d                 f
       1         -0.672430        2.000000        0.00005747        0.00016520        0.00055608        0.00011127
       2         -0.669483        2.000000        0.00000001        0.00000005        0.00000018        0.00000004
       3         -0.668614        2.000000        0.00004584        0.00019060        0.00074299        0.00013999
       4         -0.667955        2.000000        0.00003949        0.00017994        0.00076494        0.00015948
       5         -0.667056        2.000000        0.00004306        0.00016674        0.00062238        0.00011573
       6         -0.666292        2.000000        0.00007882        0.00034489        0.00144116        0.00030485
       7         -0.665197        2.000000        0.00000003        0.00000010        0.00000037        0.00000008
       8         -0.664753        2.000000        0.00004277        0.00022769        0.00108588        0.00025755
       9         -0.663687        2.000000        0.00000004        0.00000007        0.00000015        0.00000004
      10         -0.663175        2.000000        0.00000001        0.00000004        0.00000014        0.00000003
      11         -0.661580        2.000000        0.00013522        0.00032658        0.00103161        0.00025342
      12         -0.660455        2.000000        0.00004269        0.00011301        0.00038146        0.00009088
      13         -0.659162        2.000000        0.00008674        0.00019162        0.00053967        0.00014177
      14         -0.657063        2.000000        0.00007622        0.00026976        0.00100055        0.00019654
      15         -0.656320        2.000000        0.00022143        0.00075632        0.00250523        0.00044449
      16         -0.655890        2.000000        0.00000123        0.00000300        0.00000951        0.00000237
      17         -0.655624        2.000000        0.00036767        0.00081618        0.00247308        0.00068406
      18         -0.655323        2.000000        0.00001695        0.00004438        0.00014014        0.00003037
      19         -0.655233        2.000000        0.00026067        0.00072785        0.00253359        0.00055218
      20         -0.654916        2.000000        0.00000473        0.00001297        0.00004489        0.00000998
      21         -0.653870        2.000000        0.00007300        0.00028657        0.00107515        0.00022094
      22         -0.653373        2.000000        0.00000860        0.00003685        0.00014632        0.00003088
      23         -0.652901        2.000000        0.00000091        0.00000352        0.00001320        0.00000271
      24         -0.651720        2.000000        0.00015422        0.00053626        0.00214164        0.00048718
      25         -0.651508        2.000000        0.00006904        0.00032568        0.00149284        0.00033878
      26         -0.650655        2.000000        0.00009655        0.00042518        0.00175258        0.00038770
      27         -0.649699        2.000000        0.00027394        0.00065124        0.00207913        0.00054568
      28         -0.649408        2.000000        0.00062294        0.00144656        0.00449862        0.00119284
      29         -0.648811        2.000000        0.00006668        0.00017618        0.00067559        0.00018536
      30         -0.648716        2.000000        0.00002342        0.00006116        0.00022350        0.00006075
      31         -0.647328        2.000000        0.00001874        0.00007364        0.00029023        0.00006421
      32         -0.646555        2.000000        0.00002913        0.00008770        0.00029226        0.00006273
      33         -0.646412        2.000000        0.00000028        0.00000082        0.00000267        0.00000051
      34         -0.645775        2.000000        0.00002185        0.00008283        0.00032466        0.00006931
      35         -0.644835        2.000000        0.00021153        0.00058268        0.00182711        0.00035638
      36         -0.644778        2.000000        0.00006335        0.00017299        0.00055459        0.00010966
      37         -0.644567        2.000000        0.00006309        0.00018066        0.00064761        0.00016127
      38         -0.644393        2.000000        0.00042580        0.00119045        0.00422076        0.00109470
      39         -0.644271        2.000000        0.00019210        0.00053924        0.00192259        0.00049974
      40         -0.643299        2.000000        0.00024528        0.00070528        0.00225366        0.00044386
      41         -0.643003        2.000000        0.00008902        0.00025330        0.00080871        0.00015926
      42         -0.642780        2.000000        0.00007702        0.00024034        0.00085336        0.00018578
      43         -0.642567        2.000000        0.00001101        0.00003401        0.00010376        0.00001825
      44         -0.642113        2.000000        0.00016819        0.00057378        0.00200928        0.00042087
      45         -0.641741        2.000000        0.00000799        0.00002675        0.00010032        0.00002236
      46         -0.641499        2.000000        0.00007584        0.00024461        0.00076719        0.00013103
      47         -0.640713        2.000000        0.00005383        0.00016620        0.00063291        0.00016215
      48         -0.640529        2.000000        0.00009287        0.00035628        0.00168559        0.00047636
      49         -0.640030        2.000000        0.00001976        0.00007278        0.00028429        0.00005905
      50         -0.639867        2.000000        0.00000796        0.00002778        0.00010952        0.00002606
      51         -0.639444        2.000000        0.00010938        0.00036272        0.00127031        0.00027544
      52         -0.639210        2.000000        0.00002572        0.00008590        0.00028207        0.00005207
      53         -0.639146        2.000000        0.00001034        0.00004046        0.00019251        0.00005364
      54         -0.638732        2.000000        0.00002062        0.00007337        0.00034879        0.00010075
      55         -0.638289        2.000000        0.00008811        0.00026393        0.00109664        0.00031753
      56         -0.637321        2.000000        0.00002571        0.00007107        0.00027087        0.00007746
      57         -0.637203        2.000000        0.00012436        0.00038693        0.00162400        0.00048826
      58         -0.637066        2.000000        0.00002855        0.00008815        0.00034858        0.00009904
      59         -0.636675        2.000000        0.00003680        0.00010278        0.00039581        0.00011441
      60         -0.635935        2.000000        0.00000623        0.00002164        0.00009674        0.00002866
      61         -0.635227        2.000000        0.00002688        0.00008721        0.00031878        0.00007476
      62         -0.635107        2.000000        0.00006368        0.00021304        0.00088088        0.00022596
      63         -0.634833        2.000000        0.00026737        0.00093633        0.00356917        0.00081060
      64         -0.634470        2.000000        0.00007519        0.00022060        0.00079073        0.00018171
      65         -0.634367        2.000000        0.00000935        0.00002858        0.00012442        0.00003886
      66         -0.634038        2.000000        0.00007015        0.00023529        0.00098941        0.00024429
      67         -0.633843        2.000000        0.00016898        0.00057353        0.00223791        0.00053076
      68         -0.633384        2.000000        0.00001372        0.00005103        0.00023405        0.00006405
      69         -0.633044        2.000000        0.00007560        0.00023527        0.00092395        0.00022420
      70         -0.632857        2.000000        0.00011020        0.00031215        0.00116230        0.00028653
      71         -0.632275        2.000000        0.00006698        0.00022634        0.00097143        0.00027663
      72         -0.632105        2.000000        0.00004991        0.00017387        0.00073643        0.00018695
      73         -0.631869        2.000000        0.00003898        0.00012568        0.00050748        0.00013195
      74         -0.630858        2.000000        0.00012685        0.00042456        0.00183768        0.00047058
      75         -0.630633        2.000000        0.00006601        0.00016612        0.00053242        0.00012502
      76         -0.630425        2.000000        0.00001745        0.00004547        0.00016140        0.00004030
      77         -0.629951        2.000000        0.00009642        0.00025581        0.00089173        0.00021164
      78         -0.629454        2.000000        0.00021013        0.00070840        0.00281247        0.00072867
      79         -0.628653        2.000000        0.00003964        0.00010674        0.00038535        0.00009550
      80         -0.628576        2.000000        0.00011671        0.00032571        0.00123465        0.00034123
      81         -0.628358        2.000000        0.00011647        0.00029312        0.00107558        0.00030955
      82         -0.628217        2.000000        0.00012457        0.00031574        0.00112846        0.00028687
      83         -0.627320        2.000000        0.00008899        0.00022334        0.00070430        0.00017485
      84         -0.626841        2.000000        0.00000507        0.00001523        0.00006420        0.00001662
      85         -0.626336        2.000000        0.00006623        0.00024762        0.00106346        0.00028089
      86         -0.626147        2.000000        0.00003794        0.00012496        0.00053960        0.00013619
      87         -0.625987        2.000000        0.00001687        0.00006339        0.00025072        0.00006365
      88         -0.625774        2.000000        0.00006292        0.00018870        0.00069883        0.00019035
      89         -0.625361        2.000000        0.00008758        0.00025723        0.00091442        0.00023126
      90         -0.625165        2.000000        0.00002008        0.00006450        0.00023664        0.00006003
      91         -0.624866        2.000000        0.00009880        0.00023003        0.00074295        0.00022660
      92         -0.624565        2.000000        0.00000997        0.00002822        0.00010302        0.00002704
      93         -0.624237        2.000000        0.00001061        0.00003051        0.00012042        0.00003067
      94         -0.623721        2.000000        0.00000671        0.00002314        0.00009821        0.00002529
      95         -0.623594        2.000000        0.00000509        0.00001223        0.00004321        0.00001389
      96         -0.623257        2.000000        0.00041005        0.00090861        0.00287529        0.00093133
      97         -0.622851        2.000000        0.00009360        0.00020862        0.00065698        0.00021196
      98         -0.622232        2.000000        0.00009446        0.00025717        0.00093947        0.00025313
      99         -0.622173        2.000000        0.00020527        0.00047105        0.00156088        0.00047465
     100         -0.622079        2.000000        0.00004353        0.00010564        0.00036817        0.00010244
     101         -0.621451        2.000000        0.00001037        0.00002679        0.00009900        0.00002913
     102         -0.621089        2.000000        0.00006652        0.00019535        0.00072470        0.00018501
     103         -0.620735        2.000000        0.00024687        0.00066419        0.00246485        0.00064503
     104         -0.620425        2.000000        0.00011088        0.00029062        0.00109917        0.00031595
     105         -0.619781        2.000000        0.00000875        0.00003096        0.00012393        0.00003047
     106         -0.619575        2.000000        0.00002717        0.00007485        0.00028905        0.00008196
     107         -0.618915        2.000000        0.00000665        0.00001748        0.00006374        0.00001815
     108         -0.618512        2.000000        0.00000037        0.00000121        0.00000484        0.00000123
     109         -0.617954        2.000000        0.00013378        0.00038087        0.00139342        0.00036791
     110         -0.617665        2.000000        0.00001320        0.00004907        0.00020793        0.00005351
     111         -0.617194        2.000000        0.00004030        0.00014727        0.00079277        0.00022691
     112         -0.616932        2.000000        0.00003907        0.00011732        0.00044305        0.00011479
     113         -0.616563        2.000000        0.00023951        0.00070991        0.00275642        0.00077715
     114         -0.616066        2.000000        0.00003233        0.00009799        0.00038508        0.00010944
     115         -0.615647        2.000000        0.00031628        0.00105319        0.00413513        0.00108212
     116         -0.615401        2.000000        0.00002495        0.00008831        0.00035334        0.00008788
     117         -0.614602        2.000000        0.00005695        0.00014944        0.00052820        0.00014433
     118         -0.614459        2.000000        0.00000283        0.00000818        0.00002924        0.00000779
     119         -0.614065        2.000000        0.00001635        0.00006630        0.00029300        0.00007546
     120         -0.613776        2.000000        0.00019933        0.00060060        0.00244634        0.00068986
     121         -0.613333        2.000000        0.00005546        0.00016516        0.00066415        0.00019038
     122         -0.613233        2.000000        0.00008377        0.00028599        0.00123389        0.00035392
     123         -0.612983        2.000000        0.00000600        0.00002425        0.00010406        0.00002870
     124         -0.612581        2.000000        0.00000638        0.00002161        0.00008623        0.00002400
     125         -0.612469        2.000000        0.00001354        0.00005084        0.00021406        0.00005766
     126         -0.611596        2.000000        0.00002413        0.00006090        0.00023516        0.00008024
     127         -0.611199        2.000000        0.00000039        0.00000143        0.00000613        0.00000178
     128         -0.611011        2.000000        0.00001162        0.00003007        0.00012207        0.00004344
     129         -0.610802        2.000000        0.00008273        0.00020996        0.00082299        0.00029170
     130         -0.610602        2.000000        0.00001662        0.00004559        0.00018989        0.00006716
     131         -0.610315        2.000000        0.00000091        0.00000323        0.00001521        0.00000502
     132         -0.608920        2.000000        0.00000929        0.00002131        0.00007369        0.00002443
     133         -0.608714        2.000000        0.00002489        0.00008968        0.00034742        0.00009429
     134         -0.608689        2.000000        0.00018560        0.00040715        0.00135254        0.00045747
     135         -0.607712        2.000000        0.00017323        0.00038125        0.00122949        0.00038785
     136         -0.607241        2.000000        0.00005518        0.00015655        0.00060992        0.00018259
     137         -0.607015        2.000000        0.00004922        0.00015592        0.00076009        0.00026556
     138         -0.606961        2.000000        0.00006326        0.00019308        0.00080033        0.00024219
     139         -0.606668        2.000000        0.00002201        0.00006442        0.00029751        0.00010438
     140         -0.606217        2.000000        0.00001131        0.00003508        0.00015320        0.00005308
     141         -0.605760        2.000000        0.00000919        0.00003254        0.00013865        0.00004341
     142         -0.605530        2.000000        0.00000094        0.00000330        0.00001451        0.00000475
     143         -0.604726        2.000000        0.00000361        0.00000856        0.00002995        0.00000960
     144         -0.604251        2.000000        0.00044978        0.00106917        0.00388382        0.00133580
     145         -0.604012        2.000000        0.00033355        0.00079928        0.00293881        0.00101676
     146         -0.603621        2.000000        0.00000157        0.00000435        0.00001826        0.00000617
     147         -0.602798        2.000000        0.00000050        0.00000128        0.00000480        0.00000156
     148         -0.602043        2.000000        0.00000030        0.00000082        0.00000354        0.00000125
     149         -0.601806        2.000000        0.00000151        0.00000356        0.00001248        0.00000432
     150         -0.601164        2.000000        0.00004422        0.00019450        0.00096794        0.00025904
     151         -0.600494        2.000000        0.00002324        0.00010746        0.00055220        0.00015091
     152         -0.600235        2.000000        0.00000964        0.00004215        0.00021258        0.00005836
     153         -0.599390        2.000000        0.00003315        0.00015119        0.00077655        0.00021516
     154         -0.598787        2.000000        0.00008711        0.00024610        0.00097031        0.00031883
     155         -0.598286        2.000000        0.00001266        0.00005538        0.00028177        0.00007856
     156         -0.596934        2.000000        0.00000111        0.00000485        0.00002581        0.00000770
     157         -0.596320        2.000000        0.00000160        0.00000543        0.00002412        0.00000747
     158         -0.595753        2.000000        0.00000001        0.00000004        0.00000014        0.00000004
     159         -0.594630        2.000000        0.00036287        0.00102614        0.00409690        0.00140410
     160         -0.593777        2.000000        0.00000334        0.00000957        0.00003846        0.00001324
     161         -0.592082        2.000000        0.00000013        0.00000042        0.00000180        0.00000055
     162         -0.589122        2.000000        0.00000001        0.00000007        0.00000047        0.00000016
     163         -0.586735        2.000000        0.00006299        0.00020855        0.00096355        0.00034269
     164         -0.585766        2.000000        0.00000142        0.00000539        0.00002442        0.00000665
     165         -0.585182        2.000000        0.00000003        0.00000012        0.00000058        0.00000015
     166         -0.573903        2.000000        0.00000000        0.00000000        0.00000000        0.00000000
     167         -0.232302        2.000000        0.00009114        0.00011360        0.00036854        0.00006438
     168         -0.228380        2.000000        0.00004687        0.00001093        0.00000870        0.00000060
     169         -0.226510        2.000000        0.00000289        0.00000060        0.00000044        0.00000003
     170         -0.223708        2.000000        0.00002878        0.00004861        0.00024968        0.00006748
     171         -0.220593        2.000000        0.00026780        0.00029949        0.00117623        0.00023902
     172         -0.220130        2.000000        0.00060916        0.00028334        0.00058402        0.00008436
     173         -0.218641        2.000000        0.00000016        0.00000006        0.00000011        0.00000002
     174         -0.218322        2.000000        0.00148996        0.00087041        0.00226731        0.00045114
     175         -0.217040        2.000000        0.00000205        0.00000057        0.00000073        0.00000008
     176         -0.215954        2.000000        0.00038327        0.00024306        0.00063630        0.00009607
     177         -0.215808        2.000000        0.00001596        0.00000941        0.00002419        0.00000362
     178         -0.215345        2.000000        0.00023345        0.00030445        0.00114313        0.00025247
     179         -0.212987        2.000000        0.00040864        0.00004015        0.00002322        0.00000131
     180         -0.212273        2.000000        0.00057966        0.00013869        0.00037868        0.00008181
     181         -0.212168        2.000000        0.00100221        0.00045367        0.00126872        0.00027470
     182         -0.211357        2.000000        0.00150810        0.00085124        0.00299673        0.00058884
     183         -0.210843        2.000000        0.00259075        0.00085149        0.00192516        0.00028560
     184         -0.210303        2.000000        0.00251314        0.00111256        0.00315675        0.00054707
     185         -0.209997        2.000000        0.00024656        0.00019983        0.00069394        0.00013029
     186         -0.209803        2.000000        0.00001357        0.00000851        0.00002295        0.00000382
     187         -0.209469        2.000000        0.00003811        0.00002117        0.00005342        0.00000868
     188         -0.209379        2.000000        0.00658099        0.00295138        0.00689263        0.00096157
     189         -0.208401        2.000000        0.00830674        0.00214629        0.00520400        0.00074995
     190         -0.208067        2.000000        0.00756153        0.00277660        0.00747906        0.00125788
     191         -0.207628        2.000000        0.00937534        0.00259140        0.00580508        0.00079038
     192         -0.207419        2.000000        0.00657496        0.00127988        0.00311551        0.00047024
     193         -0.206511        2.000000        0.00006863        0.00000495        0.00000312        0.00000038
     194         -0.206338        2.000000        0.00001547        0.00000172        0.00000135        0.00000012
     195         -0.205963        2.000000        0.00105790        0.00060855        0.00171068        0.00028896
     196         -0.205597        2.000000        0.00002917        0.00001594        0.00004163        0.00000645
     197         -0.205313        2.000000        0.00006868        0.00004752        0.00012774        0.00001967
     198         -0.204841        2.000000        0.00049982        0.00029072        0.00083441        0.00013480
     199         -0.203616        2.000000        0.00012853        0.00002314        0.00006222        0.00000971
     200         -0.203451        2.000000        0.00282012        0.00168129        0.00871284        0.00161837
     201         -0.203030        2.000000        0.00039098        0.00035320        0.00137803        0.00026997
     202         -0.202913        2.000000        0.00171914        0.00110351        0.00348868        0.00056229
     203         -0.202644        2.000000        0.00352905        0.00048442        0.00157072        0.00025038
     204         -0.202503        2.000000        0.00064421        0.00041502        0.00143088        0.00026917
     205         -0.201994        2.000000        0.00111433        0.00039756        0.00110253        0.00016895
     206         -0.199814        2.000000        0.59571777        0.01856506        0.00527669        0.00018191
     207         -0.199636        2.000000        0.00049205        0.00051113        0.00177723        0.00030487
     208         -0.198721        2.000000        0.01373559        0.00098253        0.00103676        0.00017101
     209         -0.198436        2.000000        0.00068006        0.00045705        0.00205627        0.00038131
     210         -0.198253        2.000000        0.00078306        0.00080082        0.00367725        0.00067175
     211         -0.197512        2.000000        0.00084623        0.00071156        0.00286382        0.00049599
     212         -0.197220        2.000000        0.00020097        0.00006225        0.00010483        0.00001699
     213         -0.196993        2.000000        0.00035641        0.00015945        0.00036486        0.00006392
     214         -0.196926        2.000000        0.00702878        0.00083569        0.00134388        0.00024862
     215         -0.196592        2.000000        0.00333128        0.00014298        0.00011333        0.00001294
     216         -0.195971        2.000000        0.00091169        0.00027807        0.00049810        0.00008845
     217         -0.195555        2.000000        0.00171219        0.00006905        0.00008181        0.00000928
     218         -0.195413        2.000000        0.00220918        0.00091025        0.00269091        0.00044290
     219         -0.195234        2.000000        0.00292602        0.00086326        0.00265542        0.00054507
     220         -0.194013        2.000000        0.00218070        0.00011404        0.00008298        0.00000569
     221         -0.193891        2.000000        0.00270237        0.00018706        0.00040429        0.00006165
     222         -0.193483        2.000000        0.00182556        0.00127488        0.00495907        0.00091291
     223         -0.192982        2.000000        0.00029473        0.00003562        0.00008357        0.00001376
     224         -0.192738        2.000000        0.00123016        0.00091710        0.00367294        0.00061417
     225         -0.192586        2.000000        0.00067233        0.00017710        0.00071606        0.00012593
     226         -0.192138        2.000000        0.00080562        0.00055543        0.00166891        0.00024904
     227         -0.191972        2.000000        0.00040549        0.00015931        0.00029966        0.00003679
     228         -0.191590        2.000000        0.00026018        0.00007099        0.00019325        0.00002946
     229         -0.191457        2.000000        0.00011358        0.00005220        0.00012691        0.00001831
     230         -0.191076        2.000000        0.00055817        0.00032439        0.00125067        0.00022345
     231         -0.190560        2.000000        0.00072195        0.00051380        0.00140440        0.00018610
     232         -0.190385        2.000000        0.00043026        0.00018974        0.00048150        0.00007094
     233         -0.190304        2.000000        0.00014807        0.00007186        0.00015664        0.00002156
     234         -0.190023        2.000000        0.00040294        0.00012387        0.00027727        0.00004286
     235         -0.189651        2.000000        0.00022013        0.00008950        0.00020904        0.00002897
     236         -0.189547        2.000000        0.00036061        0.00015137        0.00050437        0.00008233
     237         -0.189184        2.000000        0.00079454        0.00057862        0.00184487        0.00025425
     238         -0.188852        2.000000        0.00100455        0.00053057        0.00148674        0.00021117
     239         -0.188649        2.000000        0.00042560        0.00006984        0.00013442        0.00001923
     240         -0.188433        2.000000        0.00068411        0.00023488        0.00067538        0.00011258
     241         -0.188236        2.000000        0.00022394        0.00004290        0.00007847        0.00001164
     242         -0.187848        2.000000        0.00010273        0.00003263        0.00008097        0.00001280
     243         -0.187625        2.000000        0.00162587        0.00019698        0.00009162        0.00000347
     244         -0.187413        2.000000        0.00069160        0.00018754        0.00035112        0.00004781
     245         -0.187322        2.000000        0.00061845        0.00009812        0.00013691        0.00001746
     246         -0.187050        2.000000        0.00032205        0.00006757        0.00010762        0.00001461
     247         -0.186387        2.000000        0.00043600        0.00011401        0.00023578        0.00003048
     248         -0.186179        2.000000        0.00014529        0.00005180        0.00012235        0.00001953
     249         -0.185204        2.000000        0.00727150        0.00177145        0.00428094        0.00066778
     250         -0.185131        2.000000        0.02327686        0.00536775        0.00634550        0.00069658
     251         -0.185068        2.000000        0.00306692        0.00079615        0.00160003        0.00021355
     252         -0.184904        2.000000        0.00266479        0.00055094        0.00063392        0.00006475
     253         -0.184464        2.000000        0.00590083        0.00191490        0.00334946        0.00044121
     254         -0.184113        2.000000        0.00060291        0.00022486        0.00043128        0.00006552
     255         -0.183824        2.000000        0.00085134        0.00015512        0.00015453        0.00001914
     256         -0.183682        2.000000        0.00433518        0.00067381        0.00042397        0.00003363
     257         -0.183323        2.000000        0.00117239        0.00028727        0.00047450        0.00006554
     258         -0.183171        2.000000        0.00405415        0.00063129        0.00030845        0.00002343
     259         -0.182926        2.000000        0.00361511        0.00087905        0.00115970        0.00013122