# Projected DOS for atomic kind O at iteration step i = 0, E(Fermi) =     0.128746 a.u.
#     MO Eigenvalue [a.u.]      Occupation                 s                 p                 d
       1         -0.672430        2.000000        0.59418506        0.01970277        0.00043316
       2         -0.669483        2.000000        0.59169192        0.01987947        0.00058890
       3         -0.668614        2.000000        0.59551890        0.01768475        0.00048827
       4         -0.667955        2.000000        0.60053805        0.01951015        0.00044936
       5         -0.667056        2.000000        0.59096252        0.01904416        0.00047694
       6         -0.666292        2.000000        0.60088326        0.02215249        0.00046730
       7         -0.665197        2.000000        0.61945504        0.01967911        0.00034976
       8         -0.664753        2.000000        0.60220109        0.02012807        0.00054882
       9         -0.663687        2.000000        0.59471148        0.01830123        0.00056681
      10         -0.663175        2.000000        0.59552882        0.01968768        0.00054240
      11         -0.661580        2.000000        0.59931454        0.01848636        0.00036951
      12         -0.660455        2.000000        0.59372746        0.02054806        0.00044329
      13         -0.659162        2.000000        0.59930963        0.02013323        0.00036635
      14         -0.657063        2.000000        0.59860632        0.02115475        0.00043231
      15         -0.656320        2.000000        0.60001700        0.02048700        0.00046178
      16         -0.655890        2.000000        0.59651258        0.01772640        0.00061556
      17         -0.655624        2.000000        0.60764091        0.02068863        0.00036137
      18         -0.655323        2.000000        0.60677516        0.01874935        0.00043028
      19         -0.655233        2.000000        0.61055898        0.02042652        0.00049031
      20         -0.654916        2.000000        0.60382385        0.01933683        0.00045168
      21         -0.653870        2.000000        0.60346220        0.01926294        0.00048396
      22         -0.653373        2.000000        0.60395765        0.01717451        0.00046735
      23         -0.652901        2.000000        0.61002063        0.01779116        0.00053695
      24         -0.651720        2.000000        0.60423777        0.02086888        0.00044894
      25         -0.651508        2.000000        0.60538962        0.02060857        0.00042911
      26         -0.650655        2.000000        0.60839967        0.02120031        0.00050797
      27         -0.649699        2.000000        0.60636562        0.02213921        0.00041483
      28         -0.649408        2.000000        0.61145018        0.02188582        0.00039672
      29         -0.648811        2.000000        0.60753938        0.02152510        0.00038963
      30         -0.648716        2.000000        0.60099809        0.02109402        0.00043164
      31         -0.647328        2.000000        0.61215688        0.01983044        0.00042003
      32         -0.646555        2.000000        0.61441591        0.02014350        0.00038948
      33         -0.646412        2.000000        0.60988179        0.02134212        0.00040449
      34         -0.645775        2.000000        0.61242040        0.02080544        0.00041014
      35         -0.644835        2.000000        0.61300450        0.02162675        0.00040563
      36         -0.644778        2.000000        0.60997904        0.02087248        0.00042733
      37         -0.644567        2.000000        0.59899803        0.02196634        0.00051764
      38         -0.644393        2.000000        0.59825802        0.02433114        0.00052126
      39         -0.644271        2.000000        0.59397190        0.02529361        0.00058830
      40         -0.643299        2.000000        0.61290008        0.02186773        0.00042733
      41         -0.643003        2.000000        0.60922021        0.02078859        0.00044807
      42         -0.642780        2.000000        0.60524298        0.02142421        0.00047315
      43         -0.642567        2.000000        0.61437599        0.01980599        0.00039212
      44         -0.642113        2.000000        0.61539963        0.02263918        0.00050455
      45         -0.641741        2.000000        0.60935109        0.01956196        0.00045018
      46         -0.641499        2.000000        0.60999631        0.02021695        0.00046370
      47         -0.640713        2.000000        0.61514865        0.01891677        0.00042573
      48         -0.640529        2.000000        0.62198733        0.02093198        0.00044237
      49         -0.640030        2.000000        0.61402317        0.01978268        0.00042407
      50         -0.639867        2.000000        0.61758560        0.01820922        0.00043284
      51         -0.639444        2.000000        0.61781845        0.02150080        0.00044985
      52         -0.639210        2.000000        0.61678126        0.01967935        0.00044850
      53         -0.639146        2.000000        0.61334640        0.01781566        0.00044738
      54         -0.638732        2.000000        0.61961782        0.01868101        0.00043161
      55         -0.638289        2.000000        0.61766928        0.02038123        0.00044457
      56         -0.637321        2.000000        0.61565117        0.02061023        0.00043652
      57         -0.637203        2.000000        0.61852346        0.02190394        0.00042660
      58         -0.637066        2.000000        0.61573958        0.02265002        0.00043875
      59         -0.636675        2.000000        0.61821212        0.02091449        0.00042359
      60         -0.635935        2.000000        0.61957592        0.02170744        0.00043798
      61         -0.635227        2.000000        0.61632031        0.02245705        0.00041792
      62         -0.635107        2.000000        0.62243226        0.02234480        0.00045556
      63         -0.634833        2.000000        0.61181516        0.02189678        0.00051224
      64         -0.634470        2.000000        0.61599304        0.02214305        0.00046674
      65         -0.634367        2.000000        0.61954943        0.02238633        0.00041612
      66         -0.634038        2.000000        0.62513373        0.02185761        0.00041307
      67         -0.633843        2.000000        0.61970709        0.02161141        0.00045551
      68         -0.633384        2.000000        0.62079148        0.02350112        0.00040520
      69         -0.633044        2.000000        0.62264809        0.02205483        0.00041064
      70         -0.632857        2.000000        0.62491582        0.02175736        0.00040437
      71         -0.632275        2.000000        0.62612041        0.02272839        0.00041283
      72         -0.632105        2.000000        0.62121744        0.02164701        0.00043272
      73         -0.631869        2.000000        0.62251874        0.02212039        0.00042926
      74         -0.630858        2.000000        0.62452215        0.02138885        0.00042754
      75         -0.630633        2.000000        0.62433780        0.02122766        0.00043564
      76         -0.630425        2.000000        0.61699009        0.02253607        0.00050975
      77         -0.629951        2.000000        0.62859207        0.02147456        0.00038968
      78         -0.629454        2.000000        0.62642849        0.02184766        0.00042458
      79         -0.628653        2.000000        0.62670439        0.02279163        0.00043859
      80         -0.628576        2.000000        0.62692204        0.02180020        0.00041396
      81         -0.628358        2.000000        0.63135012        0.02175933        0.00041539
      82         -0.628217        2.000000        0.62895275        0.02146027        0.00043495
      83         -0.627320        2.000000        0.62814611        0.02191645        0.00043649
      84         -0.626841        2.000000        0.62567973        0.02232416        0.00042660
      85         -0.626336        2.000000        0.62746923        0.02192527        0.00042612
      86         -0.626147        2.000000        0.62655715        0.02191935        0.00045507
      87         -0.625987        2.000000        0.61847102        0.02193902        0.00045776
      88         -0.625774        2.000000        0.62690237        0.02116965        0.00044037
      89         -0.625361        2.000000        0.62957009        0.02273016        0.00042947
      90         -0.625165        2.000000        0.62659846        0.02152924        0.00041489
      91         -0.624866        2.000000        0.63131128        0.02215996        0.00042145
      92         -0.624565        2.000000        0.62493739        0.02112385        0.00041944
      93         -0.624237        2.000000        0.62216055        0.02343447        0.00046315
      94         -0.623721        2.000000        0.63128311        0.02123992        0.00041790
      95         -0.623594        2.000000        0.63144414        0.02128648        0.00040190
      96         -0.623257        2.000000        0.63975595        0.02249838        0.00040546
      97         -0.622851        2.000000        0.62743006        0.02224049        0.00042951
      98         -0.622232        2.000000        0.63613362        0.02307426        0.00041854
      99         -0.622173        2.000000        0.63696212        0.02353290        0.00041839
     100         -0.622079        2.000000        0.63219764        0.02215559        0.00041989
     101         -0.621451        2.000000        0.63553731        0.02294114        0.00042740
     102         -0.621089        2.000000        0.63402388        0.02240181        0.00043195
     103         -0.620735        2.000000        0.63184718        0.02299885        0.00043741
     104         -0.620425        2.000000        0.63398588        0.02244367        0.00042678
     105         -0.619781        2.000000        0.63436928        0.02188069        0.00041400
     106         -0.619575        2.000000        0.62921029        0.02301158        0.00043833
     107         -0.618915        2.000000        0.62790879        0.02234804        0.00045801
     108         -0.618512        2.000000        0.62598457        0.02257572        0.00046683
     109         -0.617954        2.000000        0.63758517        0.02188041        0.00041950
     110         -0.617665        2.000000        0.64009546        0.02311779        0.00043781
     111         -0.617194        2.000000        0.63932050        0.02056942        0.00044265
     112         -0.616932        2.000000        0.63574180        0.02383231        0.00041297
     113         -0.616563        2.000000        0.64094127        0.02224011        0.00041215
     114         -0.616066        2.000000        0.63940490        0.02367933        0.00040985
     115         -0.615647        2.000000        0.63602374        0.02298598        0.00040984
     116         -0.615401        2.000000        0.63835387        0.02168607        0.00042577
     117         -0.614602        2.000000        0.64420491        0.02166194        0.00043163
     118         -0.614459        2.000000        0.63272069        0.02142686        0.00042467
     119         -0.614065        2.000000        0.64292132        0.02174279        0.00040615
     120         -0.613776        2.000000        0.63304483        0.02196181        0.00045696
     121         -0.613333        2.000000        0.64226296        0.02145681        0.00043254
     122         -0.613233        2.000000        0.64062850        0.02195252        0.00042780
     123         -0.612983        2.000000        0.64513110        0.02243372        0.00039771
     124         -0.612581        2.000000        0.64521002        0.02133211        0.00042408
     125         -0.612469        2.000000        0.64258810        0.02228719        0.00042117
     126         -0.611596        2.000000        0.64398745        0.02295945        0.00038211
     127         -0.611199        2.000000        0.64510200        0.02637854        0.00038632
     128         -0.611011        2.000000        0.64182550        0.02222764        0.00040694
     129         -0.610802        2.000000        0.64175881        0.02360363        0.00038791
     130         -0.610602        2.000000        0.64515719        0.02252095        0.00039348
     131         -0.610315        2.000000        0.64804060        0.02312623        0.00038162
     132         -0.608920        2.000000        0.64681567        0.02209692        0.00039246
     133         -0.608714        2.000000        0.65290388        0.02136431        0.00043460
     134         -0.608689        2.000000        0.65741256        0.02179526        0.00038619
     135         -0.607712        2.000000        0.65644721        0.02194729        0.00039950
     136         -0.607241        2.000000        0.65655479        0.02100391        0.00033822
     137         -0.607015        2.000000        0.65500706        0.02317303        0.00038534
     138         -0.606961        2.000000        0.65319662        0.02215903        0.00035265
     139         -0.606668        2.000000        0.65412973        0.02284103        0.00038338
     140         -0.606217        2.000000        0.65881884        0.02189500        0.00037656
     141         -0.605760        2.000000        0.66014276        0.02200350        0.00038246
     142         -0.605530        2.000000        0.64950428        0.02381902        0.00040156
     143         -0.604726        2.000000        0.65228758        0.02266870        0.00038125
     144         -0.604251        2.000000        0.65167161        0.02396261        0.00038473
     145         -0.604012        2.000000        0.65260824        0.02393896        0.00039413
     146         -0.603621        2.000000        0.65120760        0.02354604        0.00039450
     147         -0.602798        2.000000        0.66172958        0.02233973        0.00034453
     148         -0.602043        2.000000        0.65728731        0.02200713        0.00039911
     149         -0.601806        2.000000        0.65997450        0.02393235        0.00037493
     150         -0.601164        2.000000        0.63980041        0.02109603        0.00049342
     151         -0.600494        2.000000        0.65937299        0.02186419        0.00042101
     152         -0.600235        2.000000        0.65861485        0.02237165        0.00039450
     153         -0.599390        2.000000        0.65436704        0.02140436        0.00045128
     154         -0.598787        2.000000        0.65344529        0.02268745        0.00037553
     155         -0.598286        2.000000        0.65411232        0.02180869        0.00041894
     156         -0.596934        2.000000        0.66231584        0.02201748        0.00038437
     157         -0.596320        2.000000        0.65944701        0.02197733        0.00040858
     158         -0.595753        2.000000        0.66029277        0.02425959        0.00044233
     159         -0.594630        2.000000        0.66722822        0.02351529        0.00038410
     160         -0.593777        2.000000        0.66677023        0.02112203        0.00035574
     161         -0.592082        2.000000        0.65922822        0.02219352        0.00037600
     162         -0.589122        2.000000        0.66266669        0.02222527        0.00037863
     163         -0.586735        2.000000        0.68262355        0.02142798        0.00035298
     164         -0.585766        2.000000        0.66030903        0.02423315        0.00041389
     165         -0.585182        2.000000        0.62923439        0.02752011        0.00065292
     166         -0.573903        2.000000        0.65858193        0.02051980        0.00051910
     167         -0.232302        2.000000        0.00400631        0.68162599        0.00669573
     168         -0.228380        2.000000        0.00204079        0.66640936        0.00628984
     169         -0.226510        2.000000        0.00273483        0.67627054        0.00671202
     170         -0.223708        2.000000        0.00244288        0.68855533        0.00586604
     171         -0.220593        2.000000        0.00367036        0.66981670        0.00697211
     172         -0.220130        2.000000        0.00217550        0.68476231        0.00636114
     173         -0.218641        2.000000        0.00115397        0.67418412        0.00593211
     174         -0.218322        2.000000        0.00177414        0.67760665        0.00660016
     175         -0.217040        2.000000        0.00281131        0.68518286        0.00733263
     176         -0.215954        2.000000        0.00186059        0.67162083        0.00561902
     177         -0.215808        2.000000        0.00234273        0.67949611        0.00548711
     178         -0.215345        2.000000        0.00217161        0.67818659        0.00630679
     179         -0.212987        2.000000        0.00358421        0.65690367        0.00616107
     180         -0.212273        2.000000        0.00239448        0.68108423        0.00614096
     181         -0.212168        2.000000        0.00300382        0.67611081        0.00624531
     182         -0.211357        2.000000        0.00223149        0.66778841        0.00615590
     183         -0.210843        2.000000        0.00266939        0.67033804        0.00556639
     184         -0.210303        2.000000        0.00220954        0.65927563        0.00595561
     185         -0.209997        2.000000        0.00314183        0.67497960        0.00530049
     186         -0.209803        2.000000        0.00147136        0.68212404        0.00662272
     187         -0.209469        2.000000        0.00331896        0.67842541        0.00604213
     188         -0.209379        2.000000        0.00164486        0.66332200        0.00646232
     189         -0.208401        2.000000        0.00300283        0.65983640        0.00532226
     190         -0.208067        2.000000        0.00164778        0.65206264        0.00711353
     191         -0.207628        2.000000        0.00350020        0.66168473        0.00637980
     192         -0.207419        2.000000        0.00282033        0.67049931        0.00625201
     193         -0.206511        2.000000        0.00455603        0.68047777        0.00721187
     194         -0.206338        2.000000        0.00297463        0.68028562        0.00698509
     195         -0.205963        2.000000        0.00181060        0.67485155        0.00630887
     196         -0.205597        2.000000        0.00267350        0.68165358        0.00557082
     197         -0.205313        2.000000        0.00290251        0.67637506        0.00544131
     198         -0.204841        2.000000        0.00334912        0.67960928        0.00597260
     199         -0.203616        2.000000        0.00225690        0.67722081        0.00639069
     200         -0.203451        2.000000        0.00298292        0.66965309        0.00619764
     201         -0.203030        2.000000        0.00400779        0.67974061        0.00592794
     202         -0.202913        2.000000        0.00223440        0.66862652        0.00652157
     203         -0.202644        2.000000        0.00232303        0.67378227        0.00642037
     204         -0.202503        2.000000        0.00379217        0.67062777        0.00623932
     205         -0.201994        2.000000        0.00319044        0.67637140        0.00619034
     206         -0.199814        2.000000        0.00037311        0.05820321        0.00053078
     207         -0.199636        2.000000        0.00299092        0.67976863        0.00677616
     208         -0.198721        2.000000        0.00355783        0.66224752        0.00598040
     209         -0.198436        2.000000        0.00421360        0.67944406        0.00620967
     210         -0.198253        2.000000        0.00405024        0.67569370        0.00600380
     211         -0.197512        2.000000        0.00287213        0.68009827        0.00626995
     212         -0.197220        2.000000        0.00351607        0.67853590        0.00584258
     213         -0.196993        2.000000        0.00326252        0.67544335        0.00565752
     214         -0.196926        2.000000        0.00354998        0.67033489        0.00619172
     215         -0.196592        2.000000        0.00288412        0.67422099        0.00601471
     216         -0.195971        2.000000        0.00278421        0.68218981        0.00661532
     217         -0.195555        2.000000        0.00424881        0.66912770        0.00624281
     218         -0.195413        2.000000        0.00346914        0.67286728        0.00595641
     219         -0.195234        2.000000        0.00405512        0.67759058        0.00607587
     220         -0.194013        2.000000        0.00333163        0.66976477        0.00613022
     221         -0.193891        2.000000        0.00329434        0.67292445        0.00612145
     222         -0.193483        2.000000        0.00352926        0.67472283        0.00629922
     223         -0.192982        2.000000        0.00452206        0.68031294        0.00575031
     224         -0.192738        2.000000        0.00366936        0.67398677        0.00642693
     225         -0.192586        2.000000        0.00373720        0.67683099        0.00619965
     226         -0.192138        2.000000        0.00270202        0.67203849        0.00647853
     227         -0.191972        2.000000        0.00314933        0.67423206        0.00607136
     228         -0.191590        2.000000        0.00345028        0.68011370        0.00624583
     229         -0.191457        2.000000        0.00337830        0.67957571        0.00588785
     230         -0.191076        2.000000        0.00299873        0.67997255        0.00630657
     231         -0.190560        2.000000        0.00354340        0.67611056        0.00628079
     232         -0.190385        2.000000        0.00292832        0.67830706        0.00654176
     233         -0.190304        2.000000        0.00372234        0.67637627        0.00588175
     234         -0.190023        2.000000        0.00341854        0.67484113        0.00627155
     235         -0.189651        2.000000        0.00340327        0.66975444        0.00603058
     236         -0.189547        2.000000        0.00265221        0.67770561        0.00661269
     237         -0.189184        2.000000        0.00279270        0.67260388        0.00609737
     238         -0.188852        2.000000        0.00261668        0.67113458        0.00638575
     239         -0.188649        2.000000        0.00234349        0.67108783        0.00623958
     240         -0.188433        2.000000        0.00302505        0.67959705        0.00645482
     241         -0.188236        2.000000        0.00285810        0.67627124        0.00623808
     242         -0.187848        2.000000        0.00220903        0.67328419        0.00659351
     243         -0.187625        2.000000        0.00205866        0.67105234        0.00658496
     244         -0.187413        2.000000        0.00291560        0.67866346        0.00658795
     245         -0.187322        2.000000        0.00248266        0.67009491        0.00666952
     246         -0.187050        2.000000        0.00245869        0.67573857        0.00645814
     247         -0.186387        2.000000        0.00342454        0.67396324        0.00633719
     248         -0.186179        2.000000        0.00247664        0.68093759        0.00643693
     249         -0.185204        2.000000        0.00275847        0.67485363        0.00636427
     250         -0.185131        2.000000        0.00281630        0.64736597        0.00645657
     251         -0.185068        2.000000        0.00283405        0.67348017        0.00693220
     252         -0.184904        2.000000        0.00313506        0.67100707        0.00653898
     253         -0.184464        2.000000        0.00216182        0.66471788        0.00658627
     254         -0.184113        2.000000        0.00349454        0.67493087        0.00649285
     255         -0.183824        2.000000        0.00365745        0.67688792        0.00649422
     256         -0.183682        2.000000        0.00343922        0.66854095        0.00676004
     257         -0.183323        2.000000        0.00258573        0.67969439        0.00645740
     258         -0.183171        2.000000        0.00343626        0.67519640        0.00622186
     259         -0.182926        2.000000        0.00258054        0.67217771        0.00667572
     260         -0.182746        2.000000        0.00305448        0.67258683        0.00663690
     261         -0.182380        2.000000        0.00307095        0.67667245        0.00661211
     262         -0.182181        2.000000        0.00267230        0.67300565        0.00652588
     263         -0.181452        2.000000        0.00339852        0.67690702        0.00649146
     264         -0.181219        2.000000        0.00266258        0.67403934        0.00674116
     265         -0.181082        2.000000        0.00355092        0.67529394        0.00642098
     266         -0.180933        2.000000        0.00348355        0.67216285        0.00629618
     267         -0.180755        2.000000        0.00220208        0.68017474        0.00678784
     268         -0.180675        2.000000        0.00407766        0.68572715        0.00642107
     269         -0.180444        2.000000        0.00281200        0.67241345        0.00656251
     270         -0.179687        2.000000        0.00317871        0.65254277        0.00618853
     271         -0.179290        2.000000        0.00085423        0.15240358        0.00148614
     272         -0.179100        2.000000        0.00352629        0.65928050        0.00621727
     273         -0.178845        2.000000        0.00303833        0.61395101        0.00592328
     274         -0.178628        2.000000        0.00283863        0.59833286        0.00591884
     275         -0.178511        2.000000        0.00318827        0.62225694        0.00590499
     276         -0.178456        2.000000        0.00122278        0.18373382        0.00168927
     277         -0.177664        2.000000        0.00357245        0.68023167        0.00646940
     278         -0.177133        2.000000        0.00317835        0.67712732        0.00657466
     279         -0.176864        2.000000        0.00504783        0.66810003        0.00660928
     280         -0.176695        2.000000        0.00316144        0.67694103        0.00761318
     281         -0.176227        2.000000        0.00566179        0.67313293        0.00621958
     282         -0.176045        2.000000        0.00359542        0.67652927        0.00654869
     283         -0.175673        2.000000        0.00262486        0.67293161        0.00646469
     284         -0.175386        2.000000        0.00461261        0.67338207        0.00633111
     285         -0.175303        2.000000        0.00383087        0.68705674        0.00672811
     286         -0.174757        2.000000        0.00400325        0.66539720        0.00662513
     287         -0.174704        2.000000        0.00331475        0.67849210        0.00653772
     288         -0.174576        2.000000        0.00316291        0.68038009        0.00676732
     289         -0.173814        2.000000        0.00357338        0.67855179        0.00677314
     290         -0.173568        2.000000        0.00308856        0.62136621        0.00620424
     291         -0.173373        2.000000        0.00367612        0.67221164        0.00615724
     292         -0.173255        2.000000        0.00389372        0.67146335        0.00629247
     293         -0.172691        2.000000        0.00295981        0.57824822        0.00556040
     294         -0.172293        2.000000        0.00145890        0.23394878        0.00233443
     295         -0.172083        2.000000        0.00460315        0.67338324        0.00682757
     296         -0.171839        2.000000        0.00388813        0.64210940        0.00643737
     297         -0.171726        2.000000        0.00439877        0.66175104        0.00666243
     298         -0.171338        2.000000        0.00118126        0.14207696        0.00142631
     299         -0.169783        2.000000        0.00411220        0.66086071        0.00605867
     300         -0.169701        2.000000        0.00477882        0.54071858        0.00495449
     301         -0.169657        2.000000        0.00243662        0.32160057        0.00309937
     302         -0.169293        2.000000        0.00417000        0.67552809        0.00641642
     303         -0.168862        2.000000        0.00441669        0.64438955        0.00628085
     304         -0.168521        2.000000        0.00499676        0.62408159        0.00596676
     305         -0.168332        2.000000        0.00536279        0.58788528        0.00529755
     306         -0.167883        2.000000        0.00383156        0.68827065        0.00632493
     307         -0.167506        2.000000        0.00509696        0.66837040        0.00617079