# Projected DOS for atomic kind Au1 at iteration step i = 0, E(Fermi) =     0.128746 a.u.
#     MO Eigenvalue [a.u.]      Occupation                 s                 p                 d                 f
       1         -0.672430        2.000000        0.00020853        0.00068665        0.00225338        0.00046058
       2         -0.669483        2.000000        0.00001615        0.00004102        0.00013604        0.00002334
       3         -0.668614        2.000000        0.00001054        0.00007844        0.00019433        0.00002818
       4         -0.667955        2.000000        0.00002279        0.00003754        0.00014918        0.00003159
       5         -0.667056        2.000000        0.00005550        0.00013830        0.00038708        0.00006241
       6         -0.666292        2.000000        0.00001423        0.00006511        0.00010641        0.00001939
       7         -0.665197        2.000000        0.00001590        0.00003590        0.00008905        0.00002083
       8         -0.664753        2.000000        0.00001111        0.00001668        0.00004407        0.00000998
       9         -0.663687        2.000000        0.00000486        0.00001596        0.00006990        0.00001639
      10         -0.663175        2.000000        0.00015736        0.00067040        0.00223273        0.00034676
      11         -0.661580        2.000000        0.00053808        0.00178490        0.00457082        0.00085709
      12         -0.660455        2.000000        0.00079729        0.00138353        0.00438297        0.00103704
      13         -0.659162        2.000000        0.00018786        0.00062380        0.00149329        0.00033225
      14         -0.657063        2.000000        0.00021115        0.00074764        0.00267119        0.00053219
      15         -0.656320        2.000000        0.00005184        0.00012728        0.00043334        0.00010103
      16         -0.655890        2.000000        0.00000453        0.00001855        0.00007666        0.00001627
      17         -0.655624        2.000000        0.00037173        0.00096769        0.00336904        0.00111312
      18         -0.655323        2.000000        0.00006053        0.00020516        0.00064276        0.00012303
      19         -0.655233        2.000000        0.00034146        0.00106300        0.00386277        0.00105890
      20         -0.654916        2.000000        0.00013908        0.00055720        0.00178696        0.00032829
      21         -0.653870        2.000000        0.00001732        0.00004126        0.00018527        0.00007379
      22         -0.653373        2.000000        0.00000648        0.00001957        0.00006938        0.00001510
      23         -0.652901        2.000000        0.00000378        0.00001379        0.00006131        0.00001218
      24         -0.651720        2.000000        0.00001253        0.00008067        0.00040782        0.00009058
      25         -0.651508        2.000000        0.00001513        0.00005233        0.00024087        0.00004675
      26         -0.650655        2.000000        0.00000752        0.00001911        0.00008071        0.00002372
      27         -0.649699        2.000000        0.00007683        0.00025048        0.00109319        0.00033012
      28         -0.649408        2.000000        0.00009678        0.00034781        0.00156178        0.00046798
      29         -0.648811        2.000000        0.00007212        0.00018732        0.00073066        0.00021863
      30         -0.648716        2.000000        0.00010482        0.00025224        0.00076479        0.00019262
      31         -0.647328        2.000000        0.00001572        0.00004676        0.00017795        0.00003890
      32         -0.646555        2.000000        0.00003752        0.00011363        0.00068943        0.00017294
      33         -0.646412        2.000000        0.00044999        0.00106903        0.00252752        0.00062734
      34         -0.645775        2.000000        0.00002123        0.00010177        0.00070639        0.00017692
      35         -0.644835        2.000000        0.00036453        0.00076111        0.00265038        0.00078402
      36         -0.644778        2.000000        0.00018857        0.00048306        0.00142536        0.00045548
      37         -0.644567        2.000000        0.00011127        0.00047903        0.00176519        0.00051377
      38         -0.644393        2.000000        0.00002392        0.00018259        0.00102840        0.00023969
      39         -0.644271        2.000000        0.00011545        0.00048040        0.00216908        0.00057997
      40         -0.643299        2.000000        0.00028722        0.00067072        0.00234798        0.00072573
      41         -0.643003        2.000000        0.00012672        0.00038744        0.00138275        0.00043782
      42         -0.642780        2.000000        0.00009041        0.00017765        0.00071703        0.00020848
      43         -0.642567        2.000000        0.00003387        0.00022977        0.00077960        0.00019202
      44         -0.642113        2.000000        0.00008801        0.00021208        0.00067125        0.00020030
      45         -0.641741        2.000000        0.00005925        0.00021961        0.00069339        0.00016458
      46         -0.641499        2.000000        0.00010426        0.00024693        0.00073630        0.00019942
      47         -0.640713        2.000000        0.00015053        0.00034421        0.00112317        0.00031717
      48         -0.640529        2.000000        0.00003942        0.00013084        0.00082885        0.00021199
      49         -0.640030        2.000000        0.00000966        0.00008051        0.00030482        0.00006055
      50         -0.639867        2.000000        0.00008268        0.00017589        0.00059098        0.00014075
      51         -0.639444        2.000000        0.00005465        0.00016107        0.00043455        0.00009667
      52         -0.639210        2.000000        0.00004149        0.00014211        0.00055853        0.00011772
      53         -0.639146        2.000000        0.00016861        0.00034521        0.00107043        0.00026899
      54         -0.638732        2.000000        0.00011594        0.00026573        0.00092299        0.00027420
      55         -0.638289        2.000000        0.00017919        0.00043268        0.00143748        0.00049148
      56         -0.637321        2.000000        0.00006133        0.00019458        0.00050015        0.00015301
      57         -0.637203        2.000000        0.00026788        0.00059681        0.00179881        0.00051291
      58         -0.637066        2.000000        0.00021766        0.00061323        0.00189501        0.00051030
      59         -0.636675        2.000000        0.00015576        0.00032177        0.00104476        0.00030053
      60         -0.635935        2.000000        0.00011504        0.00043465        0.00138958        0.00032686
      61         -0.635227        2.000000        0.00003765        0.00021655        0.00079344        0.00018907
      62         -0.635107        2.000000        0.00004472        0.00012303        0.00049510        0.00011126
      63         -0.634833        2.000000        0.00019484        0.00048938        0.00120446        0.00028290
      64         -0.634470        2.000000        0.00005267        0.00021168        0.00081077        0.00020161
      65         -0.634367        2.000000        0.00002127        0.00007093        0.00026657        0.00010540
      66         -0.634038        2.000000        0.00003595        0.00015422        0.00050083        0.00011323
      67         -0.633843        2.000000        0.00002437        0.00023482        0.00169384        0.00047775
      68         -0.633384        2.000000        0.00023601        0.00068146        0.00224926        0.00052425
      69         -0.633044        2.000000        0.00026861        0.00069894        0.00238753        0.00065464
      70         -0.632857        2.000000        0.00034168        0.00090799        0.00307952        0.00079025
      71         -0.632275        2.000000        0.00007606        0.00033491        0.00116610        0.00040284
      72         -0.632105        2.000000        0.00005530        0.00021384        0.00085478        0.00029465
      73         -0.631869        2.000000        0.00016270        0.00051602        0.00206485        0.00060800
      74         -0.630858        2.000000        0.00011045        0.00030987        0.00109242        0.00039202
      75         -0.630633        2.000000        0.00010979        0.00016735        0.00117352        0.00024717
      76         -0.630425        2.000000        0.00001841        0.00013544        0.00075066        0.00018911
      77         -0.629951        2.000000        0.00006831        0.00014653        0.00061938        0.00018380
      78         -0.629454        2.000000        0.00012740        0.00025718        0.00063399        0.00020728
      79         -0.628653        2.000000        0.00011697        0.00023953        0.00113632        0.00035829
      80         -0.628576        2.000000        0.00006023        0.00016872        0.00075244        0.00025107
      81         -0.628358        2.000000        0.00007746        0.00029728        0.00086530        0.00036760
      82         -0.628217        2.000000        0.00017435        0.00036759        0.00134973        0.00049279
      83         -0.627320        2.000000        0.00006781        0.00019273        0.00073354        0.00016835
      84         -0.626841        2.000000        0.00005024        0.00014215        0.00045281        0.00012267
      85         -0.626336        2.000000        0.00008022        0.00039135        0.00132689        0.00033572
      86         -0.626147        2.000000        0.00003790        0.00016676        0.00059860        0.00017225
      87         -0.625987        2.000000        0.00010942        0.00025875        0.00083478        0.00024146
      88         -0.625774        2.000000        0.00021264        0.00077708        0.00296503        0.00064003
      89         -0.625361        2.000000        0.00006013        0.00015920        0.00071747        0.00020143
      90         -0.625165        2.000000        0.00001872        0.00010218        0.00053064        0.00013446
      91         -0.624866        2.000000        0.00002690        0.00013803        0.00101465        0.00015426
      92         -0.624565        2.000000        0.00003153        0.00009052        0.00051911        0.00011089
      93         -0.624237        2.000000        0.00006604        0.00015202        0.00061426        0.00018261
      94         -0.623721        2.000000        0.00004459        0.00016215        0.00076729        0.00017652
      95         -0.623594        2.000000        0.00004347        0.00014543        0.00062398        0.00018928
      96         -0.623257        2.000000        0.00017239        0.00033346        0.00115417        0.00054557
      97         -0.622851        2.000000        0.00009158        0.00020639        0.00065261        0.00023371
      98         -0.622232        2.000000        0.00009143        0.00026646        0.00086089        0.00033151
      99         -0.622173        2.000000        0.00012398        0.00028369        0.00094239        0.00035725
     100         -0.622079        2.000000        0.00002450        0.00009325        0.00034935        0.00008822
     101         -0.621451        2.000000        0.00003564        0.00013165        0.00049890        0.00015795
     102         -0.621089        2.000000        0.00002028        0.00007898        0.00022852        0.00007758
     103         -0.620735        2.000000        0.00001376        0.00006932        0.00027149        0.00010540
     104         -0.620425        2.000000        0.00002194        0.00014238        0.00054868        0.00018703
     105         -0.619781        2.000000        0.00004463        0.00007514        0.00038432        0.00016035
     106         -0.619575        2.000000        0.00003039        0.00009897        0.00032458        0.00010303
     107         -0.618915        2.000000        0.00005544        0.00011936        0.00055779        0.00016417
     108         -0.618512        2.000000        0.00002197        0.00005411        0.00040181        0.00009154
     109         -0.617954        2.000000        0.00008189        0.00025894        0.00114986        0.00023316
     110         -0.617665        2.000000        0.00004066        0.00024319        0.00094541        0.00031951
     111         -0.617194        2.000000        0.00084678        0.00216537        0.00695654        0.00223887
     112         -0.616932        2.000000        0.00004037        0.00013794        0.00064043        0.00014091
     113         -0.616563        2.000000        0.00004367        0.00009425        0.00029889        0.00012719
     114         -0.616066        2.000000        0.00001436        0.00004939        0.00023505        0.00008153
     115         -0.615647        2.000000        0.00006006        0.00010957        0.00036909        0.00017953
     116         -0.615401        2.000000        0.00003672        0.00012236        0.00087071        0.00017732
     117         -0.614602        2.000000        0.00009256        0.00026260        0.00110062        0.00039445
     118         -0.614459        2.000000        0.00009353        0.00017800        0.00069165        0.00020757
     119         -0.614065        2.000000        0.00006473        0.00018519        0.00058969        0.00026114
     120         -0.613776        2.000000        0.00011679        0.00026239        0.00082006        0.00026031
     121         -0.613333        2.000000        0.00027065        0.00072027        0.00271294        0.00094498
     122         -0.613233        2.000000        0.00003132        0.00013036        0.00067390        0.00018809
     123         -0.612983        2.000000        0.00013029        0.00033148        0.00103928        0.00043086
     124         -0.612581        2.000000        0.00016374        0.00051071        0.00204395        0.00067693
     125         -0.612469        2.000000        0.00002484        0.00006635        0.00030059        0.00009745
     126         -0.611596        2.000000        0.00001299        0.00006129        0.00041862        0.00017746
     127         -0.611199        2.000000        0.00001951        0.00008510        0.00026532        0.00008296
     128         -0.611011        2.000000        0.00009215        0.00022428        0.00076349        0.00025936
     129         -0.610802        2.000000        0.00001358        0.00004474        0.00021355        0.00006082
     130         -0.610602        2.000000        0.00005455        0.00013074        0.00043526        0.00014136
     131         -0.610315        2.000000        0.00000822        0.00004025        0.00023070        0.00007170
     132         -0.608920        2.000000        0.00001549        0.00004456        0.00018748        0.00006739
     133         -0.608714        2.000000        0.00000671        0.00002027        0.00010086        0.00003277
     134         -0.608689        2.000000        0.00000817        0.00002001        0.00006305        0.00002475
     135         -0.607712        2.000000        0.00001480        0.00003618        0.00012091        0.00003987
     136         -0.607241        2.000000        0.00000255        0.00001371        0.00007048        0.00001671
     137         -0.607015        2.000000        0.00011091        0.00026388        0.00100671        0.00037836
     138         -0.606961        2.000000        0.00002450        0.00006281        0.00023856        0.00007669
     139         -0.606668        2.000000        0.00008605        0.00020432        0.00080052        0.00032996
     140         -0.606217        2.000000        0.00007691        0.00018966        0.00080866        0.00030864
     141         -0.605760        2.000000        0.00002858        0.00007770        0.00038878        0.00013183
     142         -0.605530        2.000000        0.00002032        0.00005608        0.00021395        0.00006015
     143         -0.604726        2.000000        0.00004845        0.00012005        0.00047647        0.00020394
     144         -0.604251        2.000000        0.00000731        0.00002480        0.00009311        0.00003071
     145         -0.604012        2.000000        0.00001227        0.00004370        0.00016708        0.00005565
     146         -0.603621        2.000000        0.00002676        0.00010871        0.00049391        0.00015605
     147         -0.602798        2.000000        0.00000407        0.00002374        0.00017188        0.00003357
     148         -0.602043        2.000000        0.00002011        0.00002472        0.00019875        0.00004290
     149         -0.601806        2.000000        0.00001203        0.00010122        0.00029579        0.00007610
     150         -0.601164        2.000000        0.00000167        0.00000867        0.00003590        0.00001073
     151         -0.600494        2.000000        0.00001395        0.00004151        0.00019614        0.00004770
     152         -0.600235        2.000000        0.00001590        0.00008656        0.00034657        0.00010399
     153         -0.599390        2.000000        0.00000789        0.00002286        0.00009010        0.00002953
     154         -0.598787        2.000000        0.00000098        0.00000574        0.00003099        0.00000753
     155         -0.598286        2.000000        0.00000515        0.00000984        0.00009999        0.00002531
     156         -0.596934        2.000000        0.00000895        0.00003688        0.00010601        0.00004635
     157         -0.596320        2.000000        0.00000334        0.00001191        0.00005653        0.00002310
     158         -0.595753        2.000000        0.00128297        0.00250468        0.00634568        0.00208293
     159         -0.594630        2.000000        0.00000169        0.00000441        0.00001421        0.00000409
     160         -0.593777        2.000000        0.00003354        0.00010560        0.00040075        0.00011644
     161         -0.592082        2.000000        0.00000011        0.00000011        0.00000141        0.00000022
     162         -0.589122        2.000000        0.00000133        0.00000864        0.00006550        0.00004441
     163         -0.586735        2.000000        0.00000044        0.00000641        0.00002956        0.00000602
     164         -0.585766        2.000000        0.00000039        0.00000153        0.00000605        0.00000193
     165         -0.585182        2.000000        0.00000032        0.00000181        0.00000718        0.00000210
     166         -0.573903        2.000000        0.00000115        0.00000599        0.00002625        0.00000659
     167         -0.232302        2.000000        0.00000009        0.00000005        0.00000015        0.00000003
     168         -0.228380        2.000000        0.00000796        0.00000928        0.00007978        0.00003026
     169         -0.226510        2.000000        0.00015521        0.00024227        0.00125895        0.00037993
     170         -0.223708        2.000000        0.00000116        0.00000204        0.00000478        0.00000153
     171         -0.220593        2.000000        0.00387952        0.00267905        0.00496251        0.00070224
     172         -0.220130        2.000000        0.00007697        0.00008913        0.00020056        0.00005557
     173         -0.218641        2.000000        0.00000034        0.00000078        0.00000524        0.00000134
     174         -0.218322        2.000000        0.00004929        0.00003503        0.00012429        0.00001894
     175         -0.217040        2.000000        0.00001805        0.00002085        0.00004971        0.00000604
     176         -0.215954        2.000000        0.00001601        0.00001004        0.00002271        0.00000441
     177         -0.215808        2.000000        0.00006258        0.00006479        0.00013757        0.00002001
     178         -0.215345        2.000000        0.00015835        0.00009801        0.00021218        0.00004258
     179         -0.212987        2.000000        0.00000070        0.00000112        0.00000403        0.00000089
     180         -0.212273        2.000000        0.00004429        0.00004734        0.00017019        0.00002790
     181         -0.212168        2.000000        0.00061759        0.00020342        0.00061693        0.00011251
     182         -0.211357        2.000000        0.00278244        0.00149358        0.00476899        0.00088844
     183         -0.210843        2.000000        0.00032384        0.00026191        0.00062459        0.00013492
     184         -0.210303        2.000000        0.00170114        0.00153743        0.00553907        0.00105337
     185         -0.209997        2.000000        0.00039866        0.00054886        0.00237179        0.00038215
     186         -0.209803        2.000000        0.00001038        0.00000995        0.00003359        0.00000744
     187         -0.209469        2.000000        0.00003746        0.00003585        0.00012613        0.00002446
     188         -0.209379        2.000000        0.00072011        0.00025813        0.00051002        0.00010106
     189         -0.208401        2.000000        0.00047058        0.00021321        0.00048837        0.00006158
     190         -0.208067        2.000000        0.00230977        0.00217093        0.00499287        0.00077025
     191         -0.207628        2.000000        0.00003272        0.00003771        0.00011067        0.00001453
     192         -0.207419        2.000000        0.00040972        0.00015672        0.00067941        0.00011653
     193         -0.206511        2.000000        0.00000494        0.00000885        0.00002109        0.00000634
     194         -0.206338        2.000000        0.00004732        0.00003884        0.00012568        0.00003467
     195         -0.205963        2.000000        0.00160395        0.00085191        0.00322452        0.00069245
     196         -0.205597        2.000000        0.00001085        0.00002273        0.00016180        0.00004253
     197         -0.205313        2.000000        0.00007299        0.00007127        0.00033941        0.00007404
     198         -0.204841        2.000000        0.00006532        0.00010816        0.00052463        0.00008105
     199         -0.203616        2.000000        0.00018314        0.00011550        0.00026622        0.00005885
     200         -0.203451        2.000000        0.00294525        0.00150112        0.00349487        0.00061029
     201         -0.203030        2.000000        0.00052297        0.00015932        0.00051974        0.00006320
     202         -0.202913        2.000000        0.00085886        0.00103557        0.00292284        0.00049075
     203         -0.202644        2.000000        0.00090291        0.00066153        0.00182305        0.00036804
     204         -0.202503        2.000000        0.00157532        0.00199542        0.00762104        0.00130931
     205         -0.201994        2.000000        0.00023857        0.00047263        0.00166275        0.00024499
     206         -0.199814        2.000000        0.00127302        0.00070411        0.00049954        0.00004498
     207         -0.199636        2.000000        0.00049714        0.00075993        0.00404041        0.00096364
     208         -0.198721        2.000000        0.00074374        0.00063463        0.00216828        0.00049802
     209         -0.198436        2.000000        0.00011955        0.00015867        0.00133755        0.00020843
     210         -0.198253        2.000000        0.00014484        0.00020116        0.00107267        0.00011306
     211         -0.197512        2.000000        0.00009098        0.00016685        0.00091980        0.00021114
     212         -0.197220        2.000000        0.00037870        0.00020457        0.00114566        0.00027614
     213         -0.196993        2.000000        0.00011929        0.00025579        0.00220311        0.00052833
     214         -0.196926        2.000000        0.00019368        0.00020172        0.00171225        0.00036867
     215         -0.196592        2.000000        0.00061248        0.00087716        0.00298253        0.00066105
     216         -0.195971        2.000000        0.00024548        0.00010476        0.00042671        0.00008898
     217         -0.195555        2.000000        0.00007678        0.00013666        0.00072134        0.00012952
     218         -0.195413        2.000000        0.00047552        0.00046173        0.00138011        0.00031268
     219         -0.195234        2.000000        0.00028453        0.00025992        0.00043713        0.00010173
     220         -0.194013        2.000000        0.00045158        0.00053278        0.00170215        0.00028580
     221         -0.193891        2.000000        0.00023220        0.00034963        0.00110428        0.00018378
     222         -0.193483        2.000000        0.00039809        0.00017994        0.00075816        0.00019610
     223         -0.192982        2.000000        0.00041362        0.00021474        0.00051477        0.00010180
     224         -0.192738        2.000000        0.00053766        0.00042345        0.00104841        0.00019973
     225         -0.192586        2.000000        0.00025961        0.00030580        0.00091727        0.00016790
     226         -0.192138        2.000000        0.00282100        0.00126526        0.00220522        0.00051622
     227         -0.191972        2.000000        0.00085899        0.00052243        0.00134556        0.00026253
     228         -0.191590        2.000000        0.00040707        0.00021932        0.00092616        0.00021401
     229         -0.191457        2.000000        0.00009840        0.00007007        0.00026974        0.00005627
     230         -0.191076        2.000000        0.00064393        0.00033152        0.00066810        0.00015123
     231         -0.190560        2.000000        0.00024141        0.00048237        0.00143041        0.00044414
     232         -0.190385        2.000000        0.00011753        0.00031571        0.00103064        0.00016658
     233         -0.190304        2.000000        0.00014130        0.00016956        0.00059906        0.00012656
     234         -0.190023        2.000000        0.00094570        0.00061479        0.00159127        0.00026777
     235         -0.189651        2.000000        0.00195775        0.00147665        0.00318218        0.00072325
     236         -0.189547        2.000000        0.00051274        0.00045850        0.00163590        0.00033561
     237         -0.189184        2.000000        0.00093673        0.00076257        0.00258262        0.00047108
     238         -0.188852        2.000000        0.00143532        0.00058994        0.00250638        0.00031799
     239         -0.188649        2.000000        0.00076782        0.00052660        0.00202982        0.00037189
     240         -0.188433        2.000000        0.00059025        0.00028295        0.00076963        0.00024541
     241         -0.188236        2.000000        0.00149324        0.00082173        0.00195604        0.00042822
     242         -0.187848        2.000000        0.00051319        0.00068282        0.00225619        0.00030674
     243         -0.187625        2.000000        0.00024324        0.00013116        0.00030435        0.00005471
     244         -0.187413        2.000000        0.00029735        0.00039674        0.00147016        0.00023940
     245         -0.187322        2.000000        0.00159218        0.00076144        0.00191136        0.00038851
     246         -0.187050        2.000000        0.00064986        0.00046557        0.00114901        0.00023469
     247         -0.186387        2.000000        0.00067657        0.00072245        0.00200413        0.00050221
     248         -0.186179        2.000000        0.00009608        0.00022715        0.00091629        0.00012727
     249         -0.185204        2.000000        0.00105228        0.00047010        0.00110954        0.00021485
     250         -0.185131        2.000000        0.00033940        0.00030582        0.00106206        0.00015397
     251         -0.185068        2.000000        0.00074763        0.00074664        0.00245475        0.00035966
     252         -0.184904        2.000000        0.00215510        0.00148425        0.00355464        0.00069257
     253         -0.184464        2.000000        0.00061110        0.00040628        0.00099783        0.00017455
     254         -0.184113        2.000000        0.00042969        0.00026147        0.00060751        0.00011625
     255         -0.183824        2.000000        0.00084690        0.00054897        0.00116794        0.00021109
     256         -0.183682        2.000000        0.00100667        0.00039631        0.00070213        0.00014948
     257         -0.183323        2.000000        0.00030353        0.00021714        0.00089590        0.00013806
     258         -0.183171        2.000000        0.00032752        0.00058591        0.00198256        0.00034221
     259         -0.182926        2.000000        0.00040572        0.00040589        0.00109096        0.00018865