# Projected DOS for atomic kind Au2 at iteration step i = 0, E(Fermi) =     0.128746 a.u.
#     MO Eigenvalue [a.u.]      Occupation                 s                 p                 d                 f
       1         -0.672430        2.000000        0.00000000        0.00000000        0.00000000        0.00000000
       2         -0.669483        2.000000        0.00003566        0.00014382        0.00063887        0.00014869
       3         -0.668614        2.000000        0.00000001        0.00000004        0.00000016        0.00000004
       4         -0.667955        2.000000        0.00000000        0.00000001        0.00000006        0.00000001
       5         -0.667056        2.000000        0.00000000        0.00000001        0.00000004        0.00000001
       6         -0.666292        2.000000        0.00000000        0.00000000        0.00000000        0.00000000
       7         -0.665197        2.000000        0.00005166        0.00017448        0.00062801        0.00012397
       8         -0.664753        2.000000        0.00000001        0.00000002        0.00000008        0.00000002
       9         -0.663687        2.000000        0.00039946        0.00135892        0.00484543        0.00101662
      10         -0.663175        2.000000        0.00001785        0.00006458        0.00022721        0.00004743
      11         -0.661580        2.000000        0.00000003        0.00000011        0.00000037        0.00000007
      12         -0.660455        2.000000        0.00000001        0.00000003        0.00000010        0.00000002
      13         -0.659162        2.000000        0.00000008        0.00000027        0.00000092        0.00000017
      14         -0.657063        2.000000        0.00000019        0.00000067        0.00000222        0.00000039
      15         -0.656320        2.000000        0.00000018        0.00000063        0.00000225        0.00000043
      16         -0.655890        2.000000        0.00066179        0.00224318        0.00727100        0.00123824
      17         -0.655624        2.000000        0.00000250        0.00000850        0.00002773        0.00000478
      18         -0.655323        2.000000        0.00001194        0.00004470        0.00017251        0.00003543
      19         -0.655233        2.000000        0.00000099        0.00000340        0.00001161        0.00000213
      20         -0.654916        2.000000        0.00009066        0.00029689        0.00096779        0.00019131
      21         -0.653870        2.000000        0.00000807        0.00002866        0.00010075        0.00001907
      22         -0.653373        2.000000        0.00005865        0.00020412        0.00072178        0.00014382
      23         -0.652901        2.000000        0.00016470        0.00054593        0.00186261        0.00037214
      24         -0.651720        2.000000        0.00000864        0.00002717        0.00008754        0.00001803
      25         -0.651508        2.000000        0.00001552        0.00004803        0.00015268        0.00003145
      26         -0.650655        2.000000        0.00000435        0.00001303        0.00004071        0.00000845
      27         -0.649699        2.000000        0.00005994        0.00017107        0.00052532        0.00011402
      28         -0.649408        2.000000        0.00002005        0.00005592        0.00016813        0.00003668
      29         -0.648811        2.000000        0.00009330        0.00026402        0.00082362        0.00018707
      30         -0.648716        2.000000        0.00029200        0.00083020        0.00258814        0.00058212
      31         -0.647328        2.000000        0.00000866        0.00003124        0.00011401        0.00002548
      32         -0.646555        2.000000        0.00001875        0.00006710        0.00025707        0.00005265
      33         -0.646412        2.000000        0.00020750        0.00067372        0.00247337        0.00050966
      34         -0.645775        2.000000        0.00004688        0.00017296        0.00063304        0.00013142
      35         -0.644835        2.000000        0.00007396        0.00025771        0.00093249        0.00020765
      36         -0.644778        2.000000        0.00015305        0.00054625        0.00205356        0.00045521
      37         -0.644567        2.000000        0.00007842        0.00024385        0.00088365        0.00019333
      38         -0.644393        2.000000        0.00005869        0.00017584        0.00060292        0.00013681
      39         -0.644271        2.000000        0.00003342        0.00009838        0.00033207        0.00007668
      40         -0.643299        2.000000        0.00003016        0.00009285        0.00034400        0.00008201
      41         -0.643003        2.000000        0.00007937        0.00024537        0.00089036        0.00019615
      42         -0.642780        2.000000        0.00000995        0.00003525        0.00013715        0.00003101
      43         -0.642567        2.000000        0.00006777        0.00024556        0.00094542        0.00021674
      44         -0.642113        2.000000        0.00001173        0.00003696        0.00014115        0.00003151
      45         -0.641741        2.000000        0.00008951        0.00027258        0.00091405        0.00019399
      46         -0.641499        2.000000        0.00004898        0.00016202        0.00061166        0.00013046
      47         -0.640713        2.000000        0.00001472        0.00004928        0.00019449        0.00004410
      48         -0.640529        2.000000        0.00000150        0.00000506        0.00001967        0.00000430
      49         -0.640030        2.000000        0.00002079        0.00007143        0.00024598        0.00004997
      50         -0.639867        2.000000        0.00002956        0.00009709        0.00036765        0.00008775
      51         -0.639444        2.000000        0.00003704        0.00011630        0.00043019        0.00009876
      52         -0.639210        2.000000        0.00008918        0.00028776        0.00106729        0.00024057
      53         -0.639146        2.000000        0.00005440        0.00018268        0.00070745        0.00015864
      54         -0.638732        2.000000        0.00009104        0.00031114        0.00116586        0.00025814
      55         -0.638289        2.000000        0.00003543        0.00012698        0.00050490        0.00011625
      56         -0.637321        2.000000        0.00005233        0.00022452        0.00103820        0.00025538
      57         -0.637203        2.000000        0.00006774        0.00019379        0.00068593        0.00017071
      58         -0.637066        2.000000        0.00023130        0.00074783        0.00280987        0.00065625
      59         -0.636675        2.000000        0.00009237        0.00032327        0.00125958        0.00027175
      60         -0.635935        2.000000        0.00013960        0.00054549        0.00238641        0.00061485
      61         -0.635227        2.000000        0.00022479        0.00067745        0.00245885        0.00062795
      62         -0.635107        2.000000        0.00004996        0.00021988        0.00106755        0.00028926
      63         -0.634833        2.000000        0.00001830        0.00005854        0.00022979        0.00006088
      64         -0.634470        2.000000        0.00010408        0.00038228        0.00161484        0.00041416
      65         -0.634367        2.000000        0.00016940        0.00063205        0.00252890        0.00059267
      66         -0.634038        2.000000        0.00000936        0.00003996        0.00018324        0.00004678
      67         -0.633843        2.000000        0.00004980        0.00017518        0.00066790        0.00015476
      68         -0.633384        2.000000        0.00025429        0.00077795        0.00287689        0.00074150
      69         -0.633044        2.000000        0.00012954        0.00043834        0.00175353        0.00045941
      70         -0.632857        2.000000        0.00009968        0.00032119        0.00127056        0.00033922
      71         -0.632275        2.000000        0.00000601        0.00002119        0.00008554        0.00002208
      72         -0.632105        2.000000        0.00000582        0.00001980        0.00007684        0.00001891
      73         -0.631869        2.000000        0.00001559        0.00006323        0.00029261        0.00007941
      74         -0.630858        2.000000        0.00000482        0.00002243        0.00011401        0.00002983
      75         -0.630633        2.000000        0.00004185        0.00018251        0.00086691        0.00022549
      76         -0.630425        2.000000        0.00011736        0.00052582        0.00240924        0.00054564
      77         -0.629951        2.000000        0.00001461        0.00004837        0.00019903        0.00005465
      78         -0.629454        2.000000        0.00000053        0.00000231        0.00001029        0.00000261
      79         -0.628653        2.000000        0.00012672        0.00050958        0.00231244        0.00061090
      80         -0.628576        2.000000        0.00000376        0.00001420        0.00006336        0.00001620
      81         -0.628358        2.000000        0.00000592        0.00002150        0.00008654        0.00002196
      82         -0.628217        2.000000        0.00005985        0.00023997        0.00107485        0.00028150
      83         -0.627320        2.000000        0.00000978        0.00003404        0.00014311        0.00003845
      84         -0.626841        2.000000        0.00027736        0.00097122        0.00405598        0.00107940
      85         -0.626336        2.000000        0.00004668        0.00013956        0.00050664        0.00012340
      86         -0.626147        2.000000        0.00012522        0.00039336        0.00156765        0.00041156
      87         -0.625987        2.000000        0.00015290        0.00050691        0.00185287        0.00040140
      88         -0.625774        2.000000        0.00009641        0.00028296        0.00099185        0.00024309
      89         -0.625361        2.000000        0.00009115        0.00025365        0.00084842        0.00020370
      90         -0.625165        2.000000        0.00003790        0.00013203        0.00056312        0.00015763
      91         -0.624866        2.000000        0.00002271        0.00007388        0.00027158        0.00006158
      92         -0.624565        2.000000        0.00015292        0.00046870        0.00173064        0.00042039
      93         -0.624237        2.000000        0.00033029        0.00095975        0.00344138        0.00084628
      94         -0.623721        2.000000        0.00006240        0.00022878        0.00098725        0.00025913
      95         -0.623594        2.000000        0.00009309        0.00032192        0.00143703        0.00042602
      96         -0.623257        2.000000        0.00000590        0.00002963        0.00015641        0.00004454
      97         -0.622851        2.000000        0.00008991        0.00029290        0.00105670        0.00023751
      98         -0.622232        2.000000        0.00001717        0.00006254        0.00026207        0.00006702
      99         -0.622173        2.000000        0.00000871        0.00002790        0.00011425        0.00003345
     100         -0.622079        2.000000        0.00005350        0.00017114        0.00067142        0.00018894
     101         -0.621451        2.000000        0.00001707        0.00005046        0.00017920        0.00004640
     102         -0.621089        2.000000        0.00001983        0.00005793        0.00021412        0.00006245
     103         -0.620735        2.000000        0.00001050        0.00002948        0.00009718        0.00002667
     104         -0.620425        2.000000        0.00002243        0.00006184        0.00019515        0.00005141
     105         -0.619781        2.000000        0.00000826        0.00002883        0.00011690        0.00003194
     106         -0.619575        2.000000        0.00002981        0.00007879        0.00024295        0.00006444
     107         -0.618915        2.000000        0.00009818        0.00032363        0.00121092        0.00030847
     108         -0.618512        2.000000        0.00006166        0.00019117        0.00071777        0.00019900
     109         -0.617954        2.000000        0.00002827        0.00008455        0.00028318        0.00007327
     110         -0.617665        2.000000        0.00004035        0.00011698        0.00040229        0.00010385
     111         -0.617194        2.000000        0.00001028        0.00002917        0.00009990        0.00002599
     112         -0.616932        2.000000        0.00030240        0.00082246        0.00267247        0.00065628
     113         -0.616563        2.000000        0.00006213        0.00016963        0.00054850        0.00013563
     114         -0.616066        2.000000        0.00022159        0.00061709        0.00204382        0.00053792
     115         -0.615647        2.000000        0.00001316        0.00003629        0.00012116        0.00003474
     116         -0.615401        2.000000        0.00001509        0.00005414        0.00023046        0.00006009
     117         -0.614602        2.000000        0.00000564        0.00001983        0.00008582        0.00002306
     118         -0.614459        2.000000        0.00003122        0.00009224        0.00034486        0.00009402
     119         -0.614065        2.000000        0.00003474        0.00009768        0.00033500        0.00008958
     120         -0.613776        2.000000        0.00002954        0.00009664        0.00039822        0.00010719
     121         -0.613333        2.000000        0.00005334        0.00018313        0.00076594        0.00020089
     122         -0.613233        2.000000        0.00004074        0.00015738        0.00072461        0.00019359
     123         -0.612983        2.000000        0.00009035        0.00032297        0.00138949        0.00036603
     124         -0.612581        2.000000        0.00006906        0.00025435        0.00115987        0.00031562
     125         -0.612469        2.000000        0.00007030        0.00022424        0.00088419        0.00023525
     126         -0.611596        2.000000        0.00007965        0.00022655        0.00085430        0.00027225
     127         -0.611199        2.000000        0.00023798        0.00084391        0.00366006        0.00106588
     128         -0.611011        2.000000        0.00008961        0.00024118        0.00082405        0.00023061
     129         -0.610802        2.000000        0.00001947        0.00005843        0.00023078        0.00007140
     130         -0.610602        2.000000        0.00008405        0.00022014        0.00069462        0.00016995
     131         -0.610315        2.000000        0.00016371        0.00047122        0.00171877        0.00049441
     132         -0.608920        2.000000        0.00011643        0.00030349        0.00100507        0.00029443
     133         -0.608714        2.000000        0.00000058        0.00000193        0.00000791        0.00000236
     134         -0.608689        2.000000        0.00002224        0.00006042        0.00020998        0.00006178
     135         -0.607712        2.000000        0.00000489        0.00001571        0.00006340        0.00001914
     136         -0.607241        2.000000        0.00001191        0.00003941        0.00015723        0.00004920
     137         -0.607015        2.000000        0.00003628        0.00011107        0.00043153        0.00013427
     138         -0.606961        2.000000        0.00000663        0.00002286        0.00009530        0.00002945
     139         -0.606668        2.000000        0.00006845        0.00019506        0.00071706        0.00022134
     140         -0.606217        2.000000        0.00004382        0.00014214        0.00058464        0.00017894
     141         -0.605760        2.000000        0.00005140        0.00017713        0.00075450        0.00023962
     142         -0.605530        2.000000        0.00035637        0.00117847        0.00488190        0.00159101
     143         -0.604726        2.000000        0.00005964        0.00017465        0.00065174        0.00019975
     144         -0.604251        2.000000        0.00001188        0.00003939        0.00016572        0.00005029
     145         -0.604012        2.000000        0.00001912        0.00005923        0.00023493        0.00007045
     146         -0.603621        2.000000        0.00016988        0.00056522        0.00232720        0.00069477
     147         -0.602798        2.000000        0.00008339        0.00037026        0.00180829        0.00052817
     148         -0.602043        2.000000        0.00005139        0.00015341        0.00056305        0.00015846
     149         -0.601806        2.000000        0.00000447        0.00001512        0.00006136        0.00001684
     150         -0.601164        2.000000        0.00000403        0.00001905        0.00009603        0.00002875
     151         -0.600494        2.000000        0.00001582        0.00007138        0.00035404        0.00010765
     152         -0.600235        2.000000        0.00000177        0.00000612        0.00002712        0.00000822
     153         -0.599390        2.000000        0.00000445        0.00001682        0.00007758        0.00002416
     154         -0.598787        2.000000        0.00000004        0.00000012        0.00000046        0.00000014
     155         -0.598286        2.000000        0.00000035        0.00000107        0.00000393        0.00000105
     156         -0.596934        2.000000        0.00000187        0.00000541        0.00002182        0.00000709
     157         -0.596320        2.000000        0.00000082        0.00000250        0.00001092        0.00000355
     158         -0.595753        2.000000        0.00016519        0.00053677        0.00227092        0.00067910
     159         -0.594630        2.000000        0.00000000        0.00000000        0.00000001        0.00000000
     160         -0.593777        2.000000        0.00000005        0.00000013        0.00000042        0.00000013
     161         -0.592082        2.000000        0.00000005        0.00000019        0.00000104        0.00000034
     162         -0.589122        2.000000        0.00000027        0.00000068        0.00000252        0.00000090
     163         -0.586735        2.000000        0.00000000        0.00000000        0.00000000        0.00000000
     164         -0.585766        2.000000        0.00000001        0.00000002        0.00000007        0.00000002
     165         -0.585182        2.000000        0.00000018        0.00000048        0.00000175        0.00000057
     166         -0.573903        2.000000        0.00000001        0.00000003        0.00000010        0.00000002
     167         -0.232302        2.000000        0.00000002        0.00000001        0.00000001        0.00000000
     168         -0.228380        2.000000        0.00375762        0.00268655        0.00768408        0.00137963
     169         -0.226510        2.000000        0.00018245        0.00011645        0.00028353        0.00004023
     170         -0.223708        2.000000        0.00000003        0.00000001        0.00000000        0.00000000
     171         -0.220593        2.000000        0.00000037        0.00000011        0.00000008        0.00000000
     172         -0.220130        2.000000        0.00000438        0.00000071        0.00000018        0.00000001
     173         -0.218641        2.000000        0.00000735        0.00000643        0.00002600        0.00000651
     174         -0.218322        2.000000        0.00001151        0.00000163        0.00000036        0.00000002
     175         -0.217040        2.000000        0.00020852        0.00027811        0.00128681        0.00029445
     176         -0.215954        2.000000        0.00000408        0.00000067        0.00000083        0.00000013
     177         -0.215808        2.000000        0.00000651        0.00000443        0.00001136        0.00000205
     178         -0.215345        2.000000        0.00000049        0.00000014        0.00000024        0.00000004
     179         -0.212987        2.000000        0.00793238        0.00407319        0.01215344        0.00185028
     180         -0.212273        2.000000        0.00002129        0.00000241        0.00000027        0.00000002
     181         -0.212168        2.000000        0.00001438        0.00000224        0.00000086        0.00000007
     182         -0.211357        2.000000        0.00003617        0.00000428        0.00000071        0.00000006
     183         -0.210843        2.000000        0.00009691        0.00001168        0.00000338        0.00000047
     184         -0.210303        2.000000        0.00008483        0.00000851        0.00000185        0.00000019
     185         -0.209997        2.000000        0.00000882        0.00000672        0.00002455        0.00000504
     186         -0.209803        2.000000        0.00001769        0.00001434        0.00007281        0.00001538
     187         -0.209469        2.000000        0.00018857        0.00013108        0.00049338        0.00010253
     188         -0.209379        2.000000        0.00019218        0.00002016        0.00000433        0.00000041
     189         -0.208401        2.000000        0.00054495        0.00005247        0.00000605        0.00000036
     190         -0.208067        2.000000        0.00031985        0.00003268        0.00000565        0.00000027
     191         -0.207628        2.000000        0.00051932        0.00004908        0.00000529        0.00000030
     192         -0.207419        2.000000        0.00053469        0.00004792        0.00000441        0.00000037
     193         -0.206511        2.000000        0.00096475        0.00110516        0.00604292        0.00142173
     194         -0.206338        2.000000        0.00037746        0.00041624        0.00197219        0.00044135
     195         -0.205963        2.000000        0.00002385        0.00000285        0.00000150        0.00000011
     196         -0.205597        2.000000        0.00007137        0.00003408        0.00011660        0.00002365
     197         -0.205313        2.000000        0.00007384        0.00005273        0.00017644        0.00002778
     198         -0.204841        2.000000        0.00005991        0.00000821        0.00002046        0.00000337
     199         -0.203616        2.000000        0.00055805        0.00041078        0.00120140        0.00020868
     200         -0.203451        2.000000        0.00032648        0.00002750        0.00000854        0.00000104
     201         -0.203030        2.000000        0.00001164        0.00000429        0.00001242        0.00000209
     202         -0.202913        2.000000        0.00015190        0.00010435        0.00031795        0.00005594
     203         -0.202644        2.000000        0.00185461        0.00033589        0.00121216        0.00023385
     204         -0.202503        2.000000        0.00006181        0.00005628        0.00021315        0.00004220
     205         -0.201994        2.000000        0.00009062        0.00004139        0.00012895        0.00002734
     206         -0.199814        2.000000        0.27296820        0.01671734        0.00218618        0.00010600
     207         -0.199636        2.000000        0.00002152        0.00000173        0.00000098        0.00000010
     208         -0.198721        2.000000        0.00750478        0.00043162        0.00007003        0.00000319
     209         -0.198436        2.000000        0.00015547        0.00001115        0.00000684        0.00000079
     210         -0.198253        2.000000        0.00012617        0.00000977        0.00000458        0.00000054
     211         -0.197512        2.000000        0.00007540        0.00001618        0.00002937        0.00000364
     212         -0.197220        2.000000        0.00098707        0.00051053        0.00129362        0.00018775
     213         -0.196993        2.000000        0.00095873        0.00048446        0.00140082        0.00018474
     214         -0.196926        2.000000        0.00384992        0.00047471        0.00058692        0.00006881
     215         -0.196592        2.000000        0.00146153        0.00063005        0.00103502        0.00016106
     216         -0.195971        2.000000        0.00035689        0.00003355        0.00009840        0.00001860
     217         -0.195555        2.000000        0.00090206        0.00072383        0.00248745        0.00051198
     218         -0.195413        2.000000        0.00100723        0.00012187        0.00016765        0.00002420
     219         -0.195234        2.000000        0.00138357        0.00009718        0.00004558        0.00000573
     220         -0.194013        2.000000        0.00295733        0.00174318        0.00423498        0.00060930
     221         -0.193891        2.000000        0.00219226        0.00129256        0.00289997        0.00043982
     222         -0.193483        2.000000        0.00012518        0.00008343        0.00018071        0.00002705
     223         -0.192982        2.000000        0.00042062        0.00026465        0.00086110        0.00015245
     224         -0.192738        2.000000        0.00037019        0.00014707        0.00042906        0.00008540
     225         -0.192586        2.000000        0.00083426        0.00060553        0.00235610        0.00049676
     226         -0.192138        2.000000        0.00059704        0.00024091        0.00100546        0.00019156
     227         -0.191972        2.000000        0.00139151        0.00116162        0.00517179        0.00098569
     228         -0.191590        2.000000        0.00043201        0.00031837        0.00115641        0.00022068
     229         -0.191457        2.000000        0.00022783        0.00019299        0.00087504        0.00019277
     230         -0.191076        2.000000        0.00028266        0.00012075        0.00041885        0.00007866
     231         -0.190560        2.000000        0.00011264        0.00006158        0.00022874        0.00004685
     232         -0.190385        2.000000        0.00066966        0.00041605        0.00180784        0.00034728
     233         -0.190304        2.000000        0.00052148        0.00048472        0.00204906        0.00041619
     234         -0.190023        2.000000        0.00070249        0.00058434        0.00259585        0.00053880
     235         -0.189651        2.000000        0.00025929        0.00020759        0.00094864        0.00019943
     236         -0.189547        2.000000        0.00017853        0.00015228        0.00054490        0.00009972
     237         -0.189184        2.000000        0.00010610        0.00004567        0.00020864        0.00004355
     238         -0.188852        2.000000        0.00017106        0.00004891        0.00015256        0.00003113
     239         -0.188649        2.000000        0.00097873        0.00064560        0.00240779        0.00039313
     240         -0.188433        2.000000        0.00040439        0.00016692        0.00063545        0.00011303
     241         -0.188236        2.000000        0.00029042        0.00017592        0.00050762        0.00008950
     242         -0.187848        2.000000        0.00008232        0.00003841        0.00012521        0.00002649
     243         -0.187625        2.000000        0.00340218        0.00140298        0.00499483        0.00101802
     244         -0.187413        2.000000        0.00029852        0.00020334        0.00061461        0.00012250
     245         -0.187322        2.000000        0.00099951        0.00048796        0.00176972        0.00035698
     246         -0.187050        2.000000        0.00017752        0.00005762        0.00016530        0.00003141
     247         -0.186387        2.000000        0.00042100        0.00014257        0.00029252        0.00004670
     248         -0.186179        2.000000        0.00015909        0.00005362        0.00011641        0.00001992
     249         -0.185204        2.000000        0.00114323        0.00019077        0.00011560        0.00000902
     250         -0.185131        2.000000        0.00568982        0.00058083        0.00033064        0.00000744
     251         -0.185068        2.000000        0.00044266        0.00011930        0.00021223        0.00003548
     252         -0.184904        2.000000        0.00116964        0.00030966        0.00089055        0.00015698
     253         -0.184464        2.000000        0.00217176        0.00016467        0.00013504        0.00000895
     254         -0.184113        2.000000        0.00087845        0.00036316        0.00078153        0.00011136
     255         -0.183824        2.000000        0.00109076        0.00041800        0.00103304        0.00016119
     256         -0.183682        2.000000        0.00571381        0.00173495        0.00309396        0.00045232
     257         -0.183323        2.000000        0.00042106        0.00006889        0.00013161        0.00002185
     258         -0.183171        2.000000        0.00381404        0.00072880        0.00102220        0.00016479
     259         -0.182926        2.000000        0.00116818        0.00015846        0.00020663        0.00002952