# Projected DOS for atomic kind H at iteration step i = 0, E(Fermi) =     0.128746 a.u.
#     MO Eigenvalue [a.u.]      Occupation                 s                 p
       1         -0.672430        2.000000        0.31996134        0.06121851
       2         -0.669483        2.000000        0.31835576        0.06830008
       3         -0.668614        2.000000        0.32620774        0.05866919
       4         -0.667955        2.000000        0.31653885        0.06157853
       5         -0.667056        2.000000        0.32817451        0.05975061
       6         -0.666292        2.000000        0.31092572        0.06319637
       7         -0.665197        2.000000        0.29831475        0.06106098
       8         -0.664753        2.000000        0.31399300        0.06143316
       9         -0.663687        2.000000        0.31759902        0.06109363
      10         -0.663175        2.000000        0.31763528        0.06284129
      11         -0.661580        2.000000        0.31696697        0.05536433
      12         -0.660455        2.000000        0.31748870        0.05956349
      13         -0.659162        2.000000        0.31984134        0.05675101
      14         -0.657063        2.000000        0.31215270        0.06194519
      15         -0.656320        2.000000        0.31335689        0.06103288
      16         -0.655890        2.000000        0.31379528        0.05980386
      17         -0.655624        2.000000        0.30141164        0.05969137
      18         -0.655323        2.000000        0.31385952        0.05865779
      19         -0.655233        2.000000        0.29281605        0.06528961
      20         -0.654916        2.000000        0.31169239        0.06026450
      21         -0.653870        2.000000        0.31292752        0.06173353
      22         -0.653373        2.000000        0.31654650        0.06039243
      23         -0.652901        2.000000        0.30243636        0.06615813
      24         -0.651720        2.000000        0.30874037        0.06165176
      25         -0.651508        2.000000        0.31004289        0.06070069
      26         -0.650655        2.000000        0.30180087        0.06523155
      27         -0.649699        2.000000        0.30360451        0.06130487
      28         -0.649408        2.000000        0.29382737        0.06192380
      29         -0.648811        2.000000        0.30640237        0.06046296
      30         -0.648716        2.000000        0.31234079        0.05915970
      31         -0.647328        2.000000        0.30635627        0.06033082
      32         -0.646555        2.000000        0.30391593        0.05925426
      33         -0.646412        2.000000        0.29940976        0.06041941
      34         -0.645775        2.000000        0.30325790        0.06061688
      35         -0.644835        2.000000        0.29319883        0.06275473
      36         -0.644778        2.000000        0.29964248        0.06241754
      37         -0.644567        2.000000        0.30711750        0.06607933
      38         -0.644393        2.000000        0.29976025        0.06774874
      39         -0.644271        2.000000        0.30166795        0.07143912
      40         -0.643299        2.000000        0.29123295        0.06534316
      41         -0.643003        2.000000        0.30030803        0.06417883
      42         -0.642780        2.000000        0.30547541        0.06462080
      43         -0.642567        2.000000        0.30206706        0.06048105
      44         -0.642113        2.000000        0.28684054        0.07005100
      45         -0.641741        2.000000        0.30724626        0.06062614
      46         -0.641499        2.000000        0.30303358        0.06283078
      47         -0.640713        2.000000        0.30170381        0.06055228
      48         -0.640529        2.000000        0.28673095        0.06605466
      49         -0.640030        2.000000        0.30371600        0.06077451
      50         -0.639867        2.000000        0.30120743        0.06082124
      51         -0.639444        2.000000        0.29064682        0.06613700
      52         -0.639210        2.000000        0.29592604        0.06417442
      53         -0.639146        2.000000        0.30649804        0.05863916
      54         -0.638732        2.000000        0.29490085        0.06242013
      55         -0.638289        2.000000        0.29139176        0.06502258
      56         -0.637321        2.000000        0.29635009        0.06402738
      57         -0.637203        2.000000        0.28560814        0.06661974
      58         -0.637066        2.000000        0.28614608        0.06677981
      59         -0.636675        2.000000        0.29302365        0.06300656
      60         -0.635935        2.000000        0.28613954        0.06603336
      61         -0.635227        2.000000        0.29053870        0.06453263
      62         -0.635107        2.000000        0.28205064        0.06893243
      63         -0.634833        2.000000        0.28992548        0.06772776
      64         -0.634470        2.000000        0.29017127        0.06616559
      65         -0.634367        2.000000        0.28745724        0.06560248
      66         -0.634038        2.000000        0.28363596        0.06633692
      67         -0.633843        2.000000        0.28462780        0.06660861
      68         -0.633384        2.000000        0.27953568        0.06706207
      69         -0.633044        2.000000        0.28046730        0.06616954
      70         -0.632857        2.000000        0.27761841        0.06628277
      71         -0.632275        2.000000        0.27866893        0.06841332
      72         -0.632105        2.000000        0.28790795        0.06610779
      73         -0.631869        2.000000        0.28238209        0.06794301
      74         -0.630858        2.000000        0.28301272        0.06571324
      75         -0.630633        2.000000        0.28457884        0.06551590
      76         -0.630425        2.000000        0.28645885        0.06854895
      77         -0.629951        2.000000        0.28155691        0.06519650
      78         -0.629454        2.000000        0.27885203        0.06674597
      79         -0.628653        2.000000        0.27504899        0.06897842
      80         -0.628576        2.000000        0.27980927        0.06770624
      81         -0.628358        2.000000        0.27293866        0.06999821
      82         -0.628217        2.000000        0.27401181        0.06924395
      83         -0.627320        2.000000        0.27801983        0.06890182
      84         -0.626841        2.000000        0.27551223        0.06880435
      85         -0.626336        2.000000        0.27674304        0.06882769
      86         -0.626147        2.000000        0.27702173        0.06973469
      87         -0.625987        2.000000        0.28891285        0.06546623
      88         -0.625774        2.000000        0.27524681        0.06889092
      89         -0.625361        2.000000        0.27249123        0.07075342
      90         -0.625165        2.000000        0.28221991        0.06717959
      91         -0.624866        2.000000        0.27379455        0.06925079
      92         -0.624565        2.000000        0.28387403        0.06595233
      93         -0.624237        2.000000        0.27713126        0.07002573
      94         -0.623721        2.000000        0.27496701        0.06925060
      95         -0.623594        2.000000        0.27438997        0.06912288
      96         -0.623257        2.000000        0.25472244        0.07505042
      97         -0.622851        2.000000        0.27708877        0.06877873
      98         -0.622232        2.000000        0.26370464        0.07316565
      99         -0.622173        2.000000        0.26008823        0.07439489
     100         -0.622079        2.000000        0.27427658        0.06869017
     101         -0.621451        2.000000        0.26650145        0.07331016
     102         -0.621089        2.000000        0.27010649        0.07110459
     103         -0.620735        2.000000        0.26988330        0.07018853
     104         -0.620425        2.000000        0.26855934        0.07153687
     105         -0.619781        2.000000        0.27297124        0.06932030
     106         -0.619575        2.000000        0.27438218        0.07151163
     107         -0.618915        2.000000        0.27593777        0.07040342
     108         -0.618512        2.000000        0.27836835        0.07085786
     109         -0.617954        2.000000        0.26366009        0.07198573
     110         -0.617665        2.000000        0.25910100        0.07471198
     111         -0.617194        2.000000        0.25245894        0.07362836
     112         -0.616932        2.000000        0.26294665        0.07093878
     113         -0.616563        2.000000        0.25769581        0.07274778
     114         -0.616066        2.000000        0.25809552        0.07398482
     115         -0.615647        2.000000        0.25953864        0.07353150
     116         -0.615401        2.000000        0.26645310        0.07095982
     117         -0.614602        2.000000        0.25669344        0.07414457
     118         -0.614459        2.000000        0.27509213        0.06855451
     119         -0.614065        2.000000        0.25988962        0.07293125
     120         -0.613776        2.000000        0.26772948        0.07077963
     121         -0.613333        2.000000        0.25665882        0.07226157
     122         -0.613233        2.000000        0.26034660        0.07254702
     123         -0.612983        2.000000        0.25457156        0.07320216
     124         -0.612581        2.000000        0.25503140        0.07266996
     125         -0.612469        2.000000        0.25879579        0.07366844
     126         -0.611596        2.000000        0.25883210        0.07133537
     127         -0.611199        2.000000        0.24374403        0.07811866
     128         -0.611011        2.000000        0.25969760        0.07291038
     129         -0.610802        2.000000        0.25915602        0.07297348
     130         -0.610602        2.000000        0.25618540        0.07349305
     131         -0.610315        2.000000        0.24786872        0.07735948
     132         -0.608920        2.000000        0.25320379        0.07532812
     133         -0.608714        2.000000        0.24864359        0.07592395
     134         -0.608689        2.000000        0.23868826        0.07884456
     135         -0.607712        2.000000        0.23867383        0.08004544
     136         -0.607241        2.000000        0.24874566        0.07199199
     137         -0.607015        2.000000        0.23949187        0.07823890
     138         -0.606961        2.000000        0.25064651        0.07178954
     139         -0.606668        2.000000        0.24041783        0.07911697
     140         -0.606217        2.000000        0.23645247        0.07987106
     141         -0.605760        2.000000        0.23413208        0.08126585
     142         -0.605530        2.000000        0.23766392        0.08022948
     143         -0.604726        2.000000        0.24423191        0.07844413
     144         -0.604251        2.000000        0.23902505        0.07779423
     145         -0.604012        2.000000        0.23733052        0.07997733
     146         -0.603621        2.000000        0.23975362        0.08052539
     147         -0.602798        2.000000        0.23403609        0.07851855
     148         -0.602043        2.000000        0.23870208        0.08038567
     149         -0.601806        2.000000        0.23358599        0.08152743
     150         -0.601164        2.000000        0.26344926        0.07349035
     151         -0.600494        2.000000        0.23417979        0.08248002
     152         -0.600235        2.000000        0.23822873        0.07947129
     153         -0.599390        2.000000        0.24186471        0.08046318
     154         -0.598787        2.000000        0.24779419        0.07402919
     155         -0.598286        2.000000        0.24434704        0.07873794
     156         -0.596934        2.000000        0.23295868        0.08204977
     157         -0.596320        2.000000        0.23725044        0.08076535
     158         -0.595753        2.000000        0.21563894        0.08349788
     159         -0.594630        2.000000        0.21919905        0.08275891
     160         -0.593777        2.000000        0.23069651        0.08033382
     161         -0.592082        2.000000        0.24012217        0.07807371
     162         -0.589122        2.000000        0.23085312        0.08375132
     163         -0.586735        2.000000        0.21613549        0.07783979
     164         -0.585766        2.000000        0.23288358        0.08211245
     165         -0.585182        2.000000        0.26969383        0.07288348
     166         -0.573903        2.000000        0.24427260        0.07606645
     167         -0.232302        2.000000        0.29194335        0.01509058
     168         -0.228380        2.000000        0.29052039        0.01903736
     169         -0.226510        2.000000        0.29352292        0.01809672
     170         -0.223708        2.000000        0.28717780        0.01555385
     171         -0.220593        2.000000        0.28876399        0.01657042
     172         -0.220130        2.000000        0.28581828        0.01889438
     173         -0.218641        2.000000        0.29782455        0.02085092
     174         -0.218322        2.000000        0.29108001        0.01761914
     175         -0.217040        2.000000        0.28458939        0.01791784
     176         -0.215954        2.000000        0.30406929        0.01541268
     177         -0.215808        2.000000        0.29474392        0.01756766
     178         -0.215345        2.000000        0.29302226        0.01786722
     179         -0.212987        2.000000        0.29157238        0.01528933
     180         -0.212273        2.000000        0.29185219        0.01703557
     181         -0.212168        2.000000        0.29271924        0.01735350
     182         -0.211357        2.000000        0.29084832        0.01705630
     183         -0.210843        2.000000        0.29805413        0.01626137
     184         -0.210303        2.000000        0.29849784        0.01680548
     185         -0.209997        2.000000        0.29501229        0.01654861
     186         -0.209803        2.000000        0.29040934        0.01914210
     187         -0.209469        2.000000        0.29350202        0.01745064
     188         -0.209379        2.000000        0.29169486        0.01768299
     189         -0.208401        2.000000        0.29782081        0.01577316
     190         -0.208067        2.000000        0.29241036        0.01708838
     191         -0.207628        2.000000        0.29350129        0.01560214
     192         -0.207419        2.000000        0.29022721        0.01681076
     193         -0.206511        2.000000        0.28334841        0.01475305
     194         -0.206338        2.000000        0.28854979        0.01773244
     195         -0.205963        2.000000        0.28932923        0.01763253
     196         -0.205597        2.000000        0.29080324        0.01872206
     197         -0.205313        2.000000        0.30006343        0.01406557
     198         -0.204841        2.000000        0.29191068        0.01652746
     199         -0.203616        2.000000        0.29291292        0.01799247
     200         -0.203451        2.000000        0.28145373        0.01596491
     201         -0.203030        2.000000        0.29016645        0.01646937
     202         -0.202913        2.000000        0.29266462        0.01714110
     203         -0.202644        2.000000        0.28623703        0.01801069
     204         -0.202503        2.000000        0.28752426        0.01618266
     205         -0.201994        2.000000        0.29182577        0.01673143
     206         -0.199814        2.000000        0.02520557        0.00144653
     207         -0.199636        2.000000        0.28413668        0.01695687
     208         -0.198721        2.000000        0.28399172        0.01624234
     209         -0.198436        2.000000        0.28766706        0.01689248
     210         -0.198253        2.000000        0.28969400        0.01695257
     211         -0.197512        2.000000        0.28736100        0.01696771
     212         -0.197220        2.000000        0.29100400        0.01573238
     213         -0.196993        2.000000        0.29294834        0.01560837
     214         -0.196926        2.000000        0.28623214        0.01677762
     215         -0.196592        2.000000        0.28837870        0.01648007
     216         -0.195971        2.000000        0.28785473        0.01740626
     217         -0.195555        2.000000        0.29584386        0.01697486
     218         -0.195413        2.000000        0.29008958        0.01741334
     219         -0.195234        2.000000        0.28614502        0.01652827
     220         -0.194013        2.000000        0.28941185        0.01646104
     221         -0.193891        2.000000        0.28880532        0.01680455
     222         -0.193483        2.000000        0.28775956        0.01676807
     223         -0.192982        2.000000        0.29046748        0.01557579
     224         -0.192738        2.000000        0.28905918        0.01718242
     225         -0.192586        2.000000        0.28874212        0.01685540
     226         -0.192138        2.000000        0.28920644        0.01745286
     227         -0.191972        2.000000        0.28775731        0.01618856
     228         -0.191590        2.000000        0.28946933        0.01627293
     229         -0.191457        2.000000        0.29237735        0.01648667
     230         -0.191076        2.000000        0.28876728        0.01690251
     231         -0.190560        2.000000        0.29066371        0.01752714
     232         -0.190385        2.000000        0.28907355        0.01710559
     233         -0.190304        2.000000        0.29226603        0.01684755
     234         -0.190023        2.000000        0.28975681        0.01702402
     235         -0.189651        2.000000        0.29439936        0.01690994
     236         -0.189547        2.000000        0.29025621        0.01775642
     237         -0.189184        2.000000        0.29207029        0.01780652
     238         -0.188852        2.000000        0.29374181        0.01763485
     239         -0.188649        2.000000        0.29483549        0.01672314
     240         -0.188433        2.000000        0.28757319        0.01843489
     241         -0.188236        2.000000        0.29115276        0.01736017
     242         -0.187848        2.000000        0.29628771        0.01736506
     243         -0.187625        2.000000        0.28853935        0.01829528
     244         -0.187413        2.000000        0.28905465        0.01785764
     245         -0.187322        2.000000        0.29349306        0.01812121
     246         -0.187050        2.000000        0.29378801        0.01811376
     247         -0.186387        2.000000        0.29396597        0.01668463
     248         -0.186179        2.000000        0.29071842        0.01737563
     249         -0.185204        2.000000        0.28063495        0.01709161
     250         -0.185131        2.000000        0.28332594        0.01587855
     251         -0.185068        2.000000        0.28837038        0.01758818
     252         -0.184904        2.000000        0.28841218        0.01657891
     253         -0.184464        2.000000        0.29253471        0.01772273
     254         -0.184113        2.000000        0.29307434        0.01713342
     255         -0.183824        2.000000        0.28949827        0.01680413
     256         -0.183682        2.000000        0.28610843        0.01643515
     257         -0.183323        2.000000        0.28970706        0.01735768
     258         -0.183171        2.000000        0.28418800        0.01697212
     259         -0.182926        2.000000        0.29075163        0.01837530
     260         -0.182746        2.000000        0.28864383        0.01745574
     261         -0.182380        2.000000        0.29102752        0.01760468
     262         -0.182181        2.000000        0.28450740        0.01761224
     263         -0.181452        2.000000        0.28874916        0.01728960
     264         -0.181219        2.000000        0.28921776        0.01845249
     265         -0.181082        2.000000        0.28358114        0.01769727
     266         -0.180933        2.000000        0.28415569        0.01706487
     267         -0.180755        2.000000        0.28532202        0.01756814
     268         -0.180675        2.000000        0.28253310        0.01656697
     269         -0.180444        2.000000        0.29062157        0.01723612
     270         -0.179687        2.000000        0.27992401        0.01642526
     271         -0.179290        2.000000        0.06388934        0.00385167
     272         -0.179100        2.000000        0.27898032        0.01606081
     273         -0.178845        2.000000        0.25617521        0.01530268
     274         -0.178628        2.000000        0.25549292        0.01559958
     275         -0.178511        2.000000        0.26182757        0.01559732
     276         -0.178456        2.000000        0.07678782        0.00456734
     277         -0.177664        2.000000        0.28516585        0.01764410
     278         -0.177133        2.000000        0.28609623        0.01667857
     279         -0.176864        2.000000        0.28175433        0.01615228
     280         -0.176695        2.000000        0.27693367        0.01676858
     281         -0.176227        2.000000        0.28521122        0.01596930
     282         -0.176045        2.000000        0.28600647        0.01687679
     283         -0.175673        2.000000        0.28904011        0.01786523
     284         -0.175386        2.000000        0.28206242        0.01653458
     285         -0.175303        2.000000        0.27650701        0.01687729
     286         -0.174757        2.000000        0.28004467        0.01704271
     287         -0.174704        2.000000        0.27931441        0.01754426
     288         -0.174576        2.000000        0.28246149        0.01702405
     289         -0.173814        2.000000        0.28728692        0.01753746
     290         -0.173568        2.000000        0.26009664        0.01576552
     291         -0.173373        2.000000        0.28447383        0.01541419
     292         -0.173255        2.000000        0.28425461        0.01673691
     293         -0.172691        2.000000        0.24485098        0.01555897
     294         -0.172293        2.000000        0.09740891        0.00614054
     295         -0.172083        2.000000        0.27971856        0.01692204
     296         -0.171839        2.000000        0.26985272        0.01636473
     297         -0.171726        2.000000        0.27788377        0.01681100
     298         -0.171338        2.000000        0.05791493        0.00376748
     299         -0.169783        2.000000        0.27921290        0.01731436
     300         -0.169701        2.000000        0.22693392        0.01377920
     301         -0.169657        2.000000        0.13414291        0.00841169
     302         -0.169293        2.000000        0.28477566        0.01703121
     303         -0.168862        2.000000        0.26972937        0.01648258
     304         -0.168521        2.000000        0.25915054        0.01568004
     305         -0.168332        2.000000        0.24198581        0.01466155
     306         -0.167883        2.000000        0.28179460        0.01670403
     307         -0.167506        2.000000        0.28051813        0.01673829
     308         -0.167259        2.000000        0.28298250        0.01636399
     309         -0.166617        2.000000        0.28580893        0.01792912
     310         -0.166546        2.000000        0.28252565        0.01795249
     311         -0.166480        2.000000        0.28503897        0.01776799
     312         -0.165855        2.000000        0.28197850        0.01766381
     313         -0.165534        2.000000        0.28007746        0.01731854
     314         -0.165136        2.000000        0.28420467        0.01770448
     315         -0.164837        2.000000        0.28476086        0.01731629
     316         -0.163891        2.000000        0.28294701        0.01681866
     317         -0.163071        2.000000        0.28193182        0.01787965
     318         -0.162857        2.000000        0.28369547        0.01774866
     319         -0.162480        2.000000        0.28333835        0.01617095
     320         -0.162427        2.000000        0.28462481        0.01811307
     321         -0.161753        2.000000        0.28670700        0.01784895
     322         -0.161207        2.000000        0.28618371        0.01901641
     323         -0.160013        2.000000        0.27708645        0.01664569
     324         -0.159421        2.000000        0.27250028        0.01552228
     325         -0.159134        2.000000        0.28380312        0.01924330
     326         -0.157906        2.000000        0.28012249        0.01921344
     327         -0.157521        2.000000        0.27241823        0.01833575
     328         -0.157385        2.000000        0.27485309        0.01856214
     329         -0.157088        2.000000        0.28227186        0.01843334
     330         -0.156237        2.000000        0.28172957        0.01807365
     331         -0.155904        2.000000        0.27542324        0.01902250
     332         -0.154293        2.000000        0.00370780        0.00030858
     333         -0.153832        2.000000        0.02241407        0.00172845
     334         -0.153712        2.000000        0.04826192        0.00362663
     335         -0.153425        2.000000        0.25728425        0.01603721
     336         -0.153267        2.000000        0.23171039        0.01611488
     337         -0.152843        2.000000        0.27631854        0.01798440
     338         -0.152419        2.000000        0.25107095        0.01726227
     339         -0.152195        2.000000        0.01611883        0.00117330
     340         -0.149745        2.000000        0.03391842        0.00240005
     341         -0.149365        2.000000        0.21880899        0.01416116
     342         -0.149141        2.000000        0.03862556        0.00281676
     343         -0.148577        2.000000        0.28031676        0.01687061
     344         -0.144098        2.000000        0.00397635        0.00056599
     345         -0.143578        2.000000        0.00439806        0.00059720
     346         -0.137625        2.000000        0.00753823        0.00130155
     347         -0.132189        2.000000        0.10114160        0.01910501
     348         -0.129443        2.000000        0.00805715        0.00138135
     349         -0.128408        2.000000        0.00265482        0.00059164
     350         -0.127749        2.000000        0.00381886        0.00078394
     351         -0.127168        2.000000        0.00678684        0.00120906
     352         -0.126765        2.000000        0.00240840        0.00042169
     353         -0.125871        2.000000        0.27612175        0.01705320
     354         -0.125520        2.000000        0.00874747        0.00148627
     355         -0.122339        2.000000        0.02294305        0.00489159
     356         -0.121929        2.000000        0.00759910        0.00176929
     357         -0.121586        2.000000        0.00180233        0.00041512
     358         -0.121238        2.000000        0.02084388        0.00510958
     359         -0.120304        2.000000        0.06254638        0.01497734
     360         -0.120279        2.000000        0.04577823        0.01072336
     361         -0.119985        2.000000        0.09691558        0.02737216
     362         -0.119643        2.000000        0.00773545        0.00214127
     363         -0.119529        2.000000        0.04084076        0.00968441
     364         -0.118822        2.000000        0.03584354        0.00807872
     365         -0.118021        2.000000        0.00879809        0.00212008
     366         -0.117339        2.000000        0.05206118        0.01154903
     367         -0.117157        2.000000        0.01518249        0.00349615
     368         -0.116579        2.000000        0.06644635        0.01605353
     369         -0.115458        2.000000        0.10984338        0.02541571
     370         -0.114863        2.000000        0.06271078        0.01554400
     371         -0.113879        2.000000        0.02167289        0.00550603
     372         -0.113705        2.000000        0.08772994        0.02102143
     373         -0.113413        2.000000        0.08992189        0.02248782
     374         -0.113092        2.000000        0.03297411        0.00790947
     375         -0.112701        2.000000        0.05483551        0.01600014
     376         -0.111277        2.000000        0.10418279        0.02371800
     377         -0.110839        2.000000        0.01974537        0.00478035