# Projected DOS for atomic kind AuT1 at iteration step i = 0, E(Fermi) =     0.128746 a.u.
#     MO Eigenvalue [a.u.]      Occupation                 s                 p                 d                 f
       1         -0.672430        2.000000        0.00009489        0.00035610        0.00112225        0.00018405
       2         -0.669483        2.000000        0.00000000        0.00000004        0.00000010        0.00000001
       3         -0.668614        2.000000        0.00000058        0.00003661        0.00007085        0.00000767
       4         -0.667955        2.000000        0.00000880        0.00001112        0.00007391        0.00000928
       5         -0.667056        2.000000        0.00001533        0.00005121        0.00017055        0.00002439
       6         -0.666292        2.000000        0.00000001        0.00002494        0.00001437        0.00000488
       7         -0.665197        2.000000        0.00000001        0.00000002        0.00000008        0.00000001
       8         -0.664753        2.000000        0.00000266        0.00000199        0.00001624        0.00000298
       9         -0.663687        2.000000        0.00000000        0.00000000        0.00000000        0.00000000
      10         -0.663175        2.000000        0.00000000        0.00000006        0.00000013        0.00000001
      11         -0.661580        2.000000        0.00002071        0.00049313        0.00111102        0.00008460
      12         -0.660455        2.000000        0.00019259        0.00020736        0.00145091        0.00025101
      13         -0.659162        2.000000        0.00000024        0.00018171        0.00027787        0.00005745
      14         -0.657063        2.000000        0.00000300        0.00021471        0.00081657        0.00008348
      15         -0.656320        2.000000        0.00000465        0.00001145        0.00009356        0.00001583
      16         -0.655890        2.000000        0.00000020        0.00000095        0.00000485        0.00000092
      17         -0.655624        2.000000        0.00006111        0.00024669        0.00095174        0.00036725
      18         -0.655323        2.000000        0.00000152        0.00000561        0.00004396        0.00000720
      19         -0.655233        2.000000        0.00003761        0.00019116        0.00093302        0.00019165
      20         -0.654915        2.000000        0.00000042        0.00000389        0.00001514        0.00000345
      21         -0.653870        2.000000        0.00000512        0.00000221        0.00002640        0.00002432
      22         -0.653373        2.000000        0.00000020        0.00000074        0.00000293        0.00000140
      23         -0.652901        2.000000        0.00000000        0.00000004        0.00000012        0.00000007
      24         -0.651720        2.000000        0.00000066        0.00001456        0.00008328        0.00000926
      25         -0.651508        2.000000        0.00000088        0.00000343        0.00002371        0.00000155
      26         -0.650655        2.000000        0.00000146        0.00000011        0.00001208        0.00000536
      27         -0.649699        2.000000        0.00000307        0.00000738        0.00017510        0.00006102
      28         -0.649408        2.000000        0.00000630        0.00001118        0.00027922        0.00010647
      29         -0.648811        2.000000        0.00000284        0.00000062        0.00011026        0.00004695
      30         -0.648716        2.000000        0.00000118        0.00000026        0.00002228        0.00001282
      31         -0.647328        2.000000        0.00000034        0.00000199        0.00004273        0.00000266
      32         -0.646555        2.000000        0.00000023        0.00000157        0.00001097        0.00000243
      33         -0.646412        2.000000        0.00000000        0.00000003        0.00000115        0.00000012
      34         -0.645775        2.000000        0.00000004        0.00000042        0.00000516        0.00000039
      35         -0.644835        2.000000        0.00000183        0.00002728        0.00037581        0.00010343
      36         -0.644778        2.000000        0.00000012        0.00000940        0.00017556        0.00004174
      37         -0.644567        2.000000        0.00000040        0.00000667        0.00009830        0.00000965
      38         -0.644393        2.000000        0.00000002        0.00001818        0.00008189        0.00000821
      39         -0.644271        2.000000        0.00000184        0.00000611        0.00001358        0.00001972
      40         -0.643299        2.000000        0.00000142        0.00003697        0.00010335        0.00008122
      41         -0.643003        2.000000        0.00000075        0.00001671        0.00006864        0.00003528
      42         -0.642780        2.000000        0.00000012        0.00001040        0.00002233        0.00002617
      43         -0.642567        2.000000        0.00000019        0.00000026        0.00000454        0.00000079
      44         -0.642113        2.000000        0.00000067        0.00000583        0.00014922        0.00002142
      45         -0.641741        2.000000        0.00000051        0.00000034        0.00000751        0.00000228
      46         -0.641499        2.000000        0.00000013        0.00000089        0.00002581        0.00001332
      47         -0.640713        2.000000        0.00000032        0.00000535        0.00012756        0.00002638
      48         -0.640530        2.000000        0.00000155        0.00000823        0.00011702        0.00000625
      49         -0.640030        2.000000        0.00000005        0.00000417        0.00003185        0.00000343
      50         -0.639867        2.000000        0.00000026        0.00000022        0.00000495        0.00000146
      51         -0.639444        2.000000        0.00000092        0.00000204        0.00002192        0.00000169
      52         -0.639210        2.000000        0.00000041        0.00000092        0.00003643        0.00000371
      53         -0.639146        2.000000        0.00000013        0.00000351        0.00001033        0.00000215
      54         -0.638732        2.000000        0.00000095        0.00001167        0.00003111        0.00000719
      55         -0.638289        2.000000        0.00000678        0.00003033        0.00008740        0.00005160
      56         -0.637321        2.000000        0.00000447        0.00000872        0.00003844        0.00001567
      57         -0.637203        2.000000        0.00000814        0.00003065        0.00014045        0.00002934
      58         -0.637066        2.000000        0.00000621        0.00001573        0.00005932        0.00001284
      59         -0.636675        2.000000        0.00000049        0.00000916        0.00005312        0.00001240
      60         -0.635935        2.000000        0.00000018        0.00000185        0.00001194        0.00001042
      61         -0.635227        2.000000        0.00000192        0.00000788        0.00001565        0.00000869
      62         -0.635107        2.000000        0.00000018        0.00000215        0.00004716        0.00000261
      63         -0.634833        2.000000        0.00000665        0.00004168        0.00006030        0.00001664
      64         -0.634470        2.000000        0.00000106        0.00000247        0.00000847        0.00000422
      65         -0.634367        2.000000        0.00000017        0.00000127        0.00000865        0.00000247
      66         -0.634038        2.000000        0.00000207        0.00002826        0.00004241        0.00001818
      67         -0.633843        2.000000        0.00000024        0.00000326        0.00000782        0.00000247
      68         -0.633384        2.000000        0.00000002        0.00001125        0.00002592        0.00000826
      69         -0.633044        2.000000        0.00000644        0.00000779        0.00009662        0.00001245
      70         -0.632857        2.000000        0.00001550        0.00004954        0.00026205        0.00002626
      71         -0.632275        2.000000        0.00000273        0.00005587        0.00004422        0.00003854
      72         -0.632105        2.000000        0.00000013        0.00000763        0.00002454        0.00002824
      73         -0.631869        2.000000        0.00003263        0.00013329        0.00032341        0.00003586
      74         -0.630858        2.000000        0.00000137        0.00002389        0.00008789        0.00002963
      75         -0.630633        2.000000        0.00000621        0.00000817        0.00004042        0.00000434
      76         -0.630425        2.000000        0.00000011        0.00000119        0.00000718        0.00000050
      77         -0.629951        2.000000        0.00000410        0.00000608        0.00010651        0.00000881
      78         -0.629454        2.000000        0.00000007        0.00002187        0.00003930        0.00002105
      79         -0.628653        2.000000        0.00000657        0.00001977        0.00006470        0.00000729
      80         -0.628576        2.000000        0.00000336        0.00000775        0.00002436        0.00002633
      81         -0.628358        2.000000        0.00001349        0.00003118        0.00019929        0.00006891
      82         -0.628217        2.000000        0.00002733        0.00008067        0.00025885        0.00003786
      83         -0.627320        2.000000        0.00000689        0.00004309        0.00013507        0.00001393
      84         -0.626841        2.000000        0.00000387        0.00001155        0.00005542        0.00001092
      85         -0.626336        2.000000        0.00002443        0.00005574        0.00040565        0.00005265
      86         -0.626147        2.000000        0.00000180        0.00000504        0.00005901        0.00001471
      87         -0.625987        2.000000        0.00000010        0.00001093        0.00000466        0.00000307
      88         -0.625774        2.000000        0.00002586        0.00017606        0.00057707        0.00015103
      89         -0.625361        2.000000        0.00000271        0.00000153        0.00006552        0.00000672
      90         -0.625165        2.000000        0.00000548        0.00000451        0.00009013        0.00001132
      91         -0.624866        2.000000        0.00000144        0.00001500        0.00009766        0.00001801
      92         -0.624565        2.000000        0.00000001        0.00000034        0.00000603        0.00000199
      93         -0.624237        2.000000        0.00000052        0.00000245        0.00001737        0.00000740
      94         -0.623721        2.000000        0.00000030        0.00000072        0.00001378        0.00000520
      95         -0.623594        2.000000        0.00000089        0.00000904        0.00004656        0.00001772
      96         -0.623257        2.000000        0.00000633        0.00002755        0.00004882        0.00011390
      97         -0.622851        2.000000        0.00000025        0.00000116        0.00000726        0.00000917
      98         -0.622232        2.000000        0.00000067        0.00000675        0.00003087        0.00002119
      99         -0.622173        2.000000        0.00000055        0.00001618        0.00008972        0.00001848
     100         -0.622079        2.000000        0.00000001        0.00000203        0.00001446        0.00000398
     101         -0.621451        2.000000        0.00000028        0.00000299        0.00005411        0.00000713
     102         -0.621089        2.000000        0.00000011        0.00000091        0.00000359        0.00000263
     103         -0.620735        2.000000        0.00000036        0.00000530        0.00003168        0.00001670
     104         -0.620425        2.000000        0.00000012        0.00000407        0.00003998        0.00001246
     105         -0.619781        2.000000        0.00000005        0.00000044        0.00000401        0.00000266
     106         -0.619575        2.000000        0.00000001        0.00000083        0.00000113        0.00000161
     107         -0.618915        2.000000        0.00000025        0.00000053        0.00001955        0.00000078
     108         -0.618512        2.000000        0.00000001        0.00000050        0.00000039        0.00000135
     109         -0.617954        2.000000        0.00000229        0.00000417        0.00019892        0.00000875
     110         -0.617665        2.000000        0.00000596        0.00004046        0.00019999        0.00006126
     111         -0.617194        2.000000        0.00000687        0.00016149        0.00109940        0.00042854
     112         -0.616932        2.000000        0.00000125        0.00000193        0.00009779        0.00000765
     113         -0.616563        2.000000        0.00000138        0.00000154        0.00002334        0.00000414
     114         -0.616066        2.000000        0.00000010        0.00000146        0.00000067        0.00000051
     115         -0.615647        2.000000        0.00000009        0.00000402        0.00001092        0.00001361
     116         -0.615401        2.000000        0.00000300        0.00001015        0.00014325        0.00000797
     117         -0.614602        2.000000        0.00000067        0.00000302        0.00002859        0.00002233
     118         -0.614459        2.000000        0.00000060        0.00000136        0.00000457        0.00000205
     119         -0.614065        2.000000        0.00000043        0.00000749        0.00001672        0.00001480
     120         -0.613776        2.000000        0.00000000        0.00000037        0.00001071        0.00000163
     121         -0.613333        2.000000        0.00000128        0.00000240        0.00002208        0.00000834
     122         -0.613233        2.000000        0.00000013        0.00000079        0.00003074        0.00000174
     123         -0.612983        2.000000        0.00000032        0.00000045        0.00001497        0.00000492
     124         -0.612581        2.000000        0.00000072        0.00000021        0.00000515        0.00000495
     125         -0.612469        2.000000        0.00000016        0.00000007        0.00000101        0.00000087
     126         -0.611596        2.000000        0.00000003        0.00000114        0.00000269        0.00000349
     127         -0.611199        2.000000        0.00000000        0.00000004        0.00000005        0.00000007
     128         -0.611011        2.000000        0.00000074        0.00000074        0.00001019        0.00000418
     129         -0.610802        2.000000        0.00000009        0.00000256        0.00002086        0.00001067
     130         -0.610602        2.000000        0.00000032        0.00000046        0.00000713        0.00000224
     131         -0.610315        2.000000        0.00000014        0.00000018        0.00000545        0.00000104
     132         -0.608920        2.000000        0.00000002        0.00000051        0.00000093        0.00000122
     133         -0.608714        2.000000        0.00000044        0.00000194        0.00000490        0.00000187
     134         -0.608689        2.000000        0.00000001        0.00000139        0.00000164        0.00000116
     135         -0.607712        2.000000        0.00000043        0.00000309        0.00001845        0.00000361
     136         -0.607241        2.000000        0.00000009        0.00000018        0.00000400        0.00000040
     137         -0.607015        2.000000        0.00000204        0.00001220        0.00010655        0.00001851
     138         -0.606961        2.000000        0.00000045        0.00000355        0.00003235        0.00000501
     139         -0.606668        2.000000        0.00000028        0.00000567        0.00003428        0.00000817
     140         -0.606217        2.000000        0.00000007        0.00000216        0.00000766        0.00000300
     141         -0.605760        2.000000        0.00000003        0.00000167        0.00000141        0.00000256
     142         -0.605530        2.000000        0.00000001        0.00000032        0.00000013        0.00000042
     143         -0.604726        2.000000        0.00000008        0.00000020        0.00000051        0.00000022
     144         -0.604251        2.000000        0.00000008        0.00000033        0.00000202        0.00000083
     145         -0.604012        2.000000        0.00000000        0.00000109        0.00000020        0.00000109
     146         -0.603621        2.000000        0.00000001        0.00000003        0.00000009        0.00000007
     147         -0.602798        2.000000        0.00000000        0.00000002        0.00000017        0.00000003
     148         -0.602043        2.000000        0.00000000        0.00000005        0.00000030        0.00000003
     149         -0.601806        2.000000        0.00000000        0.00000001        0.00000002        0.00000000
     150         -0.601164        2.000000        0.00000010        0.00000116        0.00000907        0.00000266
     151         -0.600494        2.000000        0.00000000        0.00000024        0.00000085        0.00000037
     152         -0.600235        2.000000        0.00000004        0.00000009        0.00000124        0.00000010
     153         -0.599390        2.000000        0.00000022        0.00000136        0.00000462        0.00000066
     154         -0.598787        2.000000        0.00000003        0.00000002        0.00000099        0.00000011
     155         -0.598286        2.000000        0.00000044        0.00000122        0.00000750        0.00000072
     156         -0.596934        2.000000        0.00000007        0.00000028        0.00000146        0.00000019
     157         -0.596320        2.000000        0.00000002        0.00000023        0.00000128        0.00000031
     158         -0.595753        2.000000        0.00000000        0.00000000        0.00000000        0.00000000
     159         -0.594631        2.000000        0.00000009        0.00000018        0.00000165        0.00000050
     160         -0.593777        2.000000        0.00000055        0.00000063        0.00000987        0.00000388
     161         -0.592082        2.000000        0.00000000        0.00000000        0.00000002        0.00000000
     162         -0.589122        2.000000        0.00000000        0.00000002        0.00000014        0.00000007
     163         -0.586735        2.000000        0.00000000        0.00000000        0.00000003        0.00000001
     164         -0.585766        2.000000        0.00000007        0.00000060        0.00000230        0.00000060
     165         -0.585182        2.000000        0.00000000        0.00000002        0.00000024        0.00000006
     166         -0.573903        2.000000        0.00000000        0.00000001        0.00000007        0.00000002
     167         -0.232303        2.000000        0.00000003        0.00000002        0.00000006        0.00000001
     168         -0.228380        2.000000        0.00000000        0.00000000        0.00000000        0.00000000
     169         -0.226510        2.000000        0.00000000        0.00000000        0.00000000        0.00000000
     170         -0.223708        2.000000        0.00000048        0.00000048        0.00000027        0.00000021
     171         -0.220593        2.000000        0.00225105        0.00156945        0.00236004        0.00032727
     172         -0.220130        2.000000        0.00003783        0.00002683        0.00006025        0.00001865
     173         -0.218641        2.000000        0.00000000        0.00000000        0.00000001        0.00000000
     174         -0.218322        2.000000        0.00002095        0.00000407        0.00001858        0.00000305
     175         -0.217040        2.000000        0.00000002        0.00000003        0.00000003        0.00000000
     176         -0.215954        2.000000        0.00001103        0.00000439        0.00000827        0.00000139
     177         -0.215808        2.000000        0.00000008        0.00000017        0.00000028        0.00000010
     178         -0.215345        2.000000        0.00007195        0.00001792        0.00003991        0.00001225
     179         -0.212987        2.000000        0.00000000        0.00000000        0.00000002        0.00000000
     180         -0.212274        2.000000        0.00000428        0.00000434        0.00004303        0.00000414
     181         -0.212168        2.000000        0.00024040        0.00000560        0.00022124        0.00003836
     182         -0.211357        2.000000        0.00018560        0.00035123        0.00115333        0.00023580
     183         -0.210843        2.000000        0.00003171        0.00005829        0.00013490        0.00003428
     184         -0.210303        2.000000        0.00113095        0.00098058        0.00234636        0.00027925
     185         -0.209997        2.000000        0.00000009        0.00011391        0.00048168        0.00005861
     186         -0.209803        2.000000        0.00000472        0.00000565        0.00001041        0.00000147
     187         -0.209469        2.000000        0.00000031        0.00000227        0.00001389        0.00000173
     188         -0.209379        2.000000        0.00006672        0.00012198        0.00007529        0.00002543
     189         -0.208401        2.000000        0.00008297        0.00005424        0.00010519        0.00001139
     190         -0.208067        2.000000        0.00029613        0.00017293        0.00046158        0.00007007
     191         -0.207628        2.000000        0.00000198        0.00000636        0.00003309        0.00000491
     192         -0.207419        2.000000        0.00001323        0.00001182        0.00010823        0.00003390
     193         -0.206511        2.000000        0.00000000        0.00000001        0.00000003        0.00000001
     194         -0.206338        2.000000        0.00000001        0.00000002        0.00000002        0.00000001
     195         -0.205963        2.000000        0.00000672        0.00029231        0.00066832        0.00016584
     196         -0.205597        2.000000        0.00000066        0.00000212        0.00000479        0.00000079
     197         -0.205313        2.000000        0.00000084        0.00000386        0.00001648        0.00000243
     198         -0.204841        2.000000        0.00002158        0.00003187        0.00013005        0.00001953
     199         -0.203616        2.000000        0.00001050        0.00000657        0.00001022        0.00000100
     200         -0.203451        2.000000        0.00038269        0.00041354        0.00048754        0.00012422
     201         -0.203030        2.000000        0.00011907        0.00001632        0.00008263        0.00000424
     202         -0.202913        2.000000        0.00040214        0.00047973        0.00087431        0.00008971
     203         -0.202644        2.000000        0.00046054        0.00018415        0.00038458        0.00010080
     204         -0.202503        2.000000        0.00046820        0.00014898        0.00179810        0.00041980
     205         -0.201994        2.000000        0.00004334        0.00017347        0.00048269        0.00005066
     206         -0.199814        2.000000        0.00002539        0.00000635        0.00003993        0.00000893
     207         -0.199636        2.000000        0.00002517        0.00022798        0.00047568        0.00008624
     208         -0.198721        2.000000        0.00009836        0.00010090        0.00085156        0.00012352
     209         -0.198436        2.000000        0.00000611        0.00002021        0.00023496        0.00003503
     210         -0.198253        2.000000        0.00000192        0.00005764        0.00031526        0.00003932
     211         -0.197512        2.000000        0.00000057        0.00000603        0.00016580        0.00001527
     212         -0.197220        2.000000        0.00001086        0.00000223        0.00001763        0.00000310
     213         -0.196993        2.000000        0.00000082        0.00000619        0.00003886        0.00000887
     214         -0.196926        2.000000        0.00002053        0.00003033        0.00009641        0.00002844
     215         -0.196592        2.000000        0.00000012        0.00000114        0.00000766        0.00000069
     216         -0.195971        2.000000        0.00001620        0.00000206        0.00005898        0.00001229
     217         -0.195555        2.000000        0.00000051        0.00000014        0.00000067        0.00000017
     218         -0.195413        2.000000        0.00000013        0.00000688        0.00013675        0.00002682
     219         -0.195235        2.000000        0.00001295        0.00007752        0.00002873        0.00002670
     220         -0.194013        2.000000        0.00000931        0.00000888        0.00001017        0.00000136
     221         -0.193891        2.000000        0.00000001        0.00000676        0.00001439        0.00000234
     222         -0.193483        2.000000        0.00011133        0.00002938        0.00008653        0.00002685
     223         -0.192982        2.000000        0.00003733        0.00001358        0.00004033        0.00000576
     224         -0.192738        2.000000        0.00006587        0.00003978        0.00030286        0.00004221
     225         -0.192586        2.000000        0.00000380        0.00000167        0.00003405        0.00000569
     226         -0.192138        2.000000        0.00064204        0.00046402        0.00112348        0.00021648
     227         -0.191972        2.000000        0.00019573        0.00012980        0.00042304        0.00007704
     228         -0.191590        2.000000        0.00001875        0.00002550        0.00004955        0.00001017
     229         -0.191457        2.000000        0.00001175        0.00000544        0.00001644        0.00000533
     230         -0.191076        2.000000        0.00005532        0.00015355        0.00005573        0.00004091
     231         -0.190560        2.000000        0.00008364        0.00003156        0.00003975        0.00003628
     232         -0.190385        2.000000        0.00000876        0.00002237        0.00012011        0.00002366
     233         -0.190304        2.000000        0.00001363        0.00001172        0.00007635        0.00001777
     234         -0.190023        2.000000        0.00005589        0.00007292        0.00042356        0.00011729
     235         -0.189651        2.000000        0.00000068        0.00003671        0.00026997        0.00006837
     236         -0.189547        2.000000        0.00006835        0.00011353        0.00039788        0.00011947
     237         -0.189184        2.000000        0.00000251        0.00005670        0.00025879        0.00004068
     238         -0.188852        2.000000        0.00000053        0.00000600        0.00011429        0.00002376
     239         -0.188649        2.000000        0.00000059        0.00000324        0.00001613        0.00000280
     240         -0.188433        2.000000        0.00004551        0.00002593        0.00007432        0.00001244
     241         -0.188236        2.000000        0.00002569        0.00002146        0.00010374        0.00001565
     242         -0.187848        2.000000        0.00001518        0.00003523        0.00018544        0.00004870
     243         -0.187625        2.000000        0.00001209        0.00000929        0.00001513        0.00000224
     244         -0.187413        2.000000        0.00000824        0.00005520        0.00037545        0.00008942
     245         -0.187322        2.000000        0.00010391        0.00011806        0.00048161        0.00010004
     246         -0.187050        2.000000        0.00007055        0.00007103        0.00026792        0.00005542
     247         -0.186387        2.000000        0.00001135        0.00001211        0.00015261        0.00002839
     248         -0.186179        2.000000        0.00001173        0.00001304        0.00004289        0.00000910
     249         -0.185204        2.000000        0.00000005        0.00012037        0.00003133        0.00006683
     250         -0.185131        2.000000        0.00000305        0.00000251        0.00006426        0.00000701
     251         -0.185068        2.000000        0.00001024        0.00004257        0.00004956        0.00002686
     252         -0.184904        2.000000        0.00000723        0.00001397        0.00002056        0.00000732
     253         -0.184464        2.000000        0.00007452        0.00008206        0.00008790        0.00001700
     254         -0.184113        2.000000        0.00004638        0.00000881        0.00002415        0.00000972
     255         -0.183824        2.000000        0.00002689        0.00000260        0.00000105        0.00000232
     256         -0.183682        2.000000        0.00000195        0.00000538        0.00000512        0.00000124
     257         -0.183323        2.000000        0.00004692        0.00000910        0.00009308        0.00001378
     258         -0.183170        2.000000        0.00002111        0.00000637        0.00001186        0.00000113
     259         -0.182926        2.000000        0.00010170        0.00006117        0.00013448        0.00001688