 DBCSR| CPU Multiplication driver                                           XSMM
 DBCSR| Multrec recursion limit                                              512
 DBCSR| Multiplication stack size                                           1000
 DBCSR| Maximum elements for images                                    UNLIMITED
 DBCSR| Multiplicative factor virtual images                                   1
 DBCSR| Use multiplication densification                                       T
 DBCSR| Multiplication size stacks                                             3
 DBCSR| Use memory pool for CPU allocation                                     F
 DBCSR| Number of 3D layers                                               SINGLE
 DBCSR| Use MPI memory allocation                                              F
 DBCSR| Use RMA algorithm                                                      F
 DBCSR| Use Communication thread                                               T
 DBCSR| Communication thread load                                             60
 DBCSR| MPI: My node id                                                        0
 DBCSR| MPI: Number of nodes                                                  64
 DBCSR| OMP: Current number of threads                                         8
 DBCSR| OMP: Max number of threads                                             8
 DBCSR| Split modifier for TAS multiplication algorithm                  1.0E+00


  **** **** ******  **  PROGRAM STARTED AT               2024-01-09 17:16:21.927
 ***** ** ***  *** **   PROGRAM STARTED ON                           hx1-c08-1-1
 **    ****   ******    PROGRAM STARTED BY                                cahart
 ***** **    ** ** **   PROGRAM PROCESS ID                               2135308
  **** **  *******  **  PROGRAM STARTED IN /gpfs/home/cahart/transport/melamine/
                                           au_from-h2/capacitor/sz_kpoints-1-1-2
                                           0

 CP2K| version string:                 CP2K version 2022.1 (Development Version)
 CP2K| source code revision number:                                  git:5518aa6
 CP2K| cp2kflags: omp libint fftw3 libxc parallel mpi3 scalapack xsmm plumed2   
 CP2K| is freely available from                            https://www.cp2k.org/
 CP2K| Program compiled at                          Thu 21 Sep 19:20:17 BST 2023
 CP2K| Program compiled on                                       hx1-c12-login-1
 CP2K| Program compiled for                                                local
 CP2K| Data directory path    /gpfs/easybuild/prod/software/CP2K/2022.1-foss-202
 CP2K| Input file name                                                  3_0V.inp

 GLOBAL| Force Environment number                                              1
 GLOBAL| Basis set file name                                        BASIS_MOLOPT
 GLOBAL| Potential file name                                      GTH_POTENTIALS
 GLOBAL| MM Potential file name                                     MM_POTENTIAL
 GLOBAL| Coordinate file name                                             em.xyz
 GLOBAL| Method name                                                        CP2K
 GLOBAL| Project name                                                         0V
 GLOBAL| Run type                                                         ENERGY
 GLOBAL| FFT library                                                       FFTW3
 GLOBAL| Diagonalization library                                       ScaLAPACK
 GLOBAL| Orthonormality check for eigenvectors                          DISABLED
 GLOBAL| Matrix multiplication library                                 ScaLAPACK
 GLOBAL| All-to-all communication in single precision                          F
 GLOBAL| FFTs using library dependent lengths                                  T
 GLOBAL| Grid backend                                                       AUTO
 GLOBAL| Global print level                                               MEDIUM
 GLOBAL| MPI I/O enabled                                                       T
 GLOBAL| Total number of message passing processes                            64
 GLOBAL| Number of threads for this process                                    8
 GLOBAL| This output is from process                                           0
 GLOBAL| Stack size for threads created by OpenMP (OMP_STACKSIZE)        default
 GLOBAL| CPU model name             Intel(R) Xeon(R) Platinum 8358 CPU @ 2.60GHz
 GLOBAL| CPUID                                                              1003

 MEMORY| system memory details [Kb]
 MEMORY|                        rank 0           min           max       average
 MEMORY| MemTotal            527652788     527652780     527652792     527652787
 MEMORY| MemFree             512856376     497453364     514140124     511151576
 MEMORY| Buffers                  5400          5052          5480          5382
 MEMORY| Cached                2207328       1795900      18094436       4111688
 MEMORY| Slab                  1503660       1444428       1758236       1589189
 MEMORY| SReclaimable           527608        501624        771856        641741
 MEMORY| MemLikelyFree       515596712     513789288     516443036     515910388


 *** Fundamental physical constants (SI units) ***

 *** Literature: B. J. Mohr and B. N. Taylor,
 ***             CODATA recommended values of the fundamental physical
 ***             constants: 2006, Web Version 5.1
 ***             http://physics.nist.gov/constants

 Speed of light in vacuum [m/s]                             2.99792458000000E+08
 Magnetic constant or permeability of vacuum [N/A**2]       1.25663706143592E-06
 Electric constant or permittivity of vacuum [F/m]          8.85418781762039E-12
 Planck constant (h) [J*s]                                  6.62606896000000E-34
 Planck constant (h-bar) [J*s]                              1.05457162825177E-34
 Elementary charge [C]                                      1.60217648700000E-19
 Electron mass [kg]                                         9.10938215000000E-31
 Electron g factor [ ]                                     -2.00231930436220E+00
 Proton mass [kg]                                           1.67262163700000E-27
 Fine-structure constant                                    7.29735253760000E-03
 Rydberg constant [1/m]                                     1.09737315685270E+07
 Avogadro constant [1/mol]                                  6.02214179000000E+23
 Boltzmann constant [J/K]                                   1.38065040000000E-23
 Atomic mass unit [kg]                                      1.66053878200000E-27
 Bohr radius [m]                                            5.29177208590000E-11

 *** Conversion factors ***

 [u] -> [a.u.]                                              1.82288848426455E+03
 [Angstrom] -> [Bohr] = [a.u.]                              1.88972613288564E+00
 [a.u.] = [Bohr] -> [Angstrom]                              5.29177208590000E-01
 [a.u.] -> [s]                                              2.41888432650478E-17
 [a.u.] -> [fs]                                             2.41888432650478E-02
 [a.u.] -> [J]                                              4.35974393937059E-18
 [a.u.] -> [N]                                              8.23872205491840E-08
 [a.u.] -> [K]                                              3.15774647902944E+05
 [a.u.] -> [kJ/mol]                                         2.62549961709828E+03
 [a.u.] -> [kcal/mol]                                       6.27509468713739E+02
 [a.u.] -> [Pa]                                             2.94210107994716E+13
 [a.u.] -> [bar]                                            2.94210107994716E+08
 [a.u.] -> [atm]                                            2.90362800883016E+08
 [a.u.] -> [eV]                                             2.72113838565563E+01
 [a.u.] -> [Hz]                                             6.57968392072181E+15
 [a.u.] -> [1/cm] (wave numbers)                            2.19474631370540E+05
 [a.u./Bohr**2] -> [1/cm]                                   5.14048714338585E+03
 

 CELL_TOP| Volume [angstrom^3]:                                      4593.719514
 CELL_TOP| Vector a [angstrom    14.582     0.000     0.000   |a| =    14.582000
 CELL_TOP| Vector b [angstrom     0.000     8.866     0.000   |b| =     8.866000
 CELL_TOP| Vector c [angstrom     0.000     0.000    35.532   |c| =    35.532000
 CELL_TOP| Angle (b,c), alpha [degree]:                                90.000000
 CELL_TOP| Angle (a,c), beta  [degree]:                                90.000000
 CELL_TOP| Angle (a,b), gamma [degree]:                                90.000000
 CELL_TOP| Numerically orthorhombic:                                         YES
 CELL_TOP| Periodicity                                                       XYZ

 GENERATE|  Preliminary Number of Bonds generated:                             0
 GENERATE|  Achieved consistency in connectivity generation.

 CELL| Volume [angstrom^3]:                                          4593.719514
 CELL| Vector a [angstrom]:      14.582     0.000     0.000   |a| =    14.582000
 CELL| Vector b [angstrom]:       0.000     8.866     0.000   |b| =     8.866000
 CELL| Vector c [angstrom]:       0.000     0.000    35.532   |c| =    35.532000
 CELL| Angle (b,c), alpha [degree]:                                    90.000000
 CELL| Angle (a,c), beta  [degree]:                                    90.000000
 CELL| Angle (a,b), gamma [degree]:                                    90.000000
 CELL| Numerically orthorhombic:                                             YES
 CELL| Periodicity                                                           XYZ

 CELL_REF| Volume [angstrom^3]:                                      4593.719514
 CELL_REF| Vector a [angstrom    14.582     0.000     0.000   |a| =    14.582000
 CELL_REF| Vector b [angstrom     0.000     8.866     0.000   |b| =     8.866000
 CELL_REF| Vector c [angstrom     0.000     0.000    35.532   |c| =    35.532000
 CELL_REF| Angle (b,c), alpha [degree]:                                90.000000
 CELL_REF| Angle (a,c), beta  [degree]:                                90.000000
 CELL_REF| Angle (a,b), gamma [degree]:                                90.000000
 CELL_REF| Numerically orthorhombic:                                         YES
 CELL_REF| Periodicity                                                       XYZ

 *** WARNING in cryssym.F:165 :: Symmetry library SPGLIB not available ***


 *******************************************************************************
                                    Kpoints
 *******************************************************************************
 BRILLOUIN| K-point scheme                                        Monkhorst-Pack
 BRILLOUIN| K-Point grid                                             1    1    1
 BRILLOUIN| Accuracy in Symmetry determination                      0.100000E-07
 BRILLOUIN| K-Point point group symmetrization                               OFF
 BRILLOUIN| Wavefunction type                                            COMPLEX
 BRILLOUIN| Use full k-point grid     
 BRILLOUIN| List of Kpoints [2 Pi/Bohr]                                        1
 BRILLOUIN| Number           Weight            X              Y              Z
 BRILLOUIN|     1           1.00000        0.00000        0.00000        0.00000
 *******************************************************************************

 *******************************************************************************
 *******************************************************************************
 **                                                                           **
 **     #####                         ##              ##                      **
 **    ##   ##            ##          ##              ##                      **
 **   ##     ##                       ##            ######                    **
 **   ##     ##  ##   ##  ##   #####  ##  ##   ####   ##    #####    #####    **
 **   ##     ##  ##   ##  ##  ##      ## ##   ##      ##   ##   ##  ##   ##   **
 **   ##  ## ##  ##   ##  ##  ##      ####     ###    ##   ######   ######    **
 **    ##  ###   ##   ##  ##  ##      ## ##      ##   ##   ##       ##        **
 **     #######   #####   ##   #####  ##  ##  ####    ##    #####   ##        **
 **           ##                                                    ##        **
 **                                                                           **
 **                                                ... make the atoms dance   **
 **                                                                           **
 **            Copyright (C) by CP2K developers group (2000-2022)             **
 **                      J. Chem. Phys. 152, 194103 (2020)                    **
 **                                                                           **
 *******************************************************************************

 DFT| Spin restricted Kohn-Sham (RKS) calculation                            RKS
 DFT| Multiplicity                                                             2
 DFT| Number of spin states                                                    1
 DFT| Charge                                                                   0
 DFT| Self-interaction correction (SIC)                                       NO
 DFT| Cutoffs: density                                              1.000000E-10
 DFT|          gradient                                             1.000000E-10
 DFT|          tau                                                  1.000000E-10
 DFT|          cutoff_smoothing_range                               0.000000E+00
 DFT| XC density smoothing                                                  NONE
 DFT| XC derivatives                                                          PW

 FUNCTIONAL| PBE:
 FUNCTIONAL| J.P.Perdew, K.Burke, M.Ernzerhof, Phys. Rev. Letter, vol. 77, n 18,
 FUNCTIONAL|  pp. 3865-3868, (1996){spin unpolarized}                           


 QS| Method:                                                                 GPW
 QS| Density plane wave grid type                        NON-SPHERICAL FULLSPACE
 QS| Number of grid levels:                                                    4
 QS| Density cutoff [a.u.]:                                                300.0
 QS| Multi grid cutoff [a.u.]: 1) grid level                               300.0
 QS|                           2) grid level                               100.0
 QS|                           3) grid level                                33.3
 QS|                           4) grid level                                11.1
 QS| Grid level progression factor:                                          3.0
 QS| Relative density cutoff [a.u.]:                                        30.0
 QS| Interaction thresholds: eps_pgf_orb:                                1.0E-05
 QS|                         eps_filter_matrix:                          0.0E+00
 QS|                         eps_core_charge:                            1.0E-12
 QS|                         eps_rho_gspace:                             1.0E-10
 QS|                         eps_rho_rspace:                             1.0E-10
 QS|                         eps_gvg_rspace:                             1.0E-05
 QS|                         eps_ppl:                                    1.0E-02
 QS|                         eps_ppnl:                                   1.0E-07


 ATOMIC KIND INFORMATION

  1. Atomic kind: Au                                    Number of atoms:     165

     Orbital Basis Set                                     SZV-MOLOPT-SR-GTH-q11

       Number of orbital shell sets:                                           1
       Number of orbital shells:                                               3
       Number of primitive Cartesian functions:                                5
       Number of Cartesian basis functions:                                   10
       Number of spherical basis functions:                                    9
       Norm type:                                                              2

       Normalised Cartesian orbitals:

                        Set   Shell   Orbital            Exponent    Coefficient

                          1       1    2s                2.950008       0.074626
                                                         1.563057      -0.007898
                                                         0.666664      -0.297688
                                                         0.251083       0.136809
                                                         0.081714       0.088198

                          1       2    3px               2.950008       0.148824
                                                         1.563057       0.025430
                                                         0.666664      -0.123003
                                                         0.251083       0.033648
                                                         0.081714       0.059008
                          1       2    3py               2.950008       0.148824
                                                         1.563057       0.025430
                                                         0.666664      -0.123003
                                                         0.251083       0.033648
                                                         0.081714       0.059008
                          1       2    3pz               2.950008       0.148824
                                                         1.563057       0.025430
                                                         0.666664      -0.123003
                                                         0.251083       0.033648
                                                         0.081714       0.059008

                          1       3    4dx2              2.950008      -0.139595
                                                         1.563057       1.319655
                                                         0.666664       0.377081
                                                         0.251083       0.046872
                                                         0.081714       0.001393
                          1       3    4dxy              2.950008      -0.241786
                                                         1.563057       2.285709
                                                         0.666664       0.653124
                                                         0.251083       0.081185
                                                         0.081714       0.002412
                          1       3    4dxz              2.950008      -0.241786
                                                         1.563057       2.285709
                                                         0.666664       0.653124
                                                         0.251083       0.081185
                                                         0.081714       0.002412
                          1       3    4dy2              2.950008      -0.139595
                                                         1.563057       1.319655
                                                         0.666664       0.377081
                                                         0.251083       0.046872
                                                         0.081714       0.001393
                          1       3    4dyz              2.950008      -0.241786
                                                         1.563057       2.285709
                                                         0.666664       0.653124
                                                         0.251083       0.081185
                                                         0.081714       0.002412
                          1       3    4dz2              2.950008      -0.139595
                                                         1.563057       1.319655
                                                         0.666664       0.377081
                                                         0.251083       0.046872
                                                         0.081714       0.001393

       Atomic covalent radius [Angstrom]:                                  1.340

       Atomic van der Waals radius [Angstrom]:                             1.660

     GTH Potential information for                                   GTH-PBE-q11

       Description:                       Goedecker-Teter-Hutter pseudopotential
                                           Goedecker et al., PRB 54, 1703 (1996)
                                          Hartwigsen et al., PRB 58, 3641 (1998)
                                                      Krack, TCA 114, 145 (2005)

       Gaussian exponent of the core charge distribution:               1.436369
       Electronic configuration (s p d ...):                           1   0  10

       Parameters of the local part of the GTH pseudopotential:

                          rloc        C1          C2          C3          C4
                        0.590000   10.517179

       Parameters of the non-local part of the GTH pseudopotential:

                   l      r(l)      h(i,j,l)

                   0    0.543847    5.786811   -2.250680
                                   -2.250680    2.905615
                   1    0.609173    4.284049   -4.071285
                                   -4.071285    4.817210
                   2    0.437309   -7.403281    3.010193
                                    3.010193   -3.413238


 MOLECULE KIND INFORMATION


 All atoms are their own molecule, skipping detailed information


 TOTAL NUMBERS AND MAXIMUM NUMBERS

  Total number of            - Atomic kinds:                                   1
                             - Atoms:                                        165
                             - Shell sets:                                   165
                             - Shells:                                       495
                             - Primitive Cartesian functions:                825
                             - Cartesian basis functions:                   1650
                             - Spherical basis functions:                   1485

  Maximum angular momentum of- Orbital basis functions:                        2
                             - Local part of the GTH pseudopotential:          0
                             - Non-local part of the GTH pseudopotential:      4


 MODULE QUICKSTEP: ATOMIC COORDINATES IN ANGSTROM

   Atom Kind Element         X             Y             Z       Z(eff)     Mass
      1    1 Au   79      0.000000      0.000000      0.000000  11.0000 196.9666
      2    1 Au   79      0.000000      2.955000      0.000000  11.0000 196.9666
      3    1 Au   79      0.000000      5.911000      0.000000  11.0000 196.9666
      4    1 Au   79      2.956000      0.000000      0.000000  11.0000 196.9666
      5    1 Au   79      2.956000      2.955000      0.000000  11.0000 196.9666
      6    1 Au   79      2.956000      5.911000      0.000000  11.0000 196.9666
      7    1 Au   79      5.912000      0.000000      0.000000  11.0000 196.9666
      8    1 Au   79      5.912000      2.955000      0.000000  11.0000 196.9666
      9    1 Au   79      5.912000      5.911000      0.000000  11.0000 196.9666
     10    1 Au   79      8.670000      0.000000      0.000000  11.0000 196.9666
     11    1 Au   79      8.670000      2.955000      0.000000  11.0000 196.9666
     12    1 Au   79      8.670000      5.911000      0.000000  11.0000 196.9666
     13    1 Au   79     11.626000      0.000000      0.000000  11.0000 196.9666
     14    1 Au   79     11.626000      2.955000      0.000000  11.0000 196.9666
     15    1 Au   79     11.626000      5.911000      0.000000  11.0000 196.9666
     16    1 Au   79      1.478000      1.478000      2.090000  11.0000 196.9666
     17    1 Au   79      1.478000      4.433000      2.090000  11.0000 196.9666
     18    1 Au   79      1.478000      7.389000      2.090000  11.0000 196.9666
     19    1 Au   79      4.434000      1.478000      2.090000  11.0000 196.9666
     20    1 Au   79      4.434000      4.433000      2.090000  11.0000 196.9666
     21    1 Au   79      4.434000      7.389000      2.090000  11.0000 196.9666
     22    1 Au   79      7.192000      1.478000      2.090000  11.0000 196.9666
     23    1 Au   79      7.192000      4.433000      2.090000  11.0000 196.9666
     24    1 Au   79      7.192000      7.389000      2.090000  11.0000 196.9666
     25    1 Au   79     10.148000      1.478000      2.090000  11.0000 196.9666
     26    1 Au   79     10.148000      4.433000      2.090000  11.0000 196.9666
     27    1 Au   79     10.148000      7.389000      2.090000  11.0000 196.9666
     28    1 Au   79     13.104000      1.478000      2.090000  11.0000 196.9666
     29    1 Au   79     13.104000      4.433000      2.090000  11.0000 196.9666
     30    1 Au   79     13.104000      7.389000      2.090000  11.0000 196.9666
     31    1 Au   79      0.000000      0.000000      4.180000  11.0000 196.9666
     32    1 Au   79      0.000000      2.955000      4.180000  11.0000 196.9666
     33    1 Au   79      0.000000      5.911000      4.180000  11.0000 196.9666
     34    1 Au   79      2.956000      0.000000      4.180000  11.0000 196.9666
     35    1 Au   79      2.956000      2.955000      4.180000  11.0000 196.9666
     36    1 Au   79      2.956000      5.911000      4.180000  11.0000 196.9666
     37    1 Au   79      5.912000      0.000000      4.180000  11.0000 196.9666
     38    1 Au   79      5.912000      2.955000      4.180000  11.0000 196.9666
     39    1 Au   79      5.912000      5.911000      4.180000  11.0000 196.9666
     40    1 Au   79      8.670000      0.000000      4.180000  11.0000 196.9666
     41    1 Au   79      8.670000      2.955000      4.180000  11.0000 196.9666
     42    1 Au   79      8.670000      5.911000      4.180000  11.0000 196.9666
     43    1 Au   79     11.626000      0.000000      4.180000  11.0000 196.9666
     44    1 Au   79     11.626000      2.955000      4.180000  11.0000 196.9666
     45    1 Au   79     11.626000      5.911000      4.180000  11.0000 196.9666
     46    1 Au   79      1.478000      1.478000      6.270000  11.0000 196.9666
     47    1 Au   79      1.478000      4.433000      6.270000  11.0000 196.9666
     48    1 Au   79      1.478000      7.389000      6.270000  11.0000 196.9666
     49    1 Au   79      4.434000      1.478000      6.270000  11.0000 196.9666
     50    1 Au   79      4.434000      4.433000      6.270000  11.0000 196.9666
     51    1 Au   79      4.434000      7.389000      6.270000  11.0000 196.9666
     52    1 Au   79      7.192000      1.478000      6.270000  11.0000 196.9666
     53    1 Au   79      7.192000      4.433000      6.270000  11.0000 196.9666
     54    1 Au   79      7.192000      7.389000      6.270000  11.0000 196.9666
     55    1 Au   79     10.148000      1.478000      6.270000  11.0000 196.9666
     56    1 Au   79     10.148000      4.433000      6.270000  11.0000 196.9666
     57    1 Au   79     10.148000      7.389000      6.270000  11.0000 196.9666
     58    1 Au   79     13.104000      1.478000      6.270000  11.0000 196.9666
     59    1 Au   79     13.104000      4.433000      6.270000  11.0000 196.9666
     60    1 Au   79     13.104000      7.389000      6.270000  11.0000 196.9666
     61    1 Au   79      0.000000      0.000000      8.360000  11.0000 196.9666
     62    1 Au   79      0.000000      2.955000      8.360000  11.0000 196.9666
     63    1 Au   79      0.000000      5.911000      8.360000  11.0000 196.9666
     64    1 Au   79      2.956000      0.000000      8.360000  11.0000 196.9666
     65    1 Au   79      2.956000      2.955000      8.360000  11.0000 196.9666
     66    1 Au   79      2.956000      5.911000      8.360000  11.0000 196.9666
     67    1 Au   79      5.912000      0.000000      8.360000  11.0000 196.9666
     68    1 Au   79      5.912000      2.955000      8.360000  11.0000 196.9666
     69    1 Au   79      5.912000      5.911000      8.360000  11.0000 196.9666
     70    1 Au   79      8.670000      0.000000      8.360000  11.0000 196.9666
     71    1 Au   79      8.670000      2.955000      8.360000  11.0000 196.9666
     72    1 Au   79      8.670000      5.911000      8.360000  11.0000 196.9666
     73    1 Au   79     11.626000      0.000000      8.360000  11.0000 196.9666
     74    1 Au   79     11.626000      2.955000      8.360000  11.0000 196.9666
     75    1 Au   79     11.626000      5.911000      8.360000  11.0000 196.9666
     76    1 Au   79      1.478000      1.478000     10.450000  11.0000 196.9666
     77    1 Au   79      1.478000      4.433000     10.450000  11.0000 196.9666
     78    1 Au   79      1.478000      7.389000     10.450000  11.0000 196.9666
     79    1 Au   79      4.434000      1.478000     10.450000  11.0000 196.9666
     80    1 Au   79      4.434000      4.433000     10.450000  11.0000 196.9666
     81    1 Au   79      4.434000      7.389000     10.450000  11.0000 196.9666
     82    1 Au   79      7.192000      1.478000     10.450000  11.0000 196.9666
     83    1 Au   79      7.192000      4.433000     10.450000  11.0000 196.9666
     84    1 Au   79      7.192000      7.389000     10.450000  11.0000 196.9666
     85    1 Au   79     10.148000      1.478000     10.450000  11.0000 196.9666
     86    1 Au   79     10.148000      4.433000     10.450000  11.0000 196.9666
     87    1 Au   79     10.148000      7.389000     10.450000  11.0000 196.9666
     88    1 Au   79     13.104000      1.478000     10.450000  11.0000 196.9666
     89    1 Au   79     13.104000      4.433000     10.450000  11.0000 196.9666
     90    1 Au   79     13.104000      7.389000     10.450000  11.0000 196.9666
     91    1 Au   79      1.478000      1.478000     25.082000  11.0000 196.9666
     92    1 Au   79      1.478000      4.433000     25.082000  11.0000 196.9666
     93    1 Au   79      1.478000      7.389000     25.082000  11.0000 196.9666
     94    1 Au   79      4.434000      1.478000     25.082000  11.0000 196.9666
     95    1 Au   79      4.434000      4.433000     25.082000  11.0000 196.9666
     96    1 Au   79      4.434000      7.389000     25.082000  11.0000 196.9666
     97    1 Au   79      7.192000      1.478000     25.082000  11.0000 196.9666
     98    1 Au   79      7.192000      4.433000     25.082000  11.0000 196.9666
     99    1 Au   79      7.192000      7.389000     25.082000  11.0000 196.9666
    100    1 Au   79     10.148000      1.478000     25.082000  11.0000 196.9666
    101    1 Au   79     10.148000      4.433000     25.082000  11.0000 196.9666
    102    1 Au   79     10.148000      7.389000     25.082000  11.0000 196.9666
    103    1 Au   79     13.104000      1.478000     25.082000  11.0000 196.9666
    104    1 Au   79     13.104000      4.433000     25.082000  11.0000 196.9666
    105    1 Au   79     13.104000      7.389000     25.082000  11.0000 196.9666
    106    1 Au   79      0.000000      0.000000     27.172000  11.0000 196.9666
    107    1 Au   79      0.000000      2.955000     27.172000  11.0000 196.9666
    108    1 Au   79      0.000000      5.911000     27.172000  11.0000 196.9666
    109    1 Au   79      2.956000      0.000000     27.172000  11.0000 196.9666
    110    1 Au   79      2.956000      2.955000     27.172000  11.0000 196.9666
    111    1 Au   79      2.956000      5.911000     27.172000  11.0000 196.9666
    112    1 Au   79      5.912000      0.000000     27.172000  11.0000 196.9666
    113    1 Au   79      5.912000      2.955000     27.172000  11.0000 196.9666
    114    1 Au   79      5.912000      5.911000     27.172000  11.0000 196.9666
    115    1 Au   79      8.670000      0.000000     27.172000  11.0000 196.9666
    116    1 Au   79      8.670000      2.955000     27.172000  11.0000 196.9666
    117    1 Au   79      8.670000      5.911000     27.172000  11.0000 196.9666
    118    1 Au   79     11.626000      0.000000     27.172000  11.0000 196.9666
    119    1 Au   79     11.626000      2.955000     27.172000  11.0000 196.9666
    120    1 Au   79     11.626000      5.911000     27.172000  11.0000 196.9666
    121    1 Au   79      1.478000      1.478000     29.262000  11.0000 196.9666
    122    1 Au   79      1.478000      4.433000     29.262000  11.0000 196.9666
    123    1 Au   79      1.478000      7.389000     29.262000  11.0000 196.9666
    124    1 Au   79      4.434000      1.478000     29.262000  11.0000 196.9666
    125    1 Au   79      4.434000      4.433000     29.262000  11.0000 196.9666
    126    1 Au   79      4.434000      7.389000     29.262000  11.0000 196.9666
    127    1 Au   79      7.192000      1.478000     29.262000  11.0000 196.9666
    128    1 Au   79      7.192000      4.433000     29.262000  11.0000 196.9666
    129    1 Au   79      7.192000      7.389000     29.262000  11.0000 196.9666
    130    1 Au   79     10.148000      1.478000     29.262000  11.0000 196.9666
    131    1 Au   79     10.148000      4.433000     29.262000  11.0000 196.9666
    132    1 Au   79     10.148000      7.389000     29.262000  11.0000 196.9666
    133    1 Au   79     13.104000      1.478000     29.262000  11.0000 196.9666
    134    1 Au   79     13.104000      4.433000     29.262000  11.0000 196.9666
    135    1 Au   79     13.104000      7.389000     29.262000  11.0000 196.9666
    136    1 Au   79      0.000000      0.000000     31.352000  11.0000 196.9666
    137    1 Au   79      0.000000      2.955000     31.352000  11.0000 196.9666
    138    1 Au   79      0.000000      5.911000     31.352000  11.0000 196.9666
    139    1 Au   79      2.956000      0.000000     31.352000  11.0000 196.9666
    140    1 Au   79      2.956000      2.955000     31.352000  11.0000 196.9666
    141    1 Au   79      2.956000      5.911000     31.352000  11.0000 196.9666
    142    1 Au   79      5.912000      0.000000     31.352000  11.0000 196.9666
    143    1 Au   79      5.912000      2.955000     31.352000  11.0000 196.9666
    144    1 Au   79      5.912000      5.911000     31.352000  11.0000 196.9666
    145    1 Au   79      8.670000      0.000000     31.352000  11.0000 196.9666
    146    1 Au   79      8.670000      2.955000     31.352000  11.0000 196.9666
    147    1 Au   79      8.670000      5.911000     31.352000  11.0000 196.9666
    148    1 Au   79     11.626000      0.000000     31.352000  11.0000 196.9666
    149    1 Au   79     11.626000      2.955000     31.352000  11.0000 196.9666
    150    1 Au   79     11.626000      5.911000     31.352000  11.0000 196.9666
    151    1 Au   79      1.478000      1.478000     33.442000  11.0000 196.9666
    152    1 Au   79      1.478000      4.433000     33.442000  11.0000 196.9666
    153    1 Au   79      1.478000      7.389000     33.442000  11.0000 196.9666
    154    1 Au   79      4.434000      1.478000     33.442000  11.0000 196.9666
    155    1 Au   79      4.434000      4.433000     33.442000  11.0000 196.9666
    156    1 Au   79      4.434000      7.389000     33.442000  11.0000 196.9666
    157    1 Au   79      7.192000      1.478000     33.442000  11.0000 196.9666
    158    1 Au   79      7.192000      4.433000     33.442000  11.0000 196.9666
    159    1 Au   79      7.192000      7.389000     33.442000  11.0000 196.9666
    160    1 Au   79     10.148000      1.478000     33.442000  11.0000 196.9666
    161    1 Au   79     10.148000      4.433000     33.442000  11.0000 196.9666
    162    1 Au   79     10.148000      7.389000     33.442000  11.0000 196.9666
    163    1 Au   79     13.104000      1.478000     33.442000  11.0000 196.9666
    164    1 Au   79     13.104000      4.433000     33.442000  11.0000 196.9666
    165    1 Au   79     13.104000      7.389000     33.442000  11.0000 196.9666



 SCF PARAMETERS         Density guess:                                   RESTART
                        --------------------------------------------------------
                        max_scf:                                             500
                        max_scf_history:                                       0
                        max_diis:                                              4
                        --------------------------------------------------------
                        eps_scf:                                        1.00E-06
                        eps_scf_history:                                0.00E+00
                        eps_diis:                                       1.00E-01
                        eps_eigval:                                     1.00E-05
                        --------------------------------------------------------
                        level_shift [a.u.]:                             0.000000
                        added MOs                                       100    0
                        --------------------------------------------------------
                        Mixing method:                            BROYDEN_MIXING
                                                charge density mixing in g-space
                        --------------------------------------------------------
                        Smear method:                                FERMI_DIRAC
                        Electronic temperature [K]:                        300.0
                        Electronic temperature [a.u.]:                  9.50E-04
                        Accuracy threshold:                             1.00E-10
                        --------------------------------------------------------
                        No outer SCF

 PW_GRID| Information for grid number                                          1
 PW_GRID| Grid distributed over                                    64 processors
 PW_GRID| Real space group dimensions                                    64    1
 PW_GRID| the grid is blocked:                                                NO
 PW_GRID| Cutoff [a.u.]                                                    300.0
 PW_GRID| spherical cutoff:                                                   NO
 PW_GRID|   Bounds   1           -108     107                Points:         216
 PW_GRID|   Bounds   2            -66      65                Points:         132
 PW_GRID|   Bounds   3           -262     262                Points:         525
 PW_GRID| Volume element (a.u.^3)  0.2071E-02     Volume (a.u.^3)     30999.9563
 PW_GRID| Grid span                                                    FULLSPACE
 PW_GRID|   Distribution                         Average         Max         Min
 PW_GRID|   G-Vectors                           233887.5      233928      233712
 PW_GRID|   G-Rays                                1082.8        1083        1082
 PW_GRID|   Real Space Points                   233887.5      277200      207900

 PW_GRID| Information for grid number                                          2
 PW_GRID| Number of the reference grid                                         1
 PW_GRID| Grid distributed over                                    64 processors
 PW_GRID| Real space group dimensions                                    64    1
 PW_GRID| the grid is blocked:                                                NO
 PW_GRID| Cutoff [a.u.]                                                    100.0
 PW_GRID| spherical cutoff:                                                   NO
 PW_GRID|   Bounds   1            -63      62                Points:         126
 PW_GRID|   Bounds   2            -37      37                Points:          75
 PW_GRID|   Bounds   3           -154     153                Points:         308
 PW_GRID| Volume element (a.u.^3)  0.1065E-01     Volume (a.u.^3)     30999.9563
 PW_GRID| Grid span                                                    FULLSPACE
 PW_GRID|   Distribution                         Average         Max         Min
 PW_GRID|   G-Vectors                            45478.1       46746       44100
 PW_GRID|   G-Rays                                 360.9         371         350
 PW_GRID|   Real Space Points                    45478.1       46200       23100

 PW_GRID| Information for grid number                                          3
 PW_GRID| Number of the reference grid                                         1
 PW_GRID| Grid distributed over                                    64 processors
 PW_GRID| Real space group dimensions                                    64    1
 PW_GRID| the grid is blocked:                                                NO
 PW_GRID| Cutoff [a.u.]                                                     33.3
 PW_GRID| spherical cutoff:                                                   NO
 PW_GRID|   Bounds   1            -36      35                Points:          72
 PW_GRID|   Bounds   2            -22      21                Points:          44
 PW_GRID|   Bounds   3            -87      87                Points:         175
 PW_GRID| Volume element (a.u.^3)  0.5592E-01     Volume (a.u.^3)     30999.9563
 PW_GRID| Grid span                                                    FULLSPACE
 PW_GRID|   Distribution                         Average         Max         Min
 PW_GRID|   G-Vectors                             8662.5        9504        7992
 PW_GRID|   G-Rays                                 120.3         132         111
 PW_GRID|   Real Space Points                     8662.5       15400        7700

 PW_GRID| Information for grid number                                          4
 PW_GRID| Number of the reference grid                                         1
 PW_GRID| Grid distributed over                                    64 processors
 PW_GRID| Real space group dimensions                                     8    8
 PW_GRID| the grid is blocked:                                                NO
 PW_GRID| Cutoff [a.u.]                                                     11.1
 PW_GRID| spherical cutoff:                                                   NO
 PW_GRID|   Bounds   1            -21      20                Points:          42
 PW_GRID|   Bounds   2            -12      12                Points:          25
 PW_GRID|   Bounds   3            -52      52                Points:         105
 PW_GRID| Volume element (a.u.^3)  0.2812         Volume (a.u.^3)     30999.9563
 PW_GRID| Grid span                                                    FULLSPACE
 PW_GRID|   Distribution                         Average         Max         Min
 PW_GRID|   G-Vectors                             1722.7        2226        1134
 PW_GRID|   G-Rays                                  41.0          53          27
 PW_GRID|   Real Space Points                     1722.7        2520        1575

 POISSON| Solver                                                        PERIODIC
 POISSON| Periodicity                                                        XYZ

 RS_GRID| Information for grid number                                          1
 RS_GRID|   Bounds   1           -108     107                Points:         216
 RS_GRID|   Bounds   2            -66      65                Points:         132
 RS_GRID|   Bounds   3           -262     262                Points:         525
 RS_GRID| Real space distribution over                                  4 groups
 RS_GRID| Real space distribution along direction                              1
 RS_GRID| Border size                                                         35
 RS_GRID| Real space distribution over                                 16 groups
 RS_GRID| Real space distribution along direction                              3
 RS_GRID| Border size                                                         35
 RS_GRID|   Distribution                         Average         Max         Min
 RS_GRID|   Planes                                 124.0         124         124
 RS_GRID|   Distribution                         Average         Max         Min
 RS_GRID|   Planes                                 102.8         103         102

 RS_GRID| Information for grid number                                          2
 RS_GRID|   Bounds   1            -63      62                Points:         126
 RS_GRID|   Bounds   2            -37      37                Points:          75
 RS_GRID|   Bounds   3           -154     153                Points:         308
 RS_GRID| Real space distribution over                                  4 groups
 RS_GRID| Real space distribution along direction                              1
 RS_GRID| Border size                                                         24
 RS_GRID| Real space distribution over                                 16 groups
 RS_GRID| Real space distribution along direction                              3
 RS_GRID| Border size                                                         24
 RS_GRID|   Distribution                         Average         Max         Min
 RS_GRID|   Planes                                  79.5          80          79
 RS_GRID|   Distribution                         Average         Max         Min
 RS_GRID|   Planes                                  67.2          68          67

 RS_GRID| Information for grid number                                          3
 RS_GRID|   Bounds   1            -36      35                Points:          72
 RS_GRID|   Bounds   2            -22      21                Points:          44
 RS_GRID|   Bounds   3            -87      87                Points:         175
 RS_GRID| Real space fully replicated
 RS_GRID| Group size                                                           1

 RS_GRID| Information for grid number                                          4
 RS_GRID|   Bounds   1            -21      20                Points:          42
 RS_GRID|   Bounds   2            -12      12                Points:          25
 RS_GRID|   Bounds   3            -52      52                Points:         105
 RS_GRID| Real space fully replicated
 RS_GRID| Group size                                                           1

 KPOINTS| Number of kpoint groups                                              1
 KPOINTS| Size of each kpoint group                                           64
 KPOINTS| Number of kpoints per group                                          1

 Number of electrons:                                                       1815
 Number of occupied orbitals:                                                908
 Number of molecular orbitals:                                              1008

 Number of orbital functions:                                               1485
 Number of independent orbital functions:                                   1485

 Extrapolation method: initial_guess

 *** WARNING in qs_initial_guess.F:310 :: User requested to restart the   ***
 *** wavefunction from the file named: 2_dft_wfn-RESTART_0.kp. This file  ***
 *** does not exist. Please check the existence of the file or change     ***
 *** properly the value of the keyword WFN_RESTART_FILE_NAME. Calculation ***
 *** continues using ATOMIC GUESS.                                        ***


 Atomic guess: The first density matrix is obtained in terms of atomic orbitals
               and electronic configurations assigned to each atomic kind

 Guess for atomic kind: Au

 Electronic structure
    Total number of core electrons                                         68.00
    Total number of valence electrons                                      11.00
    Total number of electrons                                              79.00
    Multiplicity                                                   not specified
    S   [  2.00  2.00  2.00  2.00  2.00] 1.00
    P   [  6.00  6.00  6.00  6.00]
    D   [ 10.00 10.00]10.00
    F   [ 14.00]


 *******************************************************************************
                  Iteration          Convergence                     Energy [au]
 *******************************************************************************
                          1         0.00000                     -32.925420860277

 Energy components [Hartree]           Total Energy ::          -32.925420860277
                                        Band Energy ::           -1.039708645574
                                     Kinetic Energy ::           24.744064437587
                                   Potential Energy ::          -57.669485297863
                                      Virial (-V/T) ::            2.330639149576
                                        Core Energy ::          -60.089512277916
                                          XC Energy ::           -5.116883226844
                                     Coulomb Energy ::           32.280974644483
                       Total Pseudopotential Energy ::          -84.935087836392
                       Local Pseudopotential Energy ::          -67.537295193389
                    Nonlocal Pseudopotential Energy ::          -17.397792643003
                                        Confinement ::            1.015111208892

 Orbital energies  State     L     Occupation   Energy[a.u.]          Energy[eV]

                       1     0          1.000      -0.207365           -5.642685

                       1     2         10.000      -0.083234           -2.264923


 Total Electron Density at R=0:                                         0.000035
 Re-scaling the density matrix to get the right number of electrons
                  # Electrons              Trace(P)               Scaling factor
                         1815              1815.000                        1.000


 SCF WAVEFUNCTION OPTIMIZATION

  Step     Update method      Time    Convergence         Total energy    Change
  ------------------------------------------------------------------------------
 SMEAGOL DEBUG| Number of electrons in the unit cell =      1814.9999999811
     1 NoMix/SMGL  0.30E+00   25.8     1.97056880     -5486.9653760462 -5.49E+03
 SMEAGOL DEBUG| Number of electrons in the unit cell =      1817.4902368053
     2 Broy./SMGL  0.30E+00    2.2     0.09560342     -5561.0279876806 -7.41E+01
 SMEAGOL DEBUG| Number of electrons in the unit cell =      1816.1669865488
     3 Broy./SMGL  0.30E+00    2.2     0.24137526     -5541.3377132398  1.97E+01
 SMEAGOL DEBUG| Number of electrons in the unit cell =      1814.5309098673
     4 Broy./SMGL  0.30E+00    2.2     0.27542353     -5532.0869632860  9.25E+00
 SMEAGOL DEBUG| Number of electrons in the unit cell =      1815.6422653846
     5 Broy./SMGL  0.30E+00    2.2     0.04748739     -5494.8639509550  3.72E+01
 SMEAGOL DEBUG| Number of electrons in the unit cell =      1815.8606593404
     6 Broy./SMGL  0.30E+00    2.2     0.03448392     -5485.5937966174  9.27E+00
 SMEAGOL DEBUG| Number of electrons in the unit cell =      1815.1915458274
     7 Broy./SMGL  0.30E+00    2.2     0.02029967     -5486.4378638694 -8.44E-01
 SMEAGOL DEBUG| Number of electrons in the unit cell =      1814.8414921826
     8 Broy./SMGL  0.30E+00    2.2     0.02265891     -5485.8210855176  6.17E-01
 SMEAGOL DEBUG| Number of electrons in the unit cell =      1814.8765255583
     9 Broy./SMGL  0.30E+00    2.2     0.00254354     -5485.0297613092  7.91E-01
 SMEAGOL DEBUG| Number of electrons in the unit cell =      1815.0429062878
    10 Broy./SMGL  0.30E+00    2.2     0.00257452     -5484.9284180906  1.01E-01
 SMEAGOL DEBUG| Number of electrons in the unit cell =      1815.0776528523
    11 Broy./SMGL  0.30E+00    2.3     0.00156307     -5485.0340130678 -1.06E-01
 SMEAGOL DEBUG| Number of electrons in the unit cell =      1815.0925360698
    12 Broy./SMGL  0.30E+00    2.3     0.00129449     -5484.9695986112  6.44E-02
 SMEAGOL DEBUG| Number of electrons in the unit cell =      1815.0844700767
    13 Broy./SMGL  0.30E+00    2.3     0.00092701     -5484.9172225025  5.24E-02
 SMEAGOL DEBUG| Number of electrons in the unit cell =      1815.0980753169
    14 Broy./SMGL  0.30E+00    2.3     0.00078472     -5484.8452359343  7.20E-02
 SMEAGOL DEBUG| Number of electrons in the unit cell =      1815.0663258100
    15 Broy./SMGL  0.30E+00    2.3     0.00048598     -5484.8269616512  1.83E-02
 SMEAGOL DEBUG| Number of electrons in the unit cell =      1815.0476873839
    16 Broy./SMGL  0.30E+00    2.3     0.00035936     -5484.8021552882  2.48E-02
 SMEAGOL DEBUG| Number of electrons in the unit cell =      1815.0367731036
    17 Broy./SMGL  0.30E+00    2.3     0.00015848     -5484.7866946662  1.55E-02
 SMEAGOL DEBUG| Number of electrons in the unit cell =      1815.0472453759
    18 Broy./SMGL  0.30E+00    2.3     0.00021613     -5484.7928336623 -6.14E-03
 SMEAGOL DEBUG| Number of electrons in the unit cell =      1815.0533275656
    19 Broy./SMGL  0.30E+00    2.3     0.00022021     -5484.8061906246 -1.34E-02
 SMEAGOL DEBUG| Number of electrons in the unit cell =      1815.0578517320
    20 Broy./SMGL  0.30E+00    2.3     0.00006893     -5484.8051304287  1.06E-03
 SMEAGOL DEBUG| Number of electrons in the unit cell =      1815.0575129482
    21 Broy./SMGL  0.30E+00    2.3     0.00005744     -5484.8041242624  1.01E-03
 SMEAGOL DEBUG| Number of electrons in the unit cell =      1815.0565271619
    22 Broy./SMGL  0.30E+00    2.3     0.00002053     -5484.8004550461  3.67E-03
 SMEAGOL DEBUG| Number of electrons in the unit cell =      1815.0571888288
    23 Broy./SMGL  0.30E+00    2.3     0.00002175     -5484.7978095267  2.65E-03
 SMEAGOL DEBUG| Number of electrons in the unit cell =      1815.0568677814
    24 Broy./SMGL  0.30E+00    2.3     0.00002879     -5484.7962582121  1.55E-03
 SMEAGOL DEBUG| Number of electrons in the unit cell =      1815.0572751212
    25 Broy./SMGL  0.30E+00    2.3     0.00001731     -5484.7955877484  6.70E-04
 SMEAGOL DEBUG| Number of electrons in the unit cell =      1815.0574883788
    26 Broy./SMGL  0.30E+00    2.3     0.00002090     -5484.7954744740  1.13E-04
 SMEAGOL DEBUG| Number of electrons in the unit cell =      1815.0575996570
    27 Broy./SMGL  0.30E+00    2.3     0.00001189     -5484.7968445579 -1.37E-03
 SMEAGOL DEBUG| Number of electrons in the unit cell =      1815.0572004872
    28 Broy./SMGL  0.30E+00    2.3     0.00000361     -5484.7966659707  1.79E-04
 SMEAGOL DEBUG| Number of electrons in the unit cell =      1815.0570614248
    29 Broy./SMGL  0.30E+00    2.3     0.00000739     -5484.7967435109 -7.75E-05
 SMEAGOL DEBUG| Number of electrons in the unit cell =      1815.0570393129
    30 Broy./SMGL  0.30E+00    2.3     0.00000405     -5484.7967245129  1.90E-05
 SMEAGOL DEBUG| Number of electrons in the unit cell =      1815.0569499279
    31 Broy./SMGL  0.30E+00    2.3     0.00000580     -5484.7967843083 -5.98E-05
 SMEAGOL DEBUG| Number of electrons in the unit cell =      1815.0569529339
    32 Broy./SMGL  0.30E+00    2.3     0.00000128     -5484.7967438386  4.05E-05
 SMEAGOL DEBUG| Number of electrons in the unit cell =      1815.0569384972
    33 Broy./SMGL  0.30E+00    2.3     0.00000117     -5484.7967028002  4.10E-05
 SMEAGOL DEBUG| Number of electrons in the unit cell =      1815.0568774779
    34 Broy./SMGL  0.30E+00    2.3     0.00000073     -5484.7967181429 -1.53E-05

  *** SCF run converged in    34 steps ***


  Electronic density on regular grids:      -1815.0568774779       -0.0568774779
  Core density on regular grids:             1814.9999997022       -0.0000002978
  Total charge density on r-space grids:       -0.0568777757
  Total charge density g-space grids:          -0.0568777757

  Overlap energy of the core charge distribution:               0.00000083752787
  Self energy of the core charge distribution:              -9545.80087756860667
  Core Hamiltonian energy:                                   3052.04298950547036
  Hartree energy:                                            1876.49880018218619
  Exchange-correlation energy:                               -867.53763109943338
  Electronic entropic energy:                                   0.00000000000000
  Fermi energy:                                                 0.00000000000000

  Total energy:                                             -5484.79671814285484

 The electron density is written in cube file format to the file:

 0V-ELECTRON_DENSITY-1_0.cube

 !-----------------------------------------------------------------------------!
                     Mulliken Population Analysis

 #  Atom  Element  Kind  Atomic population                           Net charge
       1     Au       1         11.000732                             -0.000732
       2     Au       1         11.000934                             -0.000934
       3     Au       1         11.001162                             -0.001162
       4     Au       1         11.016562                             -0.016562
       5     Au       1         11.016774                             -0.016774
       6     Au       1         11.016984                             -0.016984
       7     Au       1         10.966120                              0.033880
       8     Au       1         10.966290                              0.033710
       9     Au       1         10.966603                              0.033397
      10     Au       1         11.004611                             -0.004611
      11     Au       1         11.004797                             -0.004797
      12     Au       1         11.004997                             -0.004997
      13     Au       1         11.010904                             -0.010904
      14     Au       1         11.011112                             -0.011112
      15     Au       1         11.011337                             -0.011337
      16     Au       1         11.011075                             -0.011075
      17     Au       1         11.011507                             -0.011507
      18     Au       1         11.011284                             -0.011284
      19     Au       1         11.004762                             -0.004762
      20     Au       1         11.005145                             -0.005145
      21     Au       1         11.004946                             -0.004946
      22     Au       1         10.966292                              0.033708
      23     Au       1         10.966777                              0.033223
      24     Au       1         10.966463                              0.033537
      25     Au       1         11.016701                             -0.016701
      26     Au       1         11.017123                             -0.017123
      27     Au       1         11.016915                             -0.016915
      28     Au       1         11.000910                             -0.000910
      29     Au       1         11.001340                             -0.001340
      30     Au       1         11.001112                             -0.001112
      31     Au       1         10.998543                              0.001457
      32     Au       1         10.998750                              0.001250
      33     Au       1         10.998978                              0.001022
      34     Au       1         11.014695                             -0.014695
      35     Au       1         11.014915                             -0.014915
      36     Au       1         11.015124                             -0.015124
      37     Au       1         10.962975                              0.037025
      38     Au       1         10.963152                              0.036848
      39     Au       1         10.963466                              0.036534
      40     Au       1         11.002087                             -0.002087
      41     Au       1         11.002279                             -0.002279
      42     Au       1         11.002478                             -0.002478
      43     Au       1         11.008984                             -0.008984
      44     Au       1         11.009198                             -0.009198
      45     Au       1         11.009422                             -0.009422
      46     Au       1         10.993045                              0.006955
      47     Au       1         10.993495                              0.006505
      48     Au       1         10.993260                              0.006740
      49     Au       1         10.983239                              0.016761
      50     Au       1         10.983646                              0.016354
      51     Au       1         10.983435                              0.016565
      52     Au       1         10.945947                              0.054053
      53     Au       1         10.946456                              0.053544
      54     Au       1         10.946129                              0.053871
      55     Au       1         10.998218                              0.001782
      56     Au       1         10.998660                              0.001340
      57     Au       1         10.998440                              0.001560
      58     Au       1         10.983002                              0.016998
      59     Au       1         10.983453                              0.016547
      60     Au       1         10.983221                              0.016779
      61     Au       1         10.950824                              0.049176
      62     Au       1         10.951070                              0.048930
      63     Au       1         10.951318                              0.048682
      64     Au       1         10.967705                              0.032295
      65     Au       1         10.967961                              0.032039
      66     Au       1         10.968192                              0.031808
      67     Au       1         10.908488                              0.091512
      68     Au       1         10.908713                              0.091287
      69     Au       1         10.909042                              0.090958
      70     Au       1         10.947721                              0.052279
      71     Au       1         10.947951                              0.052049
      72     Au       1         10.948175                              0.051825
      73     Au       1         10.963303                              0.036697
      74     Au       1         10.963555                              0.036445
      75     Au       1         10.963800                              0.036200
      76     Au       1         11.078811                             -0.078811
      77     Au       1         11.078990                             -0.078990
      78     Au       1         11.078968                             -0.078968
      79     Au       1         11.069294                             -0.069294
      80     Au       1         11.069468                             -0.069468
      81     Au       1         11.069452                             -0.069452
      82     Au       1         11.071002                             -0.071002
      83     Au       1         11.071200                             -0.071200
      84     Au       1         11.071157                             -0.071157
      85     Au       1         11.081632                             -0.081632
      86     Au       1         11.081808                             -0.081808
      87     Au       1         11.081792                             -0.081792
      88     Au       1         11.074350                             -0.074350
      89     Au       1         11.074532                             -0.074532
      90     Au       1         11.074508                             -0.074508
      91     Au       1         10.987906                              0.012094
      92     Au       1         10.988174                              0.011826
      93     Au       1         10.988068                              0.011932
      94     Au       1         10.983027                              0.016973
      95     Au       1         10.983273                              0.016727
      96     Au       1         10.983171                              0.016829
      97     Au       1         10.966042                              0.033958
      98     Au       1         10.966334                              0.033666
      99     Au       1         10.966191                              0.033809
     100     Au       1         10.991081                              0.008919
     101     Au       1         10.991343                              0.008657
     102     Au       1         10.991244                              0.008756
     103     Au       1         10.980920                              0.019080
     104     Au       1         10.981192                              0.018808
     105     Au       1         10.981081                              0.018919
     106     Au       1         11.025809                             -0.025809
     107     Au       1         11.026026                             -0.026026
     108     Au       1         11.026247                             -0.026247
     109     Au       1         11.036773                             -0.036773
     110     Au       1         11.036995                             -0.036995
     111     Au       1         11.037200                             -0.037200
     112     Au       1         10.986330                              0.013670
     113     Au       1         10.986517                              0.013483
     114     Au       1         10.986827                              0.013173
     115     Au       1         11.022207                             -0.022207
     116     Au       1         11.022405                             -0.022405
     117     Au       1         11.022606                             -0.022606
     118     Au       1         11.036128                             -0.036128
     119     Au       1         11.036344                             -0.036344
     120     Au       1         11.036560                             -0.036560
     121     Au       1         11.010190                             -0.010190
     122     Au       1         11.010619                             -0.010619
     123     Au       1         11.010402                             -0.010402
     124     Au       1         11.002339                             -0.002339
     125     Au       1         11.002722                             -0.002722
     126     Au       1         11.002528                             -0.002528
     127     Au       1         10.964405                              0.035595
     128     Au       1         10.964888                              0.035112
     129     Au       1         10.964581                              0.035419
     130     Au       1         11.015272                             -0.015272
     131     Au       1         11.015692                             -0.015692
     132     Au       1         11.015490                             -0.015490
     133     Au       1         10.999564                              0.000436
     134     Au       1         10.999992                              0.000008
     135     Au       1         10.999770                              0.000230
     136     Au       1         11.000656                             -0.000656
     137     Au       1         11.000858                             -0.000858
     138     Au       1         11.001086                             -0.001086
     139     Au       1         11.016508                             -0.016508
     140     Au       1         11.016723                             -0.016723
     141     Au       1         11.016931                             -0.016931
     142     Au       1         10.965993                              0.034007
     143     Au       1         10.966165                              0.033835
     144     Au       1         10.966478                              0.033522
     145     Au       1         11.004503                             -0.004503
     146     Au       1         11.004688                             -0.004688
     147     Au       1         11.004887                             -0.004887
     148     Au       1         11.010856                             -0.010856
     149     Au       1         11.011065                             -0.011065
     150     Au       1         11.011289                             -0.011289
     151     Au       1         11.010909                             -0.010909
     152     Au       1         11.011342                             -0.011342
     153     Au       1         11.011117                             -0.011117
     154     Au       1         11.004621                             -0.004621
     155     Au       1         11.005005                             -0.005005
     156     Au       1         11.004807                             -0.004807
     157     Au       1         10.966127                              0.033873
     158     Au       1         10.966612                              0.033388
     159     Au       1         10.966297                              0.033703
     160     Au       1         11.016565                             -0.016565
     161     Au       1         11.016989                             -0.016989
     162     Au       1         11.016779                             -0.016779
     163     Au       1         11.000736                             -0.000736
     164     Au       1         11.001167                             -0.001167
     165     Au       1         11.000938                             -0.000938
 # Total charge                           1815.056911                 -0.056911

 !-----------------------------------------------------------------------------!

 ENERGY| Total FORCE_EVAL ( QS ) energy [a.u.]:            -5484.796718142854843

 -------------------------------------------------------------------------------
 -                                                                             -
 -                                DBCSR STATISTICS                             -
 -                                                                             -
 -------------------------------------------------------------------------------
 COUNTER                                    TOTAL       BLAS       SMM       ACC
 flops inhomo. stacks                           0       0.0%      0.0%      0.0%
 flops total                         0.000000E+00       0.0%      0.0%      0.0%
 flops max/rank                      0.000000E+00       0.0%      0.0%      0.0%
 matmuls inhomo. stacks                         0       0.0%      0.0%      0.0%
 matmuls total                                  0       0.0%      0.0%      0.0%
 number of processed stacks                     0       0.0%      0.0%      0.0%
 average stack size                                     0.0       0.0       0.0
 marketing flops                     0.000000E+00
 -------------------------------------------------------------------------------
 -                                                                             -
 -                      DBCSR MESSAGE PASSING PERFORMANCE                      -
 -                                                                             -
 -------------------------------------------------------------------------------
 ROUTINE             CALLS      AVE VOLUME [Bytes]
 MP_Bcast                1                     12.
 MP_Allreduce         1040                      8.
 MP_Alltoall           360                 120452.
 -------------------------------------------------------------------------------

 -------------------------------------------------------------------------------
 -                                                                             -
 -                                DBM STATISTICS                               -
 -                                                                             -
 -------------------------------------------------------------------------------
    M  x    N  x    K                                          COUNT     PERCENT
 -------------------------------------------------------------------------------

 -------------------------------------------------------------------------------
 -                                                                             -
 -                                GRID STATISTICS                              -
 -                                                                             -
 -------------------------------------------------------------------------------
 LP    KERNEL             BACKEND                              COUNT     PERCENT
 4     collocate ortho    REF                                4885860      49.80%
 4     integrate ortho    REF                                4746264      48.37%
 0     collocate general  REF                                  95040       0.97%
 0     integrate general  REF                                  84480       0.86%
 -------------------------------------------------------------------------------

 MEMORY| Estimated peak process memory [MiB]                                1024

 -------------------------------------------------------------------------------
 ----                             MULTIGRID INFO                            ----
 -------------------------------------------------------------------------------
 count for grid        1:          14205          cutoff [a.u.]          300.00
 count for grid        2:          70569          cutoff [a.u.]          100.00
 count for grid        3:          47328          cutoff [a.u.]           33.33
 count for grid        4:          68934          cutoff [a.u.]           11.11
 total gridlevel count  :         201036

 -------------------------------------------------------------------------------
 -                                                                             -
 -                         MESSAGE PASSING PERFORMANCE                         -
 -                                                                             -
 -------------------------------------------------------------------------------

 ROUTINE             CALLS      AVE VOLUME [Bytes]
 MP_Group                5
 MP_Bcast             2330                 114815.
 MP_Allreduce         1400                   1139.
 MP_Sync                 4
 MP_Alltoall           770                9946505.
 MP_ISendRecv         8694                  71680.
 MP_Wait             12464
 MP_ISend             7318                 170012.
 MP_IRecv             8038                 154749.
 MP_Recv              1380                 380160.
 MP_Write_All            2                  57354.
 -------------------------------------------------------------------------------


 -------------------------------------------------------------------------------
 -                                                                             -
 -                           R E F E R E N C E S                               -
 -                                                                             -
 -------------------------------------------------------------------------------
 
 CP2K version 2022.1 (Development Version), the CP2K developers group (2022).
 CP2K is freely available from https://www.cp2k.org/ .

 Kuehne,Thomas D.; Iannuzzi,Marcella; Del Ben,Mauro;
 Rybkin,Vladimir V.; Seewald,Patrick; Stein,Frederick; Laino,Teodoro;
 Khaliullin,Rustam Z.; Schuett,Ole; Schiffmann,Florian; Golze,Dorothea;
 Wilhelm,Jan; Chulkov,Sergey; Bani-Hashemian,Mohammad Hossein;
 Weber,Valery; Borstnik,Urban; Taillefumier,Mathieu;
 Jakobovits,Alice Shoshana; Lazzaro,Alfio; Pabst,Hans; Mueller,Tiziano;
 Schade,Robert; Guidon,Manuel; Andermatt,Samuel; Holmberg,Nico;
 Schenter,Gregory K.; Hehn,Anna; Bussy,Augustin; Belleflamme,Fabian;
 Tabacchi,Gloria; Gloess,Andreas; Lass,Michael; Bethune,Iain;
 Mundy,Christopher J.; Plessl,Christian; Watkins,Matt;
 VandeVondele,Joost; Krack,Matthias; Hutter,Juerg. 
 The Journal of Chemical Physics, 152 (19), (2020). 
 CP2K: An electronic structure and molecular dynamics software package -
 Quickstep: Efficient and accurate electronic structure calculations.
 https://doi.org/10.1063/5.0007045

 Schuett, Ole; Messmer, Peter; Hutter, Juerg; VandeVondele, Joost. 
 Electronic Structure Calculations on Graphics Processing Units, John
 Wiley & Sons, Ltd, 173-190 (2016). 
 GPU-Accelerated Sparse Matrix-Matrix Multiplication for
 Linear Scaling Density Functional Theory.
 https://doi.org/10.1002/9781118670712.ch8

 Heinecke, A; Henry, G; Hutchinson, M; Pabst, H. 
 Proceedings of Intl. Supercomputing Conference, 981-991 (2016). 
 LIBXSMM: Accelerating Small Matrix Multiplications
 by Runtime Code Generation.
 https://doi.org/10.1109/SC.2016.83

 Borstnik, U; VandeVondele, J; Weber, V; Hutter, J. 
 PARALLEL COMPUTING, 40 (5-6), 47-58 (2014). 
 Sparse matrix multiplication: The distributed block-compressed sparse
 row library.
 https://doi.org/10.1016/j.parco.2014.03.012

 Hutter, J; Iannuzzi, M; Schiffmann, F; VandeVondele, J. 
 WIREs Comput Mol Sci., 4 (1), 15-25 (2014). 
 CP2K: atomistic simulations of condensed matter systems.
 https://doi.org/10.1002/wcms.1159

 VandeVondele, J; Hutter, J. 
 JOURNAL OF CHEMICAL PHYSICS, 127 (11), 114105 (2007). 
 Gaussian basis sets for accurate calculations on molecular systems in
 gas and condensed phases.
 https://doi.org/10.1063/1.2770708

 Krack, M. 
 THEORETICAL CHEMISTRY ACCOUNTS, 114 (1-3), 145-152 (2005). 
 Pseudopotentials for H to Kr optimized for gradient-corrected
 exchange-correlation functionals.
 https://doi.org/10.1007/s00214-005-0655-y

 VandeVondele, J; Krack, M; Mohamed, F; Parrinello, M; Chassaing, T;
 Hutter, J. COMPUTER PHYSICS COMMUNICATIONS, 167 (2), 103-128 (2005). 
 QUICKSTEP: Fast and accurate density functional calculations using a
 mixed Gaussian and plane waves approach.
 https://doi.org/10.1016/j.cpc.2004.12.014

 Frigo, M; Johnson, SG. 
 PROCEEDINGS OF THE IEEE, 93 (2), 216-231 (2005). 
 The design and implementation of FFTW3.
 https://doi.org/10.1109/JPROC.2004.840301

 Hartwigsen, C; Goedecker, S; Hutter, J. 
 PHYSICAL REVIEW B, 58 (7), 3641-3662 (1998). 
 Relativistic separable dual-space Gaussian pseudopotentials from H to Rn.
 https://doi.org/10.1103/PhysRevB.58.3641

 Lippert, G; Hutter, J; Parrinello, M. 
 MOLECULAR PHYSICS, 92 (3), 477-487 (1997). 
 A hybrid Gaussian and plane wave density functional scheme.
 https://doi.org/10.1080/002689797170220

 Perdew, JP; Burke, K; Ernzerhof, M. 
 PHYSICAL REVIEW LETTERS, 77 (18), 3865-3868 (1996). 
 Generalized gradient approximation made simple.
 https://doi.org/10.1103/PhysRevLett.77.3865

 Goedecker, S; Teter, M; Hutter, J. 
 PHYSICAL REVIEW B, 54 (3), 1703-1710 (1996). 
 Separable dual-space Gaussian pseudopotentials.
 https://doi.org/10.1103/PhysRevB.54.1703


 -------------------------------------------------------------------------------
 -                                                                             -
 -                                T I M I N G                                  -
 -                                                                             -
 -------------------------------------------------------------------------------
 SUBROUTINE                       CALLS  ASD         SELF TIME        TOTAL TIME
                                MAXIMUM       AVERAGE  MAXIMUM  AVERAGE  MAXIMUM
 CP2K                                 1  1.0    0.006    0.011  103.245  103.256
 qs_energies                          1  2.0    0.000    0.000  103.122  103.123
 scf_env_do_scf                       1  3.0    0.000    0.000  100.657  100.661
 scf_env_do_scf_inner_loop           34  4.0    0.001    0.003  100.657  100.660
 run_smeagol_emtrans                 35  5.9   80.025   80.236   80.928   80.933
 qs_scf_new_mos_kp                   34  5.0    0.000    0.000   80.209   80.213
 qs_ks_update_qs_env                 34  5.0    0.000    0.000   12.226   12.228
 rebuild_ks_matrix                   34  6.0    0.000    0.000   12.182   12.184
 qs_ks_build_kohn_sham_matrix        34  7.0    0.087    0.197   12.182   12.184
 pw_transfer                        685  9.9    0.020    0.024    7.903    8.112
 fft_wrap_pw1pw2                    617 11.0    0.004    0.005    7.832    8.040
 fft_wrap_pw1pw2_300                410 12.3    0.474    0.527    7.451    7.662
 qs_vxc_create                       34  8.0    0.000    0.000    7.261    7.263
 xc_vxc_pw_create                    34  9.0    0.075    0.088    7.261    7.263
 fft3d_ps                           617 13.0    3.339    3.737    6.240    6.521
 qs_rho_update_rho_low               35  5.0    0.000    0.000    6.160    6.164
 calculate_rho_elec                  35  6.0    0.040    0.048    6.160    6.164
 xc_rho_set_and_dset_create          34 10.0    0.060    0.071    4.153    4.606
 xc_pw_derive                       204 11.0    0.001    0.001    4.294    4.557
 sum_up_and_integrate                34  8.0    0.014    0.016    3.927    3.930
 integrate_v_rspace                  34  9.0    0.001    0.001    3.913    3.916
 grid_collocate_task_list            35  7.0    3.759    3.829    3.759    3.829
 xc_pw_divergence                    34 10.0    0.001    0.001    2.936    3.187
 mp_alltoall_z22v                   617 15.0    2.132    2.715    2.132    2.715
 xc_functional_eval                  34 11.0    0.000    0.000    2.039    2.443
 pbe_lda_eval                        34 12.0    2.039    2.442    2.039    2.442
 density_rs2pw                       35  7.0    0.001    0.001    2.281    2.404
 rs_pw_transfer                     279  9.4    0.002    0.002    2.028    2.273
 grid_integrate_task_list            34 10.0    2.121    2.153    2.121    2.153
 -------------------------------------------------------------------------------

 The number of warnings for this run is : 2
 
 -------------------------------------------------------------------------------
  **** **** ******  **  PROGRAM ENDED AT                 2024-01-09 17:18:05.780
 ***** ** ***  *** **   PROGRAM RAN ON                               hx1-c08-1-1
 **    ****   ******    PROGRAM RAN BY                                    cahart
 ***** **    ** ** **   PROGRAM PROCESS ID                               2135308
  **** **  *******  **  PROGRAM STOPPED IN /gpfs/home/cahart/transport/melamine/
                                           au_from-h2/capacitor/sz_kpoints-1-1-2
                                           0
