SIESTA 1.3.7  -- [1.3f1 release] (04 Feb 2004)
Architecture  : 
Compiler flags:  -O3
PARALLEL version

* Running on    4 nodes in parallel
>> Start of run:   7-NOV-2013  16:03:22

                           ***********************       
                           *  WELCOME TO SIESTA  *       
                           ***********************       

reinit: Reading from standard input
************************** Dump of input data file ****************************
#
SystemName                   mol            # Descriptive name of the system
SystemLabel                  mol            # Short name for naming files
NumberOfSpecies              1             # Number of species
NumberOfAtoms                2           # Number of atoms
%block ChemicalSpeciesLabel
 1    1   H
%endblock ChemicalSpeciesLabel
# ps
%block Ps.lmax
  H     3
%endblock Ps.lmax
# Basis
PAO.BasisType                split         # Type of basis ('nones', 'nonodes', 'split')
PAO.SplitNorm  0.15
%block PAO.Basis                           # basis
H     2      0.00
 n=1    0    2   E      2.07      0.50
   5.75  1.5
   1.000   1.000
 n=2    1    1   E      0.89      0.01
   5.500
   1.000
%endblock PAO.Basis
# lattice vectors
LatticeConstant              1.0 Ang
%block LatticeVectors
         8.86712000        0.00000000        0.00000000
         0.00000        8.86712000        0.00000000
         0.00000000        0.00000000       38.72
%endblock LatticeVectors
# coordinates
AtomicCoordinatesFormat      Ang
%block AtomicCoordinatesAndAtomicSpecies
    3.25353201    5.72009504   18.92650888   1  H         61
    3.26037283    5.72625871   19.79615533   1  H         62
%endblock AtomicCoordinatesAndAtomicSpecies
# constrains in relaxation
%block GeometryConstraints
   position 1
%endblock GeometryConstraints
# real space mesh grid
MeshCutoff                   800.0 Ry
%block GridCellSampling
  0.5  0.5   0.0
  0.5  0.0   0.5
  0.0  0.5   0.5
%endblock GridCellSampling
# reciprocal space
%block kgrid_Monkhorst_Pack
  1   0   0    0.0
  0   1   0    0.0
  0   0   1    0.0
%endblock kgrid_Monkhorst_Pack
#ProcessorY                   4
#BlockSize                    100
%block ExternalElectricField
   0.000 0.000 5.0 V/Ang
%endblock ExternalElectricField
# functional
xc.functional                GGA           # 'LDA', 'GGA'
xc.authors                   PBE           # 'CA'='PZ', 'PW92', 'PBE'
# scf
MaxSCFIterations             300
DM.MixingWeight              0.02
DM.Tolerance                 1.0E-4
DM.UseSaveDM                 T
DM.NumberPulay               6             # Pulay convergency accelerator
SolutionMethod               diagon
ElectronicTemperature        300 K         # Default value
# MD options
MD.TypeOfRun                 cg            # Type of dynamics:
MD.VariableCell              false         # if vary cell
MD.NumCGsteps                300             # Number of CG steps for relaxation
MD.MaxCGDispl                0.08 Ang     # Maximum atomic displacement at one step
MD.MaxForceTol               0.01 eV/Ang   # Tolerance in the maximum force min(fx, fy, fz)
MD.MaxStressTol              0.1 Gpa
MD.FCDispl                 0.02 ang
MD.FCIR                    T
MD.FCEigenVectors          T
MD.FCRead                  F
MD.FCAtomRestart           46
MD.FCAxisRestart           1
#Siesta Output Flags
SaveHS                       F           # Hamiltonian and overlap in sparse
SaveRHO                      T
WriteMullikenPop             1
WriteForces                  T
WriteCoorStep                T
SaveElectrostaticPotential   T             # Hartree Potential file
************************** End of input data file *****************************

reinit: -----------------------------------------------------------------------
reinit: System Name: mol                                                        
reinit: -----------------------------------------------------------------------
reinit: System Label: mol                 
reinit: -----------------------------------------------------------------------

initatom: Reading input for the pseudopotentials and atomic orbitals ----------
 Species number:            1  Label: H Atomic number:           1
Ground state valence configuration:   1s01
Reading pseudopotential information in formatted form from H.psf
relmxkb: Read Max KB Ang. Momentum=    3 for species H

<basis_specs>
===============================================================================
H                    Z=   1    Mass=  1.0100        Charge=  0.0000    
Lmxo=1 Lmxkb=3     BasisType=split      Semic=F
L=0  Nsemic=0  Cnfigmx=1
          n=1  nzeta=2  polorb=0
               vcte:    2.0700    
               rinn:   0.50000    
                rcs:    5.7500      1.5000    
            lambdas:    1.0000      1.0000    
L=1  Nsemic=0  Cnfigmx=2
          n=1  nzeta=1  polorb=0
               vcte:   0.89000    
               rinn:   0.10000E-01
                rcs:    5.5000    
            lambdas:    1.0000    
-------------------------------------------------------------------------------
L=0  Nkbl=1  erefs: 0.17977+309
L=1  Nkbl=1  erefs: 0.17977+309
L=2  Nkbl=1  erefs: 0.17977+309
L=3  Nkbl=1  erefs: 0.17977+309
===============================================================================
</basis_specs>

atom: Called for H   (Z =   1)

read_vps: Pseudopotential generation method:
read_vps: ATM3      Troullier-Martins                       

read_vps: Valence configuration (pseudopotential and basis set generation):
1s( 1.00) rc: 1.89
2p( 0.00) rc: 1.80
3d( 0.00) rc: 1.49
4f( 0.00) rc: 1.49
read_vps: Spin-orbit interaction is not included in this calculation
Total valence charge:    1.00000

xc_check: Exchange-correlation functional:
xc_check: GGA Perdew, Burke & Ernzerhof 1996
V l=0 = -2*Zval/r beyond r=  1.8658
V l=1 = -2*Zval/r beyond r=  1.7970
V l=2 = -2*Zval/r beyond r=  1.8196
V l=3 = -2*Zval/r beyond r=  1.8196
All V_l potentials equal beyond r=  1.8658
This should be close to max(r_c) in ps generation
All pots = -2*Zval/r beyond r=  1.8658

VLOCAL1: 99.0% of the norm of Vloc inside     12.470 Ry
VLOCAL1: 99.9% of the norm of Vloc inside     28.418 Ry
atom: Maximum radius for 4*pi*r*r*local-pseudopot. charge    2.16811
atom: Maximum radius for r*vlocal+2*Zval:    1.84256
GHOST: No ghost state for L =  0
GHOST: No ghost state for L =  1
GHOST: No ghost state for L =  2
GHOST: No ghost state for L =  3

KBgen: Kleinman-Bylander projectors: 
   l= 0   rc=  2.011274   el= -0.477200   Ekb= -1.572097   kbcos= -0.493163
   l= 1   rc=  2.141150   el=  0.001076   Ekb= -0.356432   kbcos= -0.050277
   l= 2   rc=  2.195416   el=  0.002010   Ekb= -0.177656   kbcos= -0.007774
   l= 3   rc=  2.251056   el=  0.003122   Ekb= -0.068270   kbcos= -0.002268

KBgen: Total number of  Kleinman-Bylander projectors:   16
atom: -------------------------------------------------------------------------

atom: SANKEY-TYPE ORBITALS:
atom: Selected multiple-zeta basis: split     

SPLIT: Orbitals with angular momentum L= 0

SPLIT: Basis orbitals for state 1s

   izeta = 1
                 lambda =    1.000000
                     rc =    5.752124
                 energy =   -0.469599
                kinetic =    0.919264
    potential(screened) =   -1.388863
       potential(ionic) =   -1.911599

   izeta = 2
                 rmatch =    1.527112
              splitnorm =    0.807394
                 energy =    2.126033
                kinetic =    5.261681
    potential(screened) =   -3.135649
       potential(ionic) =   -3.696632

SPLIT: Orbitals with angular momentum L= 1

SPLIT: Basis orbitals for state 2p

   izeta = 1
                 lambda =    1.000000
                     rc =    5.471469
                 energy =    0.371359
                kinetic =    0.737398
    potential(screened) =   -0.366040
       potential(ionic) =   -0.791603
atom: Total number of Sankey-type orbitals:  5

atm_pop: Valence configuration(local Pseudopot. screening):
 1s( 1.00)                                                            
 2p( 0.00)                                                            
Vna: chval, zval:    1.00000   1.00000

Vna:  Cut-off radius for the neutral-atom potential:   5.752124

atom: _________________________________________________________________________

prinput: Basis input ----------------------------------------------------------

PAO.BasisType split     

%block ChemicalSpeciesLabel
    1    1 H                       # Species index, atomic number, species label
%endblock ChemicalSpeciesLabel

%block PAO.Basis                 # Define Basis set
H           2                    # Species label, number of l-shells
 n=1   0   2                         # n, l, Nzeta 
   5.752      1.527   
   1.000      1.000   
 n=2   1   1                         # n, l, Nzeta 
   5.471   
   1.000   
%endblock PAO.Basis

prinput: ----------------------------------------------------------------------


siesta: ******************** Simulation parameters ****************************
siesta:
siesta: The following are some of the parameters of the simulation.
siesta: A complete list of the parameters used, including defect values,
siesta: can be found in file out.fdf
siesta:
coor:   Atomic-coordinates input format  =     Cartesian coordinates
coor:                                          (in Angstroms)
redata: Number of spin components        =     1
redata: SpinOrbit                        =     0
redata: Long output                      =     F
redata: Number of Atomic Species         =     1
redata: Charge density info will appear in .RHO file
redata: Write Mulliken Pop.              =     Atomic and Orbital charges
redata: Mesh Cutoff                      =   800.0000  Ry
redata: Net charge of the system         =     0.0000 |e|
redata: Max. number of SCF Iter          =   300
redata: One Pulay mixing every           =     6 iterations
redata: Mix DM in first SCF step ?       =     F
redata: Write Pulay info on disk?        =     F
redata: New DM Mixing Weight             =     0.0200
redata: No kicks to SCF
redata: DM Mixing Weight for Kicks       =     0.5000
redata: DM Tolerance for SCF             =     0.000100
redata: Use continuation files for DM    =     T
redata: Neglect nonoverlap interactions  =     F
redata: Method of Calculation            =     Diagonalization
redata: Divide and Conquer               =     F
redata: Electronic Temperature           =     0.0019  Ry
redata: Fix the spin of the system       =     F
redata: Dynamics option                  =     CG coord. optimization
redata: Variable cell                    =     F
redata: Use continuation files for CG    =     F
redata: Maximum number of CG moves       =   300
redata: Max atomic displ per move        =     0.1512  Bohr
redata: Force tolerance                  =     0.0004  Ry/Bohr
redata: ***********************************************************************

siesta: Atomic coordinates (Bohr) and species
siesta:      6.14829  10.80942  35.76593  1        1
siesta:      6.16121  10.82106  37.40933  1        2

initatomlists: Number of atoms, orbitals, and projectors:      2    10    32

siesta: System type = molecule  
 Nodes, Orbitals           4          10
 blocksizedefault           2

* ProcessorY, Blocksize:    2   2

 Using EM.ParallelOverKNum =           1
 label:           1 H                              1 s      
 label:           2 H                              1 s      
 label:           3 H                              1 py     
 label:           4 H                              1 pz     
 label:           5 H                              1 px     
 label:           6 H                              2 s      
 label:           7 H                              2 s      
 label:           8 H                              2 py     
 label:           9 H                              2 pz     
 label:          10 H                              2 px     
 
* Maximum dynamic memory allocated =     1 MB

siesta:                 ==============================
                            Begin CG move =      0
                        ==============================

outcoor: Atomic coordinates (Ang):                          
    3.25353201    5.72009504   18.92650888   1  H          1
    3.26037283    5.72625871   19.79615533   1  H          2

read_ldau The LDA+U method used is from Czyzky PRB 49 14211

iodm: Reading Density Matrix from files

mol.DM                           

InitMesh: MESH =   160 x   160 x   720 =    18432000
InitMesh: Mesh cutoff (required, used) =   800.000   899.863 Ry

efield: External electric field =    0.000000    0.000000    0.194467 Ry/Bohr/e
 
* Maximum dynamic memory allocated =   250 MB

stepf: Fermi-Dirac step function

siesta: Program's energy decomposition (eV):
siesta: Eions   =        26.074526
siesta: Ena     =         3.171840
siesta: Ekin    =        25.720229
siesta: Enl     =       -15.696974
siesta: DEna    =        -1.256626
siesta: DUscf   =         0.228313
siesta: DUext   =        -0.000003
siesta: Exc     =       -17.178282
siesta: eta*DQ  =         0.000000
siesta: Emadel  =         0.000000
siesta: Eharris =       -32.865559
siesta: Eso     =         0.000000
siesta: Etot    =       -31.086029
siesta: FreeEng =       -31.086029

siesta: iscf   Eharris(eV)      E_KS(eV)   FreeEng(eV)     dDmax   Ef(eV)
siesta:    1      -32.8656      -31.0860      -31.0860   0.46003  -5.0046
timer: Routine,Calls,Time,% = IterSCF        1      39.414  87.71
siesta:    2      -32.5193      -31.8636      -31.8636   0.45212  -5.3391
siesta:    3      -32.2653      -31.7547      -31.7547   0.06011  -5.1691
siesta:    4      -32.2654      -31.7505      -31.7505   0.06060  -5.1684
siesta:    5      -32.2590      -31.9777      -31.9777   0.03364  -5.2054
siesta:    6      -32.2588      -31.9833      -31.9833   0.03292  -5.2064
siesta:    7      -32.2586      -31.9888      -31.9888   0.03221  -5.2074
siesta:    8      -32.2584      -31.9942      -31.9942   0.03152  -5.2084
siesta:    9      -32.2583      -31.9995      -31.9995   0.03084  -5.2094
siesta:   10      -32.2581      -32.0047      -32.0047   0.03018  -5.2103
siesta:   11      -32.2580      -32.0097      -32.0097   0.02954  -5.2112
siesta:   12      -32.2579      -32.0147      -32.0147   0.02891  -5.2121
siesta:   13      -32.2577      -32.0196      -32.0196   0.02829  -5.2130
siesta:   14      -32.2576      -32.0243      -32.0243   0.02768  -5.2139
siesta:   15      -32.2575      -32.0290      -32.0290   0.02709  -5.2147
siesta:   16      -32.2574      -32.0336      -32.0336   0.02651  -5.2155
siesta:   17      -32.2573      -32.0380      -32.0380   0.02594  -5.2163
siesta:   18      -32.2572      -32.0424      -32.0424   0.02539  -5.2171
siesta:   19      -32.2572      -32.0467      -32.0467   0.02485  -5.2178
siesta:   20      -32.2571      -32.0509      -32.0509   0.02432  -5.2186
siesta:   21      -32.2570      -32.0550      -32.0550   0.02380  -5.2193
siesta:   22      -32.2570      -32.0591      -32.0591   0.02329  -5.2200
siesta:   23      -32.2569      -32.0630      -32.0630   0.02279  -5.2207
siesta:   24      -32.2569      -32.0669      -32.0669   0.02230  -5.2213
siesta:   25      -32.2568      -32.0707      -32.0707   0.02183  -5.2220
siesta:   26      -32.2568      -32.0744      -32.0744   0.02136  -5.2226
siesta:   27      -32.2567      -32.0781      -32.0781   0.02091  -5.2232
siesta:   28      -32.2567      -32.0817      -32.0817   0.02046  -5.2238
siesta:   29      -32.2566      -32.0852      -32.0852   0.02003  -5.2244
siesta:   30      -32.2566      -32.0886      -32.0886   0.01960  -5.2250
siesta:   31      -32.2566      -32.0919      -32.0919   0.01918  -5.2255
siesta:   32      -32.2565      -32.0952      -32.0952   0.01877  -5.2261
siesta:   33      -32.2565      -32.0985      -32.0985   0.01864  -5.2266
siesta:   34      -32.2565      -32.1016      -32.1016   0.01851  -5.2271
siesta:   35      -32.2565      -32.1047      -32.1047   0.01838  -5.2276
siesta:   36      -32.2564      -32.1078      -32.1078   0.01823  -5.2281
siesta:   37      -32.2564      -32.1107      -32.1107   0.01809  -5.2286
siesta:   38      -32.2564      -32.1136      -32.1136   0.01794  -5.2291
siesta:   39      -32.2564      -32.1165      -32.1165   0.01778  -5.2296
siesta:   40      -32.2564      -32.1193      -32.1193   0.01762  -5.2300
siesta:   41      -32.2563      -32.1220      -32.1220   0.01746  -5.2304
siesta:   42      -32.2563      -32.1247      -32.1247   0.01729  -5.2309
siesta:   43      -32.2563      -32.1274      -32.1274   0.01713  -5.2313
siesta:   44      -32.2563      -32.1299      -32.1299   0.01695  -5.2317
siesta:   45      -32.2563      -32.1325      -32.1325   0.01678  -5.2321
siesta:   46      -32.2563      -32.1349      -32.1349   0.01660  -5.2325
siesta:   47      -32.2563      -32.1374      -32.1374   0.01643  -5.2328
siesta:   48      -32.2563      -32.1397      -32.1397   0.01625  -5.2332
siesta:   49      -32.2562      -32.1421      -32.1421   0.01606  -5.2336
siesta:   50      -32.2562      -32.1444      -32.1444   0.01588  -5.2339
siesta:   51      -32.2562      -32.1466      -32.1466   0.01570  -5.2342
siesta:   52      -32.2562      -32.1488      -32.1488   0.01551  -5.2346
siesta:   53      -32.2562      -32.1509      -32.1509   0.01533  -5.2349
siesta:   54      -32.2562      -32.1530      -32.1530   0.01514  -5.2352
siesta:   55      -32.2562      -32.1551      -32.1551   0.01496  -5.2355
siesta:   56      -32.2562      -32.1571      -32.1571   0.01477  -5.2358
siesta:   57      -32.2562      -32.1591      -32.1591   0.01458  -5.2361
siesta:   58      -32.2562      -32.1610      -32.1610   0.01440  -5.2364
siesta:   59      -32.2562      -32.1629      -32.1629   0.01421  -5.2367
siesta:   60      -32.2562      -32.1648      -32.1648   0.01402  -5.2370
siesta:   61      -32.2562      -32.1666      -32.1666   0.01384  -5.2372
siesta:   62      -32.2562      -32.1684      -32.1684   0.01365  -5.2375
siesta:   63      -32.2562      -32.1702      -32.1702   0.01347  -5.2377
siesta:   64      -32.2562      -32.1719      -32.1719   0.01328  -5.2380
siesta:   65      -32.2562      -32.1736      -32.1736   0.01310  -5.2382
siesta:   66      -32.2562      -32.1752      -32.1752   0.01292  -5.2385
siesta:   67      -32.2562      -32.1769      -32.1769   0.01273  -5.2387
siesta:   68      -32.2562      -32.1784      -32.1784   0.01255  -5.2389
siesta:   69      -32.2562      -32.1800      -32.1800   0.01237  -5.2391
siesta:   70      -32.2562      -32.1815      -32.1815   0.01220  -5.2393
siesta:   71      -32.2562      -32.1830      -32.1830   0.01202  -5.2395
siesta:   72      -32.2562      -32.1845      -32.1845   0.01184  -5.2397
siesta:   73      -32.2562      -32.1859      -32.1859   0.01167  -5.2399
siesta:   74      -32.2562      -32.1873      -32.1873   0.01149  -5.2401
siesta:   75      -32.2562      -32.1887      -32.1887   0.01132  -5.2403
siesta:   76      -32.2562      -32.1900      -32.1900   0.01115  -5.2405
siesta:   77      -32.2562      -32.1914      -32.1914   0.01098  -5.2407
siesta:   78      -32.2562      -32.1927      -32.1927   0.01082  -5.2409
siesta:   79      -32.2562      -32.1939      -32.1939   0.01065  -5.2410
siesta:   80      -32.2562      -32.1952      -32.1952   0.01049  -5.2412
siesta:   81      -32.2562      -32.1964      -32.1964   0.01032  -5.2414
siesta:   82      -32.2562      -32.1976      -32.1976   0.01016  -5.2415
siesta:   83      -32.2562      -32.1988      -32.1988   0.01000  -5.2417
siesta:   84      -32.2562      -32.1999      -32.1999   0.00984  -5.2418
siesta:   85      -32.2562      -32.2010      -32.2010   0.00969  -5.2420
siesta:   86      -32.2562      -32.2021      -32.2021   0.00953  -5.2421
siesta:   87      -32.2562      -32.2032      -32.2032   0.00938  -5.2423
siesta:   88      -32.2562      -32.2043      -32.2043   0.00923  -5.2424
siesta:   89      -32.2562      -32.2053      -32.2053   0.00908  -5.2425
siesta:   90      -32.2562      -32.2063      -32.2063   0.00893  -5.2427
siesta:   91      -32.2562      -32.2073      -32.2073   0.00879  -5.2428
siesta:   92      -32.2562      -32.2083      -32.2083   0.00865  -5.2429
siesta:   93      -32.2562      -32.2093      -32.2093   0.00850  -5.2430
siesta:   94      -32.2562      -32.2102      -32.2102   0.00836  -5.2431
siesta:   95      -32.2562      -32.2111      -32.2111   0.00823  -5.2433
siesta:   96      -32.2562      -32.2120      -32.2120   0.00809  -5.2434
siesta:   97      -32.2562      -32.2129      -32.2129   0.00795  -5.2435
siesta:   98      -32.2562      -32.2138      -32.2138   0.00782  -5.2436
siesta:   99      -32.2562      -32.2146      -32.2146   0.00769  -5.2437
siesta:  100      -32.2562      -32.2154      -32.2154   0.00756  -5.2438
siesta:  101      -32.2562      -32.2163      -32.2163   0.00743  -5.2439
siesta:  102      -32.2562      -32.2171      -32.2171   0.00731  -5.2440
siesta:  103      -32.2562      -32.2178      -32.2178   0.00718  -5.2441
siesta:  104      -32.2562      -32.2186      -32.2186   0.00706  -5.2442
siesta:  105      -32.2562      -32.2194      -32.2194   0.00694  -5.2443
siesta:  106      -32.2562      -32.2201      -32.2201   0.00682  -5.2443
siesta:  107      -32.2562      -32.2208      -32.2208   0.00670  -5.2444
siesta:  108      -32.2562      -32.2215      -32.2215   0.00659  -5.2445
siesta:  109      -32.2562      -32.2222      -32.2222   0.00647  -5.2446
siesta:  110      -32.2562      -32.2229      -32.2229   0.00636  -5.2447
siesta:  111      -32.2562      -32.2236      -32.2236   0.00625  -5.2448
siesta:  112      -32.2562      -32.2242      -32.2242   0.00614  -5.2448
siesta:  113      -32.2562      -32.2249      -32.2249   0.00603  -5.2449
siesta:  114      -32.2562      -32.2255      -32.2255   0.00593  -5.2450
siesta:  115      -32.2562      -32.2261      -32.2261   0.00582  -5.2450
siesta:  116      -32.2562      -32.2267      -32.2267   0.00572  -5.2451
siesta:  117      -32.2562      -32.2273      -32.2273   0.00562  -5.2452
siesta:  118      -32.2562      -32.2279      -32.2279   0.00552  -5.2452
siesta:  119      -32.2562      -32.2284      -32.2284   0.00542  -5.2453
siesta:  120      -32.2562      -32.2290      -32.2290   0.00533  -5.2454
siesta:  121      -32.2562      -32.2295      -32.2295   0.00523  -5.2454
siesta:  122      -32.2562      -32.2301      -32.2301   0.00514  -5.2455
siesta:  123      -32.2562      -32.2306      -32.2306   0.00505  -5.2455
siesta:  124      -32.2562      -32.2311      -32.2311   0.00496  -5.2456
siesta:  125      -32.2562      -32.2316      -32.2316   0.00487  -5.2457
siesta:  126      -32.2562      -32.2321      -32.2321   0.00478  -5.2457
siesta:  127      -32.2562      -32.2326      -32.2326   0.00469  -5.2458
siesta:  128      -32.2562      -32.2330      -32.2330   0.00461  -5.2458
siesta:  129      -32.2562      -32.2335      -32.2335   0.00453  -5.2459
siesta:  130      -32.2562      -32.2340      -32.2340   0.00444  -5.2459
siesta:  131      -32.2562      -32.2344      -32.2344   0.00436  -5.2460
siesta:  132      -32.2562      -32.2348      -32.2348   0.00428  -5.2460
siesta:  133      -32.2562      -32.2353      -32.2353   0.00421  -5.2461
siesta:  134      -32.2562      -32.2357      -32.2357   0.00413  -5.2461
siesta:  135      -32.2562      -32.2361      -32.2361   0.00405  -5.2461
siesta:  136      -32.2562      -32.2365      -32.2365   0.00398  -5.2462
siesta:  137      -32.2562      -32.2369      -32.2369   0.00391  -5.2462
siesta:  138      -32.2562      -32.2373      -32.2373   0.00384  -5.2463
siesta:  139      -32.2562      -32.2376      -32.2376   0.00377  -5.2463
siesta:  140      -32.2562      -32.2380      -32.2380   0.00370  -5.2463
siesta:  141      -32.2562      -32.2384      -32.2384   0.00363  -5.2464
siesta:  142      -32.2562      -32.2387      -32.2387   0.00356  -5.2464
siesta:  143      -32.2562      -32.2391      -32.2391   0.00350  -5.2464
siesta:  144      -32.2562      -32.2394      -32.2394   0.00343  -5.2465
siesta:  145      -32.2562      -32.2398      -32.2398   0.00337  -5.2465
siesta:  146      -32.2562      -32.2401      -32.2401   0.00330  -5.2465
siesta:  147      -32.2562      -32.2404      -32.2404   0.00324  -5.2466
siesta:  148      -32.2562      -32.2407      -32.2407   0.00318  -5.2466
siesta:  149      -32.2562      -32.2410      -32.2410   0.00312  -5.2466
siesta:  150      -32.2562      -32.2413      -32.2413   0.00307  -5.2467
siesta:  151      -32.2562      -32.2416      -32.2416   0.00301  -5.2467
siesta:  152      -32.2562      -32.2419      -32.2419   0.00295  -5.2467
siesta:  153      -32.2562      -32.2422      -32.2422   0.00290  -5.2468
siesta:  154      -32.2562      -32.2425      -32.2425   0.00284  -5.2468
siesta:  155      -32.2562      -32.2428      -32.2428   0.00279  -5.2468
siesta:  156      -32.2562      -32.2430      -32.2430   0.00274  -5.2468
siesta:  157      -32.2562      -32.2433      -32.2433   0.00269  -5.2469
siesta:  158      -32.2562      -32.2435      -32.2435   0.00264  -5.2469
siesta:  159      -32.2562      -32.2438      -32.2438   0.00259  -5.2469
siesta:  160      -32.2562      -32.2440      -32.2440   0.00254  -5.2469
siesta:  161      -32.2562      -32.2443      -32.2443   0.00249  -5.2470
siesta:  162      -32.2562      -32.2445      -32.2445   0.00244  -5.2470
siesta:  163      -32.2562      -32.2448      -32.2448   0.00240  -5.2470
siesta:  164      -32.2562      -32.2450      -32.2450   0.00235  -5.2470
siesta:  165      -32.2562      -32.2452      -32.2452   0.00231  -5.2470
siesta:  166      -32.2562      -32.2454      -32.2454   0.00226  -5.2471
siesta:  167      -32.2562      -32.2456      -32.2456   0.00222  -5.2471
siesta:  168      -32.2562      -32.2459      -32.2459   0.00218  -5.2471
siesta:  169      -32.2562      -32.2461      -32.2461   0.00214  -5.2471
siesta:  170      -32.2562      -32.2463      -32.2463   0.00210  -5.2471
siesta:  171      -32.2562      -32.2465      -32.2465   0.00206  -5.2471
siesta:  172      -32.2562      -32.2467      -32.2467   0.00202  -5.2472
siesta:  173      -32.2562      -32.2468      -32.2468   0.00198  -5.2472
siesta:  174      -32.2562      -32.2470      -32.2470   0.00194  -5.2472
siesta:  175      -32.2562      -32.2472      -32.2472   0.00190  -5.2472
siesta:  176      -32.2562      -32.2474      -32.2474   0.00187  -5.2472
siesta:  177      -32.2562      -32.2476      -32.2476   0.00183  -5.2472
siesta:  178      -32.2562      -32.2477      -32.2477   0.00180  -5.2473
siesta:  179      -32.2562      -32.2479      -32.2479   0.00176  -5.2473
siesta:  180      -32.2562      -32.2481      -32.2481   0.00173  -5.2473
siesta:  181      -32.2562      -32.2482      -32.2482   0.00170  -5.2473
siesta:  182      -32.2562      -32.2484      -32.2484   0.00166  -5.2473
siesta:  183      -32.2562      -32.2485      -32.2485   0.00163  -5.2473
siesta:  184      -32.2562      -32.2487      -32.2487   0.00160  -5.2473
siesta:  185      -32.2562      -32.2488      -32.2488   0.00157  -5.2474
siesta:  186      -32.2562      -32.2490      -32.2490   0.00154  -5.2474
siesta:  187      -32.2562      -32.2491      -32.2491   0.00151  -5.2474
siesta:  188      -32.2562      -32.2493      -32.2493   0.00148  -5.2474
siesta:  189      -32.2562      -32.2494      -32.2494   0.00145  -5.2474
siesta:  190      -32.2562      -32.2496      -32.2496   0.00142  -5.2474
siesta:  191      -32.2562      -32.2497      -32.2497   0.00140  -5.2474
siesta:  192      -32.2562      -32.2498      -32.2498   0.00137  -5.2474
siesta:  193      -32.2562      -32.2499      -32.2499   0.00134  -5.2474
siesta:  194      -32.2562      -32.2501      -32.2501   0.00132  -5.2475
siesta:  195      -32.2562      -32.2502      -32.2502   0.00129  -5.2475
siesta:  196      -32.2562      -32.2503      -32.2503   0.00127  -5.2475
siesta:  197      -32.2562      -32.2504      -32.2504   0.00124  -5.2475
siesta:  198      -32.2562      -32.2505      -32.2505   0.00122  -5.2475
siesta:  199      -32.2562      -32.2507      -32.2507   0.00120  -5.2475
siesta:  200      -32.2562      -32.2508      -32.2508   0.00117  -5.2475
siesta:  201      -32.2562      -32.2509      -32.2509   0.00115  -5.2475
siesta:  202      -32.2562      -32.2510      -32.2510   0.00113  -5.2475
siesta:  203      -32.2562      -32.2511      -32.2511   0.00111  -5.2475
siesta:  204      -32.2562      -32.2512      -32.2512   0.00108  -5.2475
siesta:  205      -32.2562      -32.2513      -32.2513   0.00106  -5.2475
siesta:  206      -32.2562      -32.2514      -32.2514   0.00104  -5.2476
siesta:  207      -32.2562      -32.2515      -32.2515   0.00102  -5.2476
siesta:  208      -32.2562      -32.2516      -32.2516   0.00100  -5.2476
siesta:  209      -32.2562      -32.2517      -32.2517   0.00098  -5.2476
siesta:  210      -32.2562      -32.2517      -32.2517   0.00096  -5.2476
siesta:  211      -32.2562      -32.2518      -32.2518   0.00095  -5.2476
siesta:  212      -32.2562      -32.2519      -32.2519   0.00093  -5.2476
siesta:  213      -32.2562      -32.2520      -32.2520   0.00091  -5.2476
siesta:  214      -32.2562      -32.2521      -32.2521   0.00089  -5.2476
siesta:  215      -32.2562      -32.2522      -32.2522   0.00087  -5.2476
siesta:  216      -32.2562      -32.2523      -32.2523   0.00086  -5.2476
siesta:  217      -32.2562      -32.2523      -32.2523   0.00084  -5.2476
siesta:  218      -32.2562      -32.2524      -32.2524   0.00082  -5.2476
siesta:  219      -32.2562      -32.2525      -32.2525   0.00081  -5.2476
siesta:  220      -32.2562      -32.2526      -32.2526   0.00079  -5.2476
siesta:  221      -32.2562      -32.2526      -32.2526   0.00078  -5.2476
siesta:  222      -32.2562      -32.2527      -32.2527   0.00076  -5.2477
siesta:  223      -32.2562      -32.2528      -32.2528   0.00075  -5.2477
siesta:  224      -32.2562      -32.2528      -32.2528   0.00073  -5.2477
siesta:  225      -32.2562      -32.2529      -32.2529   0.00072  -5.2477
siesta:  226      -32.2562      -32.2530      -32.2530   0.00070  -5.2477
siesta:  227      -32.2562      -32.2530      -32.2530   0.00069  -5.2477
siesta:  228      -32.2562      -32.2531      -32.2531   0.00068  -5.2477
siesta:  229      -32.2562      -32.2532      -32.2532   0.00066  -5.2477
siesta:  230      -32.2562      -32.2532      -32.2532   0.00065  -5.2477
siesta:  231      -32.2562      -32.2533      -32.2533   0.00064  -5.2477
siesta:  232      -32.2562      -32.2533      -32.2533   0.00062  -5.2477
siesta:  233      -32.2562      -32.2534      -32.2534   0.00061  -5.2477
siesta:  234      -32.2562      -32.2534      -32.2534   0.00060  -5.2477
siesta:  235      -32.2562      -32.2535      -32.2535   0.00059  -5.2477
siesta:  236      -32.2562      -32.2536      -32.2536   0.00058  -5.2477
siesta:  237      -32.2562      -32.2536      -32.2536   0.00057  -5.2477
siesta:  238      -32.2562      -32.2537      -32.2537   0.00055  -5.2477
siesta:  239      -32.2562      -32.2537      -32.2537   0.00054  -5.2477
siesta:  240      -32.2562      -32.2538      -32.2538   0.00053  -5.2477
siesta:  241      -32.2562      -32.2538      -32.2538   0.00052  -5.2477
siesta:  242      -32.2562      -32.2538      -32.2538   0.00051  -5.2477
siesta:  243      -32.2562      -32.2539      -32.2539   0.00050  -5.2477
siesta:  244      -32.2562      -32.2539      -32.2539   0.00049  -5.2477
siesta:  245      -32.2562      -32.2540      -32.2540   0.00048  -5.2477
siesta:  246      -32.2562      -32.2540      -32.2540   0.00047  -5.2477
siesta:  247      -32.2562      -32.2541      -32.2541   0.00046  -5.2477
siesta:  248      -32.2562      -32.2541      -32.2541   0.00046  -5.2477
siesta:  249      -32.2562      -32.2542      -32.2542   0.00045  -5.2477
siesta:  250      -32.2562      -32.2542      -32.2542   0.00044  -5.2478
siesta:  251      -32.2562      -32.2542      -32.2542   0.00043  -5.2478
siesta:  252      -32.2562      -32.2543      -32.2543   0.00042  -5.2478
siesta:  253      -32.2562      -32.2543      -32.2543   0.00041  -5.2478
siesta:  254      -32.2562      -32.2543      -32.2543   0.00040  -5.2478
siesta:  255      -32.2562      -32.2544      -32.2544   0.00040  -5.2478
siesta:  256      -32.2562      -32.2544      -32.2544   0.00039  -5.2478
siesta:  257      -32.2562      -32.2545      -32.2545   0.00038  -5.2478
siesta:  258      -32.2562      -32.2545      -32.2545   0.00037  -5.2478
siesta:  259      -32.2562      -32.2545      -32.2545   0.00037  -5.2478
siesta:  260      -32.2562      -32.2546      -32.2546   0.00036  -5.2478
siesta:  261      -32.2562      -32.2546      -32.2546   0.00035  -5.2478
siesta:  262      -32.2562      -32.2546      -32.2546   0.00034  -5.2478
siesta:  263      -32.2562      -32.2546      -32.2546   0.00034  -5.2478
siesta:  264      -32.2562      -32.2547      -32.2547   0.00033  -5.2478
siesta:  265      -32.2562      -32.2547      -32.2547   0.00032  -5.2478
siesta:  266      -32.2562      -32.2547      -32.2547   0.00032  -5.2478
siesta:  267      -32.2562      -32.2548      -32.2548   0.00031  -5.2478
siesta:  268      -32.2562      -32.2548      -32.2548   0.00031  -5.2478
siesta:  269      -32.2562      -32.2548      -32.2548   0.00030  -5.2478
siesta:  270      -32.2562      -32.2548      -32.2548   0.00029  -5.2478
siesta:  271      -32.2562      -32.2549      -32.2549   0.00029  -5.2478
siesta:  272      -32.2562      -32.2549      -32.2549   0.00028  -5.2478
siesta:  273      -32.2562      -32.2549      -32.2549   0.00028  -5.2478
siesta:  274      -32.2562      -32.2549      -32.2549   0.00027  -5.2478
siesta:  275      -32.2562      -32.2550      -32.2550   0.00027  -5.2478
siesta:  276      -32.2562      -32.2550      -32.2550   0.00026  -5.2478
siesta:  277      -32.2562      -32.2550      -32.2550   0.00026  -5.2478
siesta:  278      -32.2562      -32.2550      -32.2550   0.00025  -5.2478
siesta:  279      -32.2562      -32.2551      -32.2551   0.00025  -5.2478
siesta:  280      -32.2562      -32.2551      -32.2551   0.00024  -5.2478
siesta:  281      -32.2562      -32.2551      -32.2551   0.00024  -5.2478
siesta:  282      -32.2562      -32.2551      -32.2551   0.00023  -5.2478
siesta:  283      -32.2562      -32.2552      -32.2552   0.00023  -5.2478
siesta:  284      -32.2562      -32.2552      -32.2552   0.00022  -5.2478
siesta:  285      -32.2562      -32.2552      -32.2552   0.00022  -5.2478
siesta:  286      -32.2562      -32.2552      -32.2552   0.00021  -5.2478
siesta:  287      -32.2562      -32.2552      -32.2552   0.00021  -5.2478
siesta:  288      -32.2562      -32.2552      -32.2552   0.00021  -5.2478
siesta:  289      -32.2562      -32.2553      -32.2553   0.00020  -5.2478
siesta:  290      -32.2562      -32.2553      -32.2553   0.00020  -5.2478
siesta:  291      -32.2562      -32.2553      -32.2553   0.00019  -5.2478
siesta:  292      -32.2562      -32.2553      -32.2553   0.00019  -5.2478
siesta:  293      -32.2562      -32.2553      -32.2553   0.00019  -5.2478
siesta:  294      -32.2562      -32.2554      -32.2554   0.00018  -5.2478
siesta:  295      -32.2562      -32.2554      -32.2554   0.00018  -5.2478
siesta:  296      -32.2562      -32.2554      -32.2554   0.00017  -5.2478
siesta:  297      -32.2562      -32.2554      -32.2554   0.00017  -5.2478
siesta:  298      -32.2562      -32.2554      -32.2554   0.00017  -5.2478
siesta:  299      -32.2562      -32.2554      -32.2554   0.00016  -5.2478
grdsam: Reading %block GridCellSampling
grdsam: Grid-cell sampling, point   0
grdsam: Generating displacements for grid-cell sampling
grdsam: Grid-cell sampling, point   1
grdsam: Grid-cell sampling, point   2
grdsam: Grid-cell sampling, point   3

siesta: E_KS(eV) =              -32.2554

siesta: E_KS - E_eggbox =       -32.2554

siesta: Atomic forces (eV/Ang):
     1    0.015031    0.013542    1.115299
     2   -0.015028   -0.013540   -1.115315
----------------------------------------
 Tot    0.000003    0.000002   -0.000016
----------------------------------------
 Max    1.115315
 Res    0.644029    sqrt( Sum f_i^2 / 3N )
----------------------------------------
 Max    1.115315    constrained
 
mulliken: Atomic and Orbital Populations:

Species: H                   
Atom  Qatom  Qorb
               1s      1s      2py     2pz     2px     
   1  1.139   1.113   0.054   0.000  -0.028   0.000
   2  0.861   0.764   0.047   0.000   0.050   0.000

mulliken: Qtot =    2.000
 
* Maximum dynamic memory allocated =   251 MB

siesta:                 ==============================
                            Begin CG move =      1
                        ==============================

outcoor: Atomic coordinates (Ang):                          
    3.25353201    5.72009504   18.92650888   1  H          1
    3.25929504    5.72528765   19.71616848   1  H          2

siesta: iscf   Eharris(eV)      E_KS(eV)   FreeEng(eV)     dDmax   Ef(eV)
siesta:    1      -32.2972      -32.2610      -32.2610   0.02634  -5.6055
siesta:    2      -32.2930      -32.2895      -32.2895   0.02649  -5.3624
siesta:    3      -32.2919      -32.2825      -32.2825   0.01268  -5.4372
siesta:    4      -32.2918      -32.2905      -32.2905   0.00167  -5.3925
siesta:    5      -32.2918      -32.2901      -32.2901   0.00087  -5.3975
siesta:    6      -32.2918      -32.2916      -32.2916   0.00030  -5.3952
siesta:    7      -32.2918      -32.2918      -32.2918   0.00001  -5.3956
grdsam: Grid-cell sampling, point   0
grdsam: Grid-cell sampling, point   1
grdsam: Grid-cell sampling, point   2
grdsam: Grid-cell sampling, point   3

siesta: E_KS(eV) =              -32.2918

siesta: Atomic forces (eV/Ang):
     1    0.002726    0.002454   -0.290417
     2   -0.002752   -0.002482    0.290407
----------------------------------------
 Tot   -0.000026   -0.000028   -0.000011
----------------------------------------
 Max    0.290417
 Res    0.167683    sqrt( Sum f_i^2 / 3N )
----------------------------------------
 Max    0.290407    constrained
 
mulliken: Atomic and Orbital Populations:

Species: H                   
Atom  Qatom  Qorb
               1s      1s      2py     2pz     2px     
   1  1.137   1.092   0.068   0.000  -0.023   0.000
   2  0.863   0.756   0.064   0.000   0.043   0.000

mulliken: Qtot =    2.000
 
* Maximum dynamic memory allocated =   251 MB

siesta:                 ==============================
                            Begin CG move =      2
                        ==============================

outcoor: Atomic coordinates (Ang):                          
    3.25353201    5.72009504   18.92650888   1  H          1
    3.25951760    5.72548817   19.73268554   1  H          2

siesta: iscf   Eharris(eV)      E_KS(eV)   FreeEng(eV)     dDmax   Ef(eV)
siesta:    1      -32.2944      -32.2929      -32.2929   0.00540  -5.2652
siesta:    2      -32.2943      -32.2941      -32.2941   0.00533  -5.3166
siesta:    3      -32.2942      -32.2938      -32.2938   0.00266  -5.3014
siesta:    4      -32.2942      -32.2941      -32.2941   0.00019  -5.3086
siesta:    5      -32.2942      -32.2941      -32.2941   0.00022  -5.3094
siesta:    6      -32.2942      -32.2942      -32.2942   0.00000  -5.3096
grdsam: Grid-cell sampling, point   0
grdsam: Grid-cell sampling, point   1
grdsam: Grid-cell sampling, point   2
grdsam: Grid-cell sampling, point   3

siesta: E_KS(eV) =              -32.2942

siesta: Atomic forces (eV/Ang):
     1    0.005754    0.005182    0.083534
     2   -0.005747   -0.005177   -0.083454
----------------------------------------
 Tot    0.000007    0.000005    0.000080
----------------------------------------
 Max    0.083534
 Res    0.048412    sqrt( Sum f_i^2 / 3N )
----------------------------------------
 Max    0.083454    constrained
 
mulliken: Atomic and Orbital Populations:

Species: H                   
Atom  Qatom  Qorb
               1s      1s      2py     2pz     2px     
   1  1.137   1.097   0.065   0.000  -0.024   0.000
   2  0.863   0.758   0.060   0.000   0.045   0.000

mulliken: Qtot =    2.000

cgvc: Finished line minimization    1.  Mean atomic displacement =    0.0848
 
* Maximum dynamic memory allocated =   251 MB

siesta:                 ==============================
                            Begin CG move =      3
                        ==============================

outcoor: Atomic coordinates (Ang):                          
    3.25353201    5.72009504   18.92650888   1  H          1
    3.25540810    5.72178642   19.66944672   1  H          2

siesta: iscf   Eharris(eV)      E_KS(eV)   FreeEng(eV)     dDmax   Ef(eV)
siesta:    1      -32.2494      -32.2243      -32.2243   0.02053  -5.8294
siesta:    2      -32.2463      -32.2442      -32.2442   0.01892  -5.6068
siesta:    3      -32.2457      -32.2397      -32.2397   0.00911  -5.6697
siesta:    4      -32.2456      -32.2448      -32.2448   0.00126  -5.6362
siesta:    5      -32.2456      -32.2445      -32.2445   0.00081  -5.6403
siesta:    6      -32.2456      -32.2453      -32.2453   0.00039  -5.6392
siesta:    7      -32.2456      -32.2453      -32.2453   0.00038  -5.6392
siesta:    8      -32.2456      -32.2453      -32.2453   0.00037  -5.6392
siesta:    9      -32.2456      -32.2453      -32.2453   0.00037  -5.6392
siesta:   10      -32.2456      -32.2453      -32.2453   0.00036  -5.6392
siesta:   11      -32.2456      -32.2453      -32.2453   0.00035  -5.6393
siesta:   12      -32.2456      -32.2453      -32.2453   0.00034  -5.6393
siesta:   13      -32.2456      -32.2453      -32.2453   0.00033  -5.6393
siesta:   14      -32.2456      -32.2453      -32.2453   0.00033  -5.6393
siesta:   15      -32.2456      -32.2453      -32.2453   0.00032  -5.6393
siesta:   16      -32.2456      -32.2453      -32.2453   0.00031  -5.6393
siesta:   17      -32.2456      -32.2453      -32.2453   0.00031  -5.6393
siesta:   18      -32.2456      -32.2453      -32.2453   0.00030  -5.6393
siesta:   19      -32.2456      -32.2453      -32.2453   0.00029  -5.6393
siesta:   20      -32.2456      -32.2453      -32.2453   0.00029  -5.6393
siesta:   21      -32.2456      -32.2454      -32.2454   0.00028  -5.6393
siesta:   22      -32.2456      -32.2454      -32.2454   0.00028  -5.6393
siesta:   23      -32.2456      -32.2454      -32.2454   0.00027  -5.6394
siesta:   24      -32.2456      -32.2454      -32.2454   0.00026  -5.6394
siesta:   25      -32.2456      -32.2454      -32.2454   0.00026  -5.6394
siesta:   26      -32.2456      -32.2454      -32.2454   0.00025  -5.6394
siesta:   27      -32.2456      -32.2454      -32.2454   0.00025  -5.6394
siesta:   28      -32.2456      -32.2454      -32.2454   0.00024  -5.6394
siesta:   29      -32.2456      -32.2454      -32.2454   0.00024  -5.6394
siesta:   30      -32.2456      -32.2454      -32.2454   0.00023  -5.6394
siesta:   31      -32.2456      -32.2454      -32.2454   0.00023  -5.6394
siesta:   32      -32.2456      -32.2454      -32.2454   0.00022  -5.6394
siesta:   33      -32.2456      -32.2454      -32.2454   0.00022  -5.6394
siesta:   34      -32.2456      -32.2454      -32.2454   0.00021  -5.6394
siesta:   35      -32.2456      -32.2454      -32.2454   0.00021  -5.6394
siesta:   36      -32.2456      -32.2454      -32.2454   0.00020  -5.6394
siesta:   37      -32.2456      -32.2454      -32.2454   0.00020  -5.6394
siesta:   38      -32.2456      -32.2454      -32.2454   0.00020  -5.6394
siesta:   39      -32.2456      -32.2454      -32.2454   0.00019  -5.6395
siesta:   40      -32.2456      -32.2454      -32.2454   0.00019  -5.6395
siesta:   41      -32.2456      -32.2454      -32.2454   0.00018  -5.6395
siesta:   42      -32.2456      -32.2454      -32.2454   0.00018  -5.6395
siesta:   43      -32.2456      -32.2454      -32.2454   0.00018  -5.6395
siesta:   44      -32.2456      -32.2454      -32.2454   0.00017  -5.6395
siesta:   45      -32.2456      -32.2454      -32.2454   0.00017  -5.6395
siesta:   46      -32.2456      -32.2454      -32.2454   0.00016  -5.6395
siesta:   47      -32.2456      -32.2454      -32.2454   0.00016  -5.6395
siesta:   48      -32.2456      -32.2455      -32.2455   0.00016  -5.6395
siesta:   49      -32.2456      -32.2455      -32.2455   0.00015  -5.6395
siesta:   50      -32.2456      -32.2455      -32.2455   0.00015  -5.6395
siesta:   51      -32.2456      -32.2455      -32.2455   0.00015  -5.6395
siesta:   52      -32.2456      -32.2455      -32.2455   0.00014  -5.6395
siesta:   53      -32.2456      -32.2455      -32.2455   0.00014  -5.6395
siesta:   54      -32.2456      -32.2455      -32.2455   0.00014  -5.6395
siesta:   55      -32.2456      -32.2455      -32.2455   0.00014  -5.6395
siesta:   56      -32.2456      -32.2455      -32.2455   0.00013  -5.6395
siesta:   57      -32.2456      -32.2455      -32.2455   0.00013  -5.6395
siesta:   58      -32.2456      -32.2455      -32.2455   0.00013  -5.6395
siesta:   59      -32.2456      -32.2455      -32.2455   0.00013  -5.6395
siesta:   60      -32.2456      -32.2455      -32.2455   0.00012  -5.6395
siesta:   61      -32.2456      -32.2455      -32.2455   0.00012  -5.6395
siesta:   62      -32.2456      -32.2455      -32.2455   0.00012  -5.6395
siesta:   63      -32.2456      -32.2455      -32.2455   0.00011  -5.6395
siesta:   64      -32.2456      -32.2455      -32.2455   0.00011  -5.6395
siesta:   65      -32.2456      -32.2455      -32.2455   0.00011  -5.6395
siesta:   66      -32.2456      -32.2455      -32.2455   0.00011  -5.6395
siesta:   67      -32.2456      -32.2455      -32.2455   0.00011  -5.6395
siesta:   68      -32.2456      -32.2455      -32.2455   0.00010  -5.6395
siesta:   69      -32.2456      -32.2455      -32.2455   0.00010  -5.6396
siesta:   70      -32.2456      -32.2455      -32.2455   0.00010  -5.6396
grdsam: Grid-cell sampling, point   0
grdsam: Grid-cell sampling, point   1
grdsam: Grid-cell sampling, point   2
grdsam: Grid-cell sampling, point   3

siesta: E_KS(eV) =              -32.2455

siesta: Atomic forces (eV/Ang):
     1   -0.002979   -0.002689   -1.779220
     2    0.002957    0.002670    1.779269
----------------------------------------
 Tot   -0.000022   -0.000019    0.000049
----------------------------------------
 Max    1.779269
 Res    1.027250    sqrt( Sum f_i^2 / 3N )
----------------------------------------
 Max    1.779269    constrained
 
mulliken: Atomic and Orbital Populations:

Species: H                   
Atom  Qatom  Qorb
               1s      1s      2py     2pz     2px     
   1  1.137   1.079   0.078   0.000  -0.021   0.000
   2  0.863   0.748   0.075   0.000   0.040   0.000

mulliken: Qtot =    2.000
 
* Maximum dynamic memory allocated =   251 MB

siesta:                 ==============================
                            Begin CG move =      4
                        ==============================

outcoor: Atomic coordinates (Ang):                          
    3.25353201    5.72009504   18.92650888   1  H          1
    3.25933209    5.72532107   19.72983090   1  H          2

siesta: iscf   Eharris(eV)      E_KS(eV)   FreeEng(eV)     dDmax   Ef(eV)
siesta:    1      -32.2974      -32.2748      -32.2748   0.01949  -5.1569
siesta:    2      -32.2949      -32.2929      -32.2929   0.01867  -5.3512
siesta:    3      -32.2943      -32.2887      -32.2887   0.00944  -5.2960
siesta:    4      -32.2942      -32.2924      -32.2924   0.00092  -5.3168
siesta:    5      -32.2942      -32.2932      -32.2932   0.00088  -5.3238
siesta:    6      -32.2942      -32.2943      -32.2943   0.00008  -5.3248
grdsam: Grid-cell sampling, point   0
grdsam: Grid-cell sampling, point   1
grdsam: Grid-cell sampling, point   2
grdsam: Grid-cell sampling, point   3

siesta: E_KS(eV) =              -32.2943

siesta: Atomic forces (eV/Ang):
     1    0.005113    0.004605    0.022219
     2   -0.005112   -0.004606   -0.022152
----------------------------------------
 Tot    0.000001   -0.000001    0.000067
----------------------------------------
 Max    0.022219
 Res    0.013411    sqrt( Sum f_i^2 / 3N )
----------------------------------------
 Max    0.022152    constrained
 
mulliken: Atomic and Orbital Populations:

Species: H                   
Atom  Qatom  Qorb
               1s      1s      2py     2pz     2px     
   1  1.137   1.096   0.066   0.000  -0.024   0.000
   2  0.863   0.758   0.061   0.000   0.044   0.000

mulliken: Qtot =    2.000

cgvc: Finished line minimization    2.  Mean atomic displacement =    0.0038
 
* Maximum dynamic memory allocated =   251 MB

siesta:                 ==============================
                            Begin CG move =      5
                        ==============================

outcoor: Atomic coordinates (Ang):                          
    3.25353201    5.72009504   18.92650888   1  H          1
    3.25880072    5.72484230   19.72705607   1  H          2

siesta: iscf   Eharris(eV)      E_KS(eV)   FreeEng(eV)     dDmax   Ef(eV)
siesta:    1      -32.2941      -32.2941      -32.2941   0.00089  -5.3468
siesta:    2      -32.2941      -32.2941      -32.2941   0.00092  -5.3377
siesta:    3      -32.2941      -32.2941      -32.2941   0.00047  -5.3404
siesta:    4      -32.2941      -32.2941      -32.2941   0.00003  -5.3391
grdsam: Grid-cell sampling, point   0
grdsam: Grid-cell sampling, point   1
grdsam: Grid-cell sampling, point   2
grdsam: Grid-cell sampling, point   3

siesta: E_KS(eV) =              -32.2941

siesta: Atomic forces (eV/Ang):
     1    0.004149    0.003736   -0.039801
     2   -0.004152   -0.003741    0.039868
----------------------------------------
 Tot   -0.000004   -0.000005    0.000067
----------------------------------------
 Max    0.039868
 Res    0.023224    sqrt( Sum f_i^2 / 3N )
----------------------------------------
 Max    0.039868    constrained
 
mulliken: Atomic and Orbital Populations:

Species: H                   
Atom  Qatom  Qorb
               1s      1s      2py     2pz     2px     
   1  1.137   1.095   0.066   0.000  -0.024   0.000
   2  0.863   0.757   0.061   0.000   0.044   0.000

mulliken: Qtot =    2.000
 
* Maximum dynamic memory allocated =   251 MB

siesta:                 ==============================
                            Begin CG move =      6
                        ==============================

outcoor: Atomic coordinates (Ang):                          
    3.25353201    5.72009504   18.92650888   1  H          1
    3.25912820    5.72513736   19.72876617   1  H          2

siesta: iscf   Eharris(eV)      E_KS(eV)   FreeEng(eV)     dDmax   Ef(eV)
siesta:    1      -32.2942      -32.2942      -32.2942   0.00054  -5.3255
siesta:    2      -32.2942      -32.2942      -32.2942   0.00055  -5.3308
siesta:    3      -32.2942      -32.2942      -32.2942   0.00028  -5.3292
siesta:    4      -32.2942      -32.2942      -32.2942   0.00002  -5.3300
grdsam: Grid-cell sampling, point   0
grdsam: Grid-cell sampling, point   1
grdsam: Grid-cell sampling, point   2
grdsam: Grid-cell sampling, point   3

siesta: E_KS(eV) =              -32.2942

siesta: Atomic forces (eV/Ang):
     1    0.004823    0.004343    0.000245
     2   -0.004823   -0.004344   -0.000182
----------------------------------------
 Tot    0.000000   -0.000001    0.000063
----------------------------------------
 Max    0.004823
 Res    0.003749    sqrt( Sum f_i^2 / 3N )
----------------------------------------
 Max    0.004823    constrained
 
mulliken: Atomic and Orbital Populations:

Species: H                   
Atom  Qatom  Qorb
               1s      1s      2py     2pz     2px     
   1  1.137   1.095   0.066   0.000  -0.024   0.000
   2  0.863   0.757   0.061   0.000   0.044   0.000

mulliken: Qtot =    2.000

outcoor: Relaxed atomic coordinates (Ang):                  
    3.25353201    5.72009504   18.92650888   1  H          1
    3.25912820    5.72513736   19.72876617   1  H          2

siesta: Eigenvalues (eV):
  ik is    eps
   1  1 -11.41  -0.57   2.72   2.72   9.30  12.08  12.08  18.94  45.24  87.72
siesta: Fermi energy =      -5.329980 eV

siesta: Program's energy decomposition (eV):
siesta:-Eions   =     -26.074526
siesta: Ena     =       3.718009
siesta: Ekin    =      24.793470
siesta: Enl     =     -15.452230
siesta: DEna    =      -0.845674
siesta: DUscf   =       0.586063
siesta: DUext   =      -2.053256
siesta: Exc     =     -16.966029
siesta: eta*DQ  =       0.000000
siesta: Emadel  =       0.000000
siesta: Ekinion =       0.000000
siesta: Eharris =     -32.294177
siesta: Eso     =       0.000000
siesta: Etot    =     -32.294171
siesta: FreeEng =     -32.294171

siesta: Final energy (eV):
siesta:       Kinetic =      24.793470
siesta:       Hartree =      34.223260
siesta:    Ext. field =      -2.053256
siesta:   Exch.-corr. =     -16.966029
siesta:  Ion-electron =     -92.415815
siesta:       Ion-ion =      20.124199
siesta:       Ekinion =       0.000000
siesta:         Total =     -32.294171

siesta: Stress tensor (static) (eV/Ang**3):
siesta:     0.000668    0.000000    0.000001
siesta:     0.000000    0.000668    0.000001
siesta:     0.000001    0.000001    0.001351

siesta: Cell volume =       3044.391638 Ang**3

siesta: Pressure (static):
siesta:                Solid            Molecule  Units
siesta:          -0.00000976         -0.00000976  Ry/Bohr**3
siesta:          -0.00089581         -0.00089578  eV/Ang**3
siesta:          -1.43525763         -1.43521906  kBar

siesta: Total spin polarization (Qup-Qdown) =    0.000000
siesta: Spin vector =    0.000000    0.000000    0.000000
siesta: No SpinPolK block detected...

siesta: Electric dipole (a.u.)  =    0.001510    0.001361    0.776019
siesta: Electric dipole (Debye) =    0.003839    0.003459    1.972446
 
* Maximum dynamic memory allocated : Node    0 =   243 MB
* Maximum dynamic memory allocated : Node    1 =   242 MB
* Maximum dynamic memory allocated : Node    2 =   251 MB
* Maximum dynamic memory allocated : Node    3 =   251 MB
* Maximum memory occured during redistribXZ                   

timer: CPU execution times:
timer:  Routine       Calls   Time/call    Tot.time        %
timer:  siesta            1    8477.815    8477.815   100.00
timer:  Setup             1       4.928       4.928     0.06
timer:  bands             1       0.000       0.000     0.00
timer:  writewave         1       0.008       0.008     0.00
timer:  KSV_init          1       0.001       0.001     0.00
timer:  IterMD            7    1203.935    8427.545    99.41
timer:  hsparse           8       0.000       0.000     0.00
timer:  overfsm          14       0.006       0.086     0.00
timer:  IterSCF         403      20.897    8421.459    99.34
timer:  kinefsm          14       0.003       0.048     0.00
timer:  nlefsm           14       0.058       0.810     0.01
timer:  DHSCF           425      19.892    8453.990    99.72
timer:  DHSCF1            1       7.717       7.717     0.09
timer:  DHSCF2           29      11.763     341.135     4.02
timer:  REORD          6012       0.055     331.780     3.91
timer:  POISON          454       9.070    4117.833    48.57
timer:  DHSCF3          425      18.958    8056.980    95.04
timer:  rhoofd          425       0.170      72.341     0.85
timer:  CELLXC          425       5.477    2327.622    27.46
timer:  vmat            403       0.137      55.241     0.65
timer:  diagon          396       0.020       7.954     0.09
timer:  rdiag           396       0.013       5.042     0.06
timer:  DHSCF4           28       1.638      45.863     0.54
timer:  dfscf            28       1.335      37.367     0.44
  
>> End of run:   7-NOV-2013  16:41:17
