 DBCSR| CPU Multiplication driver                                           XSMM
 DBCSR| Multrec recursion limit                                              512
 DBCSR| Multiplication stack size                                           1000
 DBCSR| Maximum elements for images                                    UNLIMITED
 DBCSR| Multiplicative factor virtual images                                   1
 DBCSR| Use multiplication densification                                       T
 DBCSR| Multiplication size stacks                                             3
 DBCSR| Use memory pool for CPU allocation                                     F
 DBCSR| Number of 3D layers                                               SINGLE
 DBCSR| Use MPI memory allocation                                              F
 DBCSR| Use RMA algorithm                                                      F
 DBCSR| Use Communication thread                                               T
 DBCSR| Communication thread load                                             87
 DBCSR| MPI: My node id                                                        0
 DBCSR| MPI: Number of nodes                                                 240
 DBCSR| OMP: Current number of threads                                         1
 DBCSR| OMP: Max number of threads                                             1
 DBCSR| Split modifier for TAS multiplication algorithm                  1.0E+00


  **** **** ******  **  PROGRAM STARTED AT               2023-02-21 14:12:24.727
 ***** ** ***  *** **   PROGRAM STARTED ON                 cn1128.scarf.rl.ac.uk
 **    ****   ******    PROGRAM STARTED BY                             scarf1157
 ***** **    ** ** **   PROGRAM PROCESS ID                                 27637
  **** **  *******  **  PROGRAM STARTED IN /work4/scd/scarf1157/work/testing/cp2
                                           k-smeagol/bdt/cp2k/hollow-site/transp
                                           ort-cp2k/5-4/geometry-ordered/3x3-4/s
                                           z/bulk_layers-4/kpoints_bulk-2-2-100_
                                           em-2-2-1_hlb-10.98783

 CP2K| version string:                 CP2K version 2022.1 (Development Version)
 CP2K| source code revision number:                                  git:1ef701d
 CP2K| cp2kflags: omp fftw3 libxc parallel mpi3 scalapack xsmm spglib           
 CP2K| is freely available from                            https://www.cp2k.org/
 CP2K| Program compiled at                          Thu 26 Jan 13:39:53 GMT 2023
 CP2K| Program compiled on                                 cn1108.scarf.rl.ac.uk
 CP2K| Program compiled for                                                local
 CP2K| Data directory path    /home/vol07/scarf1157/code/smeagol/cp2k-smeagol/sc
 CP2K| Input file name                                                  3_0V.inp

 GLOBAL| Force Environment number                                              1
 GLOBAL| Basis set file name                                        BASIS_MOLOPT
 GLOBAL| Potential file name                                      GTH_POTENTIALS
 GLOBAL| MM Potential file name                                     MM_POTENTIAL
 GLOBAL| Coordinate file name                                             em.xyz
 GLOBAL| Method name                                                        CP2K
 GLOBAL| Project name                                                         0V
 GLOBAL| Run type                                                         ENERGY
 GLOBAL| FFT library                                                       FFTW3
 GLOBAL| Diagonalization library                                       ScaLAPACK
 GLOBAL| Orthonormality check for eigenvectors                          DISABLED
 GLOBAL| Matrix multiplication library                                 ScaLAPACK
 GLOBAL| All-to-all communication in single precision                          F
 GLOBAL| FFTs using library dependent lengths                                  T
 GLOBAL| Grid backend                                                       AUTO
 GLOBAL| Global print level                                               MEDIUM
 GLOBAL| MPI I/O enabled                                                       T
 GLOBAL| Total number of message passing processes                           240
 GLOBAL| Number of threads for this process                                    1
 GLOBAL| This output is from process                                           0
 GLOBAL| Stack size for threads created by OpenMP (OMP_STACKSIZE)        default
 GLOBAL| CPU model name                         AMD EPYC 7502P 32-Core Processor
 GLOBAL| CPUID                                                              1002

 MEMORY| system memory details [Kb]
 MEMORY|                        rank 0           min           max       average
 MEMORY| MemTotal            263896984     263896980     263896984     263896982
 MEMORY| MemFree             209386416     209386416     230598164     217692653
 MEMORY| Buffers                  2568          2560          2568          2567
 MEMORY| Cached               38705024      18048156      38705024      30698659
 MEMORY| Slab                  1026720        985176       1070720       1031327
 MEMORY| SReclaimable           545176        508000        570352        539669
 MEMORY| MemLikelyFree       248639184     248639184     249162636     248933549


 *** Fundamental physical constants (SI units) ***

 *** Literature: B. J. Mohr and B. N. Taylor,
 ***             CODATA recommended values of the fundamental physical
 ***             constants: 2006, Web Version 5.1
 ***             http://physics.nist.gov/constants

 Speed of light in vacuum [m/s]                             2.99792458000000E+08
 Magnetic constant or permeability of vacuum [N/A**2]       1.25663706143592E-06
 Electric constant or permittivity of vacuum [F/m]          8.85418781762039E-12
 Planck constant (h) [J*s]                                  6.62606896000000E-34
 Planck constant (h-bar) [J*s]                              1.05457162825177E-34
 Elementary charge [C]                                      1.60217648700000E-19
 Electron mass [kg]                                         9.10938215000000E-31
 Electron g factor [ ]                                     -2.00231930436220E+00
 Proton mass [kg]                                           1.67262163700000E-27
 Fine-structure constant                                    7.29735253760000E-03
 Rydberg constant [1/m]                                     1.09737315685270E+07
 Avogadro constant [1/mol]                                  6.02214179000000E+23
 Boltzmann constant [J/K]                                   1.38065040000000E-23
 Atomic mass unit [kg]                                      1.66053878200000E-27
 Bohr radius [m]                                            5.29177208590000E-11

 *** Conversion factors ***

 [u] -> [a.u.]                                              1.82288848426455E+03
 [Angstrom] -> [Bohr] = [a.u.]                              1.88972613288564E+00
 [a.u.] = [Bohr] -> [Angstrom]                              5.29177208590000E-01
 [a.u.] -> [s]                                              2.41888432650478E-17
 [a.u.] -> [fs]                                             2.41888432650478E-02
 [a.u.] -> [J]                                              4.35974393937059E-18
 [a.u.] -> [N]                                              8.23872205491840E-08
 [a.u.] -> [K]                                              3.15774647902944E+05
 [a.u.] -> [kJ/mol]                                         2.62549961709828E+03
 [a.u.] -> [kcal/mol]                                       6.27509468713739E+02
 [a.u.] -> [Pa]                                             2.94210107994716E+13
 [a.u.] -> [bar]                                            2.94210107994716E+08
 [a.u.] -> [atm]                                            2.90362800883016E+08
 [a.u.] -> [eV]                                             2.72113838565563E+01
 [a.u.] -> [Hz]                                             6.57968392072181E+15
 [a.u.] -> [1/cm] (wave numbers)                            2.19474631370540E+05
 [a.u./Bohr**2] -> [1/cm]                                   5.14048714338585E+03
 

 CELL_TOP| Volume [angstrom^3]:                                      2357.480286
 CELL_TOP| Vector a [angstrom     8.336     0.000     0.000   |a| =     8.336000
 CELL_TOP| Vector b [angstrom     0.000     8.336     0.000   |b| =     8.336000
 CELL_TOP| Vector c [angstrom     0.000     0.000    33.926   |c| =    33.926000
 CELL_TOP| Angle (b,c), alpha [degree]:                                90.000000
 CELL_TOP| Angle (a,c), beta  [degree]:                                90.000000
 CELL_TOP| Angle (a,b), gamma [degree]:                                90.000000
 CELL_TOP| Numerically orthorhombic:                                         YES
 CELL_TOP| Periodicity                                                       XYZ

 GENERATE|  Preliminary Number of Bonds generated:                             0
 GENERATE|  Achieved consistency in connectivity generation.

 CELL| Volume [angstrom^3]:                                          2357.480286
 CELL| Vector a [angstrom]:       8.336     0.000     0.000   |a| =     8.336000
 CELL| Vector b [angstrom]:       0.000     8.336     0.000   |b| =     8.336000
 CELL| Vector c [angstrom]:       0.000     0.000    33.926   |c| =    33.926000
 CELL| Angle (b,c), alpha [degree]:                                    90.000000
 CELL| Angle (a,c), beta  [degree]:                                    90.000000
 CELL| Angle (a,b), gamma [degree]:                                    90.000000
 CELL| Numerically orthorhombic:                                             YES
 CELL| Periodicity                                                           XYZ

 CELL_REF| Volume [angstrom^3]:                                      2357.480286
 CELL_REF| Vector a [angstrom     8.336     0.000     0.000   |a| =     8.336000
 CELL_REF| Vector b [angstrom     0.000     8.336     0.000   |b| =     8.336000
 CELL_REF| Vector c [angstrom     0.000     0.000    33.926   |c| =    33.926000
 CELL_REF| Angle (b,c), alpha [degree]:                                90.000000
 CELL_REF| Angle (a,c), beta  [degree]:                                90.000000
 CELL_REF| Angle (a,b), gamma [degree]:                                90.000000
 CELL_REF| Numerically orthorhombic:                                         YES
 CELL_REF| Periodicity                                                       XYZ

 *******************************************************************************
                                    Kpoints
 *******************************************************************************
 BRILLOUIN| K-point scheme                                        Monkhorst-Pack
 BRILLOUIN| K-Point grid                                             2    2    1
 BRILLOUIN| Accuracy in Symmetry determination                      0.100000E-07
 BRILLOUIN| K-Point point group symmetrization                               OFF
 BRILLOUIN| Wavefunction type                                            COMPLEX
 BRILLOUIN| Use full k-point grid     
 BRILLOUIN| List of Kpoints [2 Pi/Bohr]                                        4
 BRILLOUIN| Number           Weight            X              Y              Z
 BRILLOUIN|     1           0.25000       -0.25000       -0.25000        0.00000
 BRILLOUIN|     2           0.25000       -0.25000        0.25000        0.00000
 BRILLOUIN|     3           0.25000        0.25000       -0.25000        0.00000
 BRILLOUIN|     4           0.25000        0.25000        0.25000        0.00000
 *******************************************************************************

 *******************************************************************************
 *******************************************************************************
 **                                                                           **
 **     #####                         ##              ##                      **
 **    ##   ##            ##          ##              ##                      **
 **   ##     ##                       ##            ######                    **
 **   ##     ##  ##   ##  ##   #####  ##  ##   ####   ##    #####    #####    **
 **   ##     ##  ##   ##  ##  ##      ## ##   ##      ##   ##   ##  ##   ##   **
 **   ##  ## ##  ##   ##  ##  ##      ####     ###    ##   ######   ######    **
 **    ##  ###   ##   ##  ##  ##      ## ##      ##   ##   ##       ##        **
 **     #######   #####   ##   #####  ##  ##  ####    ##    #####   ##        **
 **           ##                                                    ##        **
 **                                                                           **
 **                                                ... make the atoms dance   **
 **                                                                           **
 **            Copyright (C) by CP2K developers group (2000-2022)             **
 **                      J. Chem. Phys. 152, 194103 (2020)                    **
 **                                                                           **
 *******************************************************************************

 DFT| Spin restricted Kohn-Sham (RKS) calculation                            RKS
 DFT| Multiplicity                                                             1
 DFT| Number of spin states                                                    1
 DFT| Charge                                                                   0
 DFT| Self-interaction correction (SIC)                                       NO
 DFT| Cutoffs: density                                              1.000000E-10
 DFT|          gradient                                             1.000000E-10
 DFT|          tau                                                  1.000000E-10
 DFT|          cutoff_smoothing_range                               0.000000E+00
 DFT| XC density smoothing                                                  NONE
 DFT| XC derivatives                                                          PW

 FUNCTIONAL| PADE:
 FUNCTIONAL| S. Goedecker, M. Teter and J. Hutter, Phys. Rev. B 54, 1703 (1996) 


 QS| Method:                                                                 GPW
 QS| Density plane wave grid type                        NON-SPHERICAL FULLSPACE
 QS| Number of grid levels:                                                    4
 QS| Density cutoff [a.u.]:                                                200.0
 QS| Multi grid cutoff [a.u.]: 1) grid level                               200.0
 QS|                           2) grid level                                66.7
 QS|                           3) grid level                                22.2
 QS|                           4) grid level                                 7.4
 QS| Grid level progression factor:                                          3.0
 QS| Relative density cutoff [a.u.]:                                        20.0
 QS| Interaction thresholds: eps_pgf_orb:                                1.0E-05
 QS|                         eps_filter_matrix:                          0.0E+00
 QS|                         eps_core_charge:                            1.0E-12
 QS|                         eps_rho_gspace:                             1.0E-10
 QS|                         eps_rho_rspace:                             1.0E-10
 QS|                         eps_gvg_rspace:                             1.0E-05
 QS|                         eps_ppl:                                    1.0E-02
 QS|                         eps_ppnl:                                   1.0E-07


 ATOMIC KIND INFORMATION

  1. Atomic kind: Au                                    Number of atoms:     104

     Orbital Basis Set                                         SZV-MOLOPT-SR-GTH

       Number of orbital shell sets:                                           1
       Number of orbital shells:                                               3
       Number of primitive Cartesian functions:                                5
       Number of Cartesian basis functions:                                   10
       Number of spherical basis functions:                                    9
       Norm type:                                                              2

       Normalised Cartesian orbitals:

                        Set   Shell   Orbital            Exponent    Coefficient

                          1       1    2s                2.950008       0.074626
                                                         1.563057      -0.007898
                                                         0.666664      -0.297688
                                                         0.251083       0.136809
                                                         0.081714       0.088198

                          1       2    3px               2.950008       0.148824
                                                         1.563057       0.025430
                                                         0.666664      -0.123003
                                                         0.251083       0.033648
                                                         0.081714       0.059008
                          1       2    3py               2.950008       0.148824
                                                         1.563057       0.025430
                                                         0.666664      -0.123003
                                                         0.251083       0.033648
                                                         0.081714       0.059008
                          1       2    3pz               2.950008       0.148824
                                                         1.563057       0.025430
                                                         0.666664      -0.123003
                                                         0.251083       0.033648
                                                         0.081714       0.059008

                          1       3    4dx2              2.950008      -0.139595
                                                         1.563057       1.319655
                                                         0.666664       0.377081
                                                         0.251083       0.046872
                                                         0.081714       0.001393
                          1       3    4dxy              2.950008      -0.241786
                                                         1.563057       2.285709
                                                         0.666664       0.653124
                                                         0.251083       0.081185
                                                         0.081714       0.002412
                          1       3    4dxz              2.950008      -0.241786
                                                         1.563057       2.285709
                                                         0.666664       0.653124
                                                         0.251083       0.081185
                                                         0.081714       0.002412
                          1       3    4dy2              2.950008      -0.139595
                                                         1.563057       1.319655
                                                         0.666664       0.377081
                                                         0.251083       0.046872
                                                         0.081714       0.001393
                          1       3    4dyz              2.950008      -0.241786
                                                         1.563057       2.285709
                                                         0.666664       0.653124
                                                         0.251083       0.081185
                                                         0.081714       0.002412
                          1       3    4dz2              2.950008      -0.139595
                                                         1.563057       1.319655
                                                         0.666664       0.377081
                                                         0.251083       0.046872
                                                         0.081714       0.001393

       Atomic covalent radius [Angstrom]:                                  1.340

       Atomic van der Waals radius [Angstrom]:                             1.660

     GTH Potential information for                                  GTH-PADE-q11

       Description:                       Goedecker-Teter-Hutter pseudopotential
                                           Goedecker et al., PRB 54, 1703 (1996)
                                          Hartwigsen et al., PRB 58, 3641 (1998)
                                                      Krack, TCA 114, 145 (2005)

       Gaussian exponent of the core charge distribution:               1.436369
       Electronic configuration (s p d ...):                           1   0  10

       Parameters of the local part of the GTH pseudopotential:

                          rloc        C1          C2          C3          C4
                        0.590000   11.604428

       Parameters of the non-local part of the GTH pseudopotential:

                   l      r(l)      h(i,j,l)

                   0    0.521180    2.538614   -1.046137
                                   -1.046137    2.701113
                   1    0.630613    0.394853   -0.869592
                                   -0.869592    2.057831
                   2    0.440706   -4.719070    0.727771
                                    0.727771   -1.650429

  2. Atomic kind: S                                     Number of atoms:       2

     Orbital Basis Set                                         SZV-MOLOPT-SR-GTH

       Number of orbital shell sets:                                           1
       Number of orbital shells:                                               2
       Number of primitive Cartesian functions:                                4
       Number of Cartesian basis functions:                                    4
       Number of spherical basis functions:                                    4
       Norm type:                                                              2

       Normalised Cartesian orbitals:

                        Set   Shell   Orbital            Exponent    Coefficient

                          1       1    2s                2.215855       0.308496
                                                         1.131471       0.138505
                                                         0.410168      -0.373736
                                                         0.140587      -0.040370

                          1       2    3px               2.215855       0.420434
                                                         1.131471      -0.319283
                                                         0.410168      -0.335323
                                                         0.140587      -0.030976
                          1       2    3py               2.215855       0.420434
                                                         1.131471      -0.319283
                                                         0.410168      -0.335323
                                                         0.140587      -0.030976
                          1       2    3pz               2.215855       0.420434
                                                         1.131471      -0.319283
                                                         0.410168      -0.335323
                                                         0.140587      -0.030976

       Atomic covalent radius [Angstrom]:                                  1.020

       Atomic van der Waals radius [Angstrom]:                             1.800

     GTH Potential information for                                   GTH-PADE-q6

       Description:                       Goedecker-Teter-Hutter pseudopotential
                                           Goedecker et al., PRB 54, 1703 (1996)
                                          Hartwigsen et al., PRB 58, 3641 (1998)
                                                      Krack, TCA 114, 145 (2005)

       Gaussian exponent of the core charge distribution:               2.834467
       Electronic configuration (s p d ...):                               2   4

       Parameters of the local part of the GTH pseudopotential:

                          rloc        C1          C2          C3          C4
                        0.420000   -6.554492

       Parameters of the non-local part of the GTH pseudopotential:

                   l      r(l)      h(i,j,l)

                   0    0.361757    7.905303   -1.731881
                                   -1.731881    4.471698
                   1    0.405285    3.866579

  3. Atomic kind: C                                     Number of atoms:       6

     Orbital Basis Set                                         SZV-MOLOPT-SR-GTH

       Number of orbital shell sets:                                           1
       Number of orbital shells:                                               2
       Number of primitive Cartesian functions:                                5
       Number of Cartesian basis functions:                                    4
       Number of spherical basis functions:                                    4
       Norm type:                                                              2

       Normalised Cartesian orbitals:

                        Set   Shell   Orbital            Exponent    Coefficient

                          1       1    2s                5.605331       0.322515
                                                         2.113016       0.213043
                                                         0.769911      -0.209686
                                                         0.348157      -0.219794
                                                         0.128212      -0.022789

                          1       2    3px               5.605331      -0.703879
                                                         2.113016      -0.642521
                                                         0.769911      -0.374851
                                                         0.348157      -0.139743
                                                         0.128212      -0.027849
                          1       2    3py               5.605331      -0.703879
                                                         2.113016      -0.642521
                                                         0.769911      -0.374851
                                                         0.348157      -0.139743
                                                         0.128212      -0.027849
                          1       2    3pz               5.605331      -0.703879
                                                         2.113016      -0.642521
                                                         0.769911      -0.374851
                                                         0.348157      -0.139743
                                                         0.128212      -0.027849

       Atomic covalent radius [Angstrom]:                                  0.770

       Atomic van der Waals radius [Angstrom]:                             1.700

     GTH Potential information for                                   GTH-PADE-q4

       Description:                       Goedecker-Teter-Hutter pseudopotential
                                           Goedecker et al., PRB 54, 1703 (1996)
                                          Hartwigsen et al., PRB 58, 3641 (1998)
                                                      Krack, TCA 114, 145 (2005)

       Gaussian exponent of the core charge distribution:               4.109048
       Electronic configuration (s p d ...):                               2   2

       Parameters of the local part of the GTH pseudopotential:

                          rloc        C1          C2          C3          C4
                        0.348830   -8.513771    1.228432

       Parameters of the non-local part of the GTH pseudopotential:

                   l      r(l)      h(i,j,l)

                   0    0.304553    9.522842
                   1    0.232677

  4. Atomic kind: H                                     Number of atoms:       4

     Orbital Basis Set                                         SZV-MOLOPT-SR-GTH

       Number of orbital shell sets:                                           1
       Number of orbital shells:                                               1
       Number of primitive Cartesian functions:                                5
       Number of Cartesian basis functions:                                    1
       Number of spherical basis functions:                                    1
       Norm type:                                                              2

       Normalised Cartesian orbitals:

                        Set   Shell   Orbital            Exponent    Coefficient

                          1       1    2s               10.068468      -0.133023
                                                         2.680223      -0.177618
                                                         0.791502      -0.258419
                                                         0.239116      -0.107525
                                                         0.082193      -0.014019

       Atomic covalent radius [Angstrom]:                                  0.320

       Atomic van der Waals radius [Angstrom]:                             1.090

     GTH Potential information for                                   GTH-PADE-q1

       Description:                       Goedecker-Teter-Hutter pseudopotential
                                           Goedecker et al., PRB 54, 1703 (1996)
                                          Hartwigsen et al., PRB 58, 3641 (1998)
                                                      Krack, TCA 114, 145 (2005)

       Gaussian exponent of the core charge distribution:              12.500000
       Electronic configuration (s p d ...):                                   1

       Parameters of the local part of the GTH pseudopotential:

                          rloc        C1          C2          C3          C4
                        0.200000   -4.180237    0.725075


 MOLECULE KIND INFORMATION


 All atoms are their own molecule, skipping detailed information


 TOTAL NUMBERS AND MAXIMUM NUMBERS

  Total number of            - Atomic kinds:                                   4
                             - Atoms:                                        116
                             - Shell sets:                                   116
                             - Shells:                                       332
                             - Primitive Cartesian functions:                578
                             - Cartesian basis functions:                   1076
                             - Spherical basis functions:                    972

  Maximum angular momentum of- Orbital basis functions:                        2
                             - Local part of the GTH pseudopotential:          2
                             - Non-local part of the GTH pseudopotential:      4


 MODULE QUICKSTEP: ATOMIC COORDINATES IN ANGSTROM

   Atom Kind Element         X             Y             Z       Z(eff)     Mass
      1    1 Au   79      0.000000      0.000000      0.000000  11.0000 196.9666
      2    1 Au   79      0.000000      4.168000      0.000000  11.0000 196.9666
      3    1 Au   79      2.084000      2.084000      0.000000  11.0000 196.9666
      4    1 Au   79      2.084000      6.252000      0.000000  11.0000 196.9666
      5    1 Au   79      4.168000      0.000000      0.000000  11.0000 196.9666
      6    1 Au   79      4.168000      4.168000      0.000000  11.0000 196.9666
      7    1 Au   79      6.252000      2.084000      0.000000  11.0000 196.9666
      8    1 Au   79      6.252000      6.252000      0.000000  11.0000 196.9666
      9    1 Au   79      0.000000      2.084000      2.084000  11.0000 196.9666
     10    1 Au   79      0.000000      6.252000      2.084000  11.0000 196.9666
     11    1 Au   79      2.084000      0.000000      2.084000  11.0000 196.9666
     12    1 Au   79      2.084000      4.168000      2.084000  11.0000 196.9666
     13    1 Au   79      4.168000      2.084000      2.084000  11.0000 196.9666
     14    1 Au   79      4.168000      6.252000      2.084000  11.0000 196.9666
     15    1 Au   79      6.252000      0.000000      2.084000  11.0000 196.9666
     16    1 Au   79      6.252000      4.168000      2.084000  11.0000 196.9666
     17    1 Au   79      0.000000      0.000000      4.168000  11.0000 196.9666
     18    1 Au   79      0.000000      4.168000      4.168000  11.0000 196.9666
     19    1 Au   79      2.084000      2.084000      4.168000  11.0000 196.9666
     20    1 Au   79      2.084000      6.252000      4.168000  11.0000 196.9666
     21    1 Au   79      4.168000      0.000000      4.168000  11.0000 196.9666
     22    1 Au   79      4.168000      4.168000      4.168000  11.0000 196.9666
     23    1 Au   79      6.252000      2.084000      4.168000  11.0000 196.9666
     24    1 Au   79      6.252000      6.252000      4.168000  11.0000 196.9666
     25    1 Au   79      0.000000      2.084000      6.252000  11.0000 196.9666
     26    1 Au   79      0.000000      6.252000      6.252000  11.0000 196.9666
     27    1 Au   79      2.084000      0.000000      6.252000  11.0000 196.9666
     28    1 Au   79      2.084000      4.168000      6.252000  11.0000 196.9666
     29    1 Au   79      4.168000      2.084000      6.252000  11.0000 196.9666
     30    1 Au   79      4.168000      6.252000      6.252000  11.0000 196.9666
     31    1 Au   79      6.252000      0.000000      6.252000  11.0000 196.9666
     32    1 Au   79      6.252000      4.168000      6.252000  11.0000 196.9666
     33    1 Au   79      0.000000      0.000000      8.336000  11.0000 196.9666
     34    1 Au   79      0.000000      4.168000      8.336000  11.0000 196.9666
     35    1 Au   79      2.084000      2.084000      8.336000  11.0000 196.9666
     36    1 Au   79      2.084000      6.252000      8.336000  11.0000 196.9666
     37    1 Au   79      4.168000      0.000000      8.336000  11.0000 196.9666
     38    1 Au   79      4.168000      4.168000      8.336000  11.0000 196.9666
     39    1 Au   79      6.252000      2.084000      8.336000  11.0000 196.9666
     40    1 Au   79      6.252000      6.252000      8.336000  11.0000 196.9666
     41    1 Au   79      0.000000      2.084000     10.420000  11.0000 196.9666
     42    1 Au   79      0.000000      6.252000     10.420000  11.0000 196.9666
     43    1 Au   79      2.084000      0.000000     10.420000  11.0000 196.9666
     44    1 Au   79      2.084000      4.168000     10.420000  11.0000 196.9666
     45    1 Au   79      4.168000      2.084000     10.420000  11.0000 196.9666
     46    1 Au   79      4.168000      6.252000     10.420000  11.0000 196.9666
     47    1 Au   79      6.252000      0.000000     10.420000  11.0000 196.9666
     48    1 Au   79      6.252000      4.168000     10.420000  11.0000 196.9666
     49    1 Au   79      0.000000      0.000000     12.504000  11.0000 196.9666
     50    1 Au   79      0.000000      4.168000     12.504000  11.0000 196.9666
     51    1 Au   79      2.084000      2.084000     12.504000  11.0000 196.9666
     52    1 Au   79      2.084000      6.252000     12.504000  11.0000 196.9666
     53    1 Au   79      4.168000      0.000000     12.504000  11.0000 196.9666
     54    1 Au   79      4.168000      4.168000     12.504000  11.0000 196.9666
     55    1 Au   79      6.252000      2.084000     12.504000  11.0000 196.9666
     56    1 Au   79      6.252000      6.252000     12.504000  11.0000 196.9666
     57    2 S    16      4.171000      2.086000     13.790000   6.0000  32.0650
     58    3 C     6      4.175000      2.089000     15.551000   4.0000  12.0107
     59    4 H     1      2.073000      2.116000     15.734000   1.0000   1.0079
     60    4 H     1      6.269000      2.116000     15.740000   1.0000   1.0079
     61    3 C     6      2.965000      2.095000     16.251000   4.0000  12.0107
     62    3 C     6      5.373000      2.095000     16.251000   4.0000  12.0107
     63    3 C     6      2.959000      2.074000     17.674000   4.0000  12.0107
     64    3 C     6      5.367000      2.074000     17.674000   4.0000  12.0107
     65    4 H     1      2.063000      2.053000     18.186000   1.0000   1.0079
     66    4 H     1      6.259000      2.053000     18.192000   1.0000   1.0079
     67    3 C     6      4.157000      2.080000     18.375000   4.0000  12.0107
     68    2 S    16      4.171000      2.086000     20.136000   6.0000  32.0650
     69    1 Au   79      0.000000      0.000000     21.422000  11.0000 196.9666
     70    1 Au   79      0.000000      4.168000     21.422000  11.0000 196.9666
     71    1 Au   79      2.084000      2.084000     21.422000  11.0000 196.9666
     72    1 Au   79      2.084000      6.252000     21.422000  11.0000 196.9666
     73    1 Au   79      4.168000      0.000000     21.422000  11.0000 196.9666
     74    1 Au   79      4.168000      4.168000     21.422000  11.0000 196.9666
     75    1 Au   79      6.252000      2.084000     21.422000  11.0000 196.9666
     76    1 Au   79      6.252000      6.252000     21.422000  11.0000 196.9666
     77    1 Au   79      0.000000      2.084000     23.506000  11.0000 196.9666
     78    1 Au   79      0.000000      6.252000     23.506000  11.0000 196.9666
     79    1 Au   79      2.084000      0.000000     23.506000  11.0000 196.9666
     80    1 Au   79      2.084000      4.168000     23.506000  11.0000 196.9666
     81    1 Au   79      4.168000      2.084000     23.506000  11.0000 196.9666
     82    1 Au   79      4.168000      6.252000     23.506000  11.0000 196.9666
     83    1 Au   79      6.252000      0.000000     23.506000  11.0000 196.9666
     84    1 Au   79      6.252000      4.168000     23.506000  11.0000 196.9666
     85    1 Au   79      0.000000      0.000000     25.590000  11.0000 196.9666
     86    1 Au   79      0.000000      4.168000     25.590000  11.0000 196.9666
     87    1 Au   79      2.084000      2.084000     25.590000  11.0000 196.9666
     88    1 Au   79      2.084000      6.252000     25.590000  11.0000 196.9666
     89    1 Au   79      4.168000      0.000000     25.590000  11.0000 196.9666
     90    1 Au   79      4.168000      4.168000     25.590000  11.0000 196.9666
     91    1 Au   79      6.252000      2.084000     25.590000  11.0000 196.9666
     92    1 Au   79      6.252000      6.252000     25.590000  11.0000 196.9666
     93    1 Au   79      0.000000      2.084000     27.674000  11.0000 196.9666
     94    1 Au   79      0.000000      6.252000     27.674000  11.0000 196.9666
     95    1 Au   79      2.084000      0.000000     27.674000  11.0000 196.9666
     96    1 Au   79      2.084000      4.168000     27.674000  11.0000 196.9666
     97    1 Au   79      4.168000      2.084000     27.674000  11.0000 196.9666
     98    1 Au   79      4.168000      6.252000     27.674000  11.0000 196.9666
     99    1 Au   79      6.252000      0.000000     27.674000  11.0000 196.9666
    100    1 Au   79      6.252000      4.168000     27.674000  11.0000 196.9666
    101    1 Au   79      0.000000      0.000000     29.758000  11.0000 196.9666
    102    1 Au   79      0.000000      4.168000     29.758000  11.0000 196.9666
    103    1 Au   79      2.084000      2.084000     29.758000  11.0000 196.9666
    104    1 Au   79      2.084000      6.252000     29.758000  11.0000 196.9666
    105    1 Au   79      4.168000      0.000000     29.758000  11.0000 196.9666
    106    1 Au   79      4.168000      4.168000     29.758000  11.0000 196.9666
    107    1 Au   79      6.252000      2.084000     29.758000  11.0000 196.9666
    108    1 Au   79      6.252000      6.252000     29.758000  11.0000 196.9666
    109    1 Au   79      0.000000      2.084000     31.842000  11.0000 196.9666
    110    1 Au   79      0.000000      6.252000     31.842000  11.0000 196.9666
    111    1 Au   79      2.084000      0.000000     31.842000  11.0000 196.9666
    112    1 Au   79      2.084000      4.168000     31.842000  11.0000 196.9666
    113    1 Au   79      4.168000      2.084000     31.842000  11.0000 196.9666
    114    1 Au   79      4.168000      6.252000     31.842000  11.0000 196.9666
    115    1 Au   79      6.252000      0.000000     31.842000  11.0000 196.9666
    116    1 Au   79      6.252000      4.168000     31.842000  11.0000 196.9666



 SCF PARAMETERS         Density guess:                                   RESTART
                        --------------------------------------------------------
                        max_scf:                                             100
                        max_scf_history:                                       0
                        max_diis:                                              4
                        --------------------------------------------------------
                        eps_scf:                                        1.00E-07
                        eps_scf_history:                                0.00E+00
                        eps_diis:                                       1.00E-01
                        eps_eigval:                                     1.00E-05
                        --------------------------------------------------------
                        level_shift [a.u.]:                             0.000000
                        added MOs                                       100    0
                        --------------------------------------------------------
                        Mixing method:                            BROYDEN_MIXING
                                                charge density mixing in g-space
                        --------------------------------------------------------
                        Smear method:                                FERMI_DIRAC
                        Electronic temperature [K]:                        293.0
                        Electronic temperature [a.u.]:                  9.28E-04
                        Accuracy threshold:                             1.00E-10
                        --------------------------------------------------------
                        No outer SCF

 PW_GRID| Information for grid number                                          1
 PW_GRID| Grid distributed over                                   240 processors
 PW_GRID| Real space group dimensions                                    12   20
 PW_GRID| the grid is blocked:                                               YES
 PW_GRID| Cutoff [a.u.]                                                    200.0
 PW_GRID| spherical cutoff:                                                   NO
 PW_GRID|   Bounds   1            -52      52                Points:         105
 PW_GRID|   Bounds   2            -52      52                Points:         105
 PW_GRID|   Bounds   3           -210     209                Points:         420
 PW_GRID| Volume element (a.u.^3)  0.3436E-02     Volume (a.u.^3)     15909.0657
 PW_GRID| Grid span                                                    FULLSPACE
 PW_GRID|   Distribution                         Average         Max         Min
 PW_GRID|   G-Vectors                            19293.8       19845       17640
 PW_GRID|   G-Rays                                 183.8         189         168
 PW_GRID|   Real Space Points                    19293.8       19845       17640

 PW_GRID| Information for grid number                                          2
 PW_GRID| Number of the reference grid                                         1
 PW_GRID| Grid distributed over                                   240 processors
 PW_GRID| Real space group dimensions                                    12   20
 PW_GRID| the grid is blocked:                                                NO
 PW_GRID| Cutoff [a.u.]                                                     66.7
 PW_GRID| spherical cutoff:                                                   NO
 PW_GRID|   Bounds   1            -30      29                Points:          60
 PW_GRID|   Bounds   2            -30      29                Points:          60
 PW_GRID|   Bounds   3           -120     119                Points:         240
 PW_GRID| Volume element (a.u.^3)  0.1841E-01     Volume (a.u.^3)     15909.0657
 PW_GRID| Grid span                                                    FULLSPACE
 PW_GRID|   Distribution                         Average         Max         Min
 PW_GRID|   G-Vectors                             3600.0       11340           0
 PW_GRID|   G-Rays                                  60.0         189           0
 PW_GRID|   Real Space Points                     3600.0        3600        3600

 PW_GRID| Information for grid number                                          3
 PW_GRID| Number of the reference grid                                         1
 PW_GRID| Grid distributed over                                   240 processors
 PW_GRID| Real space group dimensions                                    12   20
 PW_GRID| the grid is blocked:                                                NO
 PW_GRID| Cutoff [a.u.]                                                     22.2
 PW_GRID| spherical cutoff:                                                   NO
 PW_GRID|   Bounds   1            -16      16                Points:          33
 PW_GRID|   Bounds   2            -16      16                Points:          33
 PW_GRID|   Bounds   3            -70      69                Points:         140
 PW_GRID| Volume element (a.u.^3)  0.1043         Volume (a.u.^3)     15909.0657
 PW_GRID| Grid span                                                    FULLSPACE
 PW_GRID|   Distribution                         Average         Max         Min
 PW_GRID|   G-Vectors                              635.2        6237           0
 PW_GRID|   G-Rays                                  19.2         189           0
 PW_GRID|   Real Space Points                      635.2         840         280

 PW_GRID| Information for grid number                                          4
 PW_GRID| Number of the reference grid                                         1
 PW_GRID| Grid distributed over                                   240 processors
 PW_GRID| Real space group dimensions                                    12   20
 PW_GRID| the grid is blocked:                                                NO
 PW_GRID| Cutoff [a.u.]                                                      7.4
 PW_GRID| spherical cutoff:                                                   NO
 PW_GRID|   Bounds   1            -10       9                Points:          20
 PW_GRID|   Bounds   2            -10       9                Points:          20
 PW_GRID|   Bounds   3            -40      39                Points:          80
 PW_GRID| Volume element (a.u.^3)  0.4972         Volume (a.u.^3)     15909.0657
 PW_GRID| Grid span                                                    FULLSPACE
 PW_GRID|   Distribution                         Average         Max         Min
 PW_GRID|   G-Vectors                              133.3        3780           0
 PW_GRID|   G-Rays                                   6.7         189           0
 PW_GRID|   Real Space Points                      133.3         160          80

 POISSON| Solver                                                        PERIODIC
 POISSON| Periodicity                                                        XYZ

 RS_GRID| Information for grid number                                          1
 RS_GRID|   Bounds   1            -52      52                Points:         105
 RS_GRID|   Bounds   2            -52      52                Points:         105
 RS_GRID|   Bounds   3           -210     209                Points:         420
 RS_GRID| Real space distribution over                                  8 groups
 RS_GRID| Real space distribution along direction                              2
 RS_GRID| Border size                                                         30
 RS_GRID| Real space distribution over                                 30 groups
 RS_GRID| Real space distribution along direction                              3
 RS_GRID| Border size                                                         30
 RS_GRID|   Distribution                         Average         Max         Min
 RS_GRID|   Planes                                  73.1          74          73
 RS_GRID|   Distribution                         Average         Max         Min
 RS_GRID|   Planes                                  74.0          74          74

 RS_GRID| Information for grid number                                          2
 RS_GRID|   Bounds   1            -30      29                Points:          60
 RS_GRID|   Bounds   2            -30      29                Points:          60
 RS_GRID|   Bounds   3           -120     119                Points:         240
 RS_GRID| Real space distribution over                                  8 groups
 RS_GRID| Real space distribution along direction                              2
 RS_GRID| Border size                                                         21
 RS_GRID| Real space distribution over                                 30 groups
 RS_GRID| Real space distribution along direction                              3
 RS_GRID| Border size                                                         21
 RS_GRID|   Distribution                         Average         Max         Min
 RS_GRID|   Planes                                  49.5          50          49
 RS_GRID|   Distribution                         Average         Max         Min
 RS_GRID|   Planes                                  50.0          50          50

 RS_GRID| Information for grid number                                          3
 RS_GRID|   Bounds   1            -16      16                Points:          33
 RS_GRID|   Bounds   2            -16      16                Points:          33
 RS_GRID|   Bounds   3            -70      69                Points:         140
 RS_GRID| Real space fully replicated
 RS_GRID| Group size                                                           1

 RS_GRID| Information for grid number                                          4
 RS_GRID|   Bounds   1            -10       9                Points:          20
 RS_GRID|   Bounds   2            -10       9                Points:          20
 RS_GRID|   Bounds   3            -40      39                Points:          80
 RS_GRID| Real space fully replicated
 RS_GRID| Group size                                                           1

 KPOINTS| Number of kpoint groups                                              1
 KPOINTS| Size of each kpoint group                                          240
 KPOINTS| Number of kpoints per group                                          4

 Number of electrons:                                                       1184
 Number of occupied orbitals:                                                592
 Number of molecular orbitals:                                               692

 Number of orbital functions:                                                972
 Number of independent orbital functions:                                    972

 Extrapolation method: initial_guess


 SCF WAVEFUNCTION OPTIMIZATION

  Step     Update method      Time    Convergence         Total energy    Change
  ------------------------------------------------------------------------------
 Using HartreeLeadsBottom  -10.987830000000001     
 v_hartree_z_average(0)   2.9802111718876562E-004
     1 NoMix/SMGL  0.30E+00   32.8     1.36833732     -3518.0061040823 -3.52E+03
 Using HartreeLeadsBottom  -10.987830000000001     
 v_hartree_z_average(0)   2.6751205601808885E-004
     2 Broy./SMGL  0.30E+00   16.7     0.12965183     -3523.1681076217 -5.16E+00
 Using HartreeLeadsBottom  -10.987830000000001     
 v_hartree_z_average(0)   2.8097947930047983E-004
     3 Broy./SMGL  0.30E+00   16.8     0.06718934     -3511.6753745768  1.15E+01
 Using HartreeLeadsBottom  -10.987830000000001     
 v_hartree_z_average(0)   2.8353322823389314E-004
     4 Broy./SMGL  0.30E+00   16.9     0.01267624     -3516.6812573185 -5.01E+00
 Using HartreeLeadsBottom  -10.987830000000001     
 v_hartree_z_average(0)   2.8486987637527746E-004
     5 Broy./SMGL  0.30E+00   16.5     0.00648226     -3517.7529461300 -1.07E+00
 Using HartreeLeadsBottom  -10.987830000000001     
 v_hartree_z_average(0)   2.8523449779546868E-004
     6 Broy./SMGL  0.30E+00   17.1     0.00466735     -3518.1592517788 -4.06E-01
 Using HartreeLeadsBottom  -10.987830000000001     
 v_hartree_z_average(0)   2.8552606493246438E-004
     7 Broy./SMGL  0.30E+00   17.0     0.00156530     -3518.0527958251  1.06E-01
 Using HartreeLeadsBottom  -10.987830000000001     
 v_hartree_z_average(0)   2.8620851488264274E-004
     8 Broy./SMGL  0.30E+00   16.5     0.00243334     -3518.0034522863  4.93E-02
 Using HartreeLeadsBottom  -10.987830000000001     
 v_hartree_z_average(0)   2.8678185416981079E-004
     9 Broy./SMGL  0.30E+00   17.8     0.00318918     -3518.0498745244 -4.64E-02
 Using HartreeLeadsBottom  -10.987830000000001     
 v_hartree_z_average(0)   2.8627234570418843E-004
    10 Broy./SMGL  0.30E+00   16.9     0.00249445     -3518.0451791884  4.70E-03
 Using HartreeLeadsBottom  -10.987830000000001     
 v_hartree_z_average(0)   2.8557597492621988E-004
    11 Broy./SMGL  0.30E+00   16.4     0.00369100     -3518.0317617519  1.34E-02
 Using HartreeLeadsBottom  -10.987830000000001     
 v_hartree_z_average(0)   2.8880901199409496E-004
    12 Broy./SMGL  0.30E+00   16.8     0.01770753     -3517.8801497816  1.52E-01
 Using HartreeLeadsBottom  -10.987830000000001     
 v_hartree_z_average(0)   2.8827380215427055E-004
    13 Broy./SMGL  0.30E+00   16.8     0.00340752     -3518.0295692001 -1.49E-01
 Using HartreeLeadsBottom  -10.987830000000001     
 v_hartree_z_average(0)   2.8822211511517236E-004
    14 Broy./SMGL  0.30E+00   16.4     0.00050208     -3518.0387090183 -9.14E-03
 Using HartreeLeadsBottom  -10.987830000000001     
 v_hartree_z_average(0)   2.8797663220347838E-004
    15 Broy./SMGL  0.30E+00   16.4     0.00205277     -3518.0354158290  3.29E-03
 Using HartreeLeadsBottom  -10.987830000000001     
 v_hartree_z_average(0)   2.8796820701466029E-004
    16 Broy./SMGL  0.30E+00   17.2     0.00067686     -3518.0096565912  2.58E-02
 Using HartreeLeadsBottom  -10.987830000000001     
 v_hartree_z_average(0)   2.8802305558836376E-004
    17 Broy./SMGL  0.30E+00   16.5     0.00013408     -3517.9995468179  1.01E-02
 Using HartreeLeadsBottom  -10.987830000000001     
 v_hartree_z_average(0)   2.8805442909839738E-004
    18 Broy./SMGL  0.30E+00   16.4     0.00015123     -3517.9978930856  1.65E-03
 Using HartreeLeadsBottom  -10.987830000000001     
 v_hartree_z_average(0)   2.8816040946088239E-004
    19 Broy./SMGL  0.30E+00   17.4     0.00037981     -3517.9923037026  5.59E-03
 Using HartreeLeadsBottom  -10.987830000000001     
 v_hartree_z_average(0)   2.8642052551164875E-004
    20 Broy./SMGL  0.30E+00   16.5     0.00922965     -3518.0473011487 -5.50E-02
 Using HartreeLeadsBottom  -10.987830000000001     
 v_hartree_z_average(0)   2.8575928403786757E-004
    21 Broy./SMGL  0.30E+00   16.5     0.00340402     -3517.9878222540  5.95E-02
 Using HartreeLeadsBottom  -10.987830000000001     
 v_hartree_z_average(0)   2.8902953606947028E-004
    22 Broy./SMGL  0.30E+00   16.8     0.01795694     -3517.8277077337  1.60E-01
 Using HartreeLeadsBottom  -10.987830000000001     
 v_hartree_z_average(0)   2.8781188863113278E-004
    23 Broy./SMGL  0.30E+00   16.9     0.00749068     -3518.0194407708 -1.92E-01
 Using HartreeLeadsBottom  -10.987830000000001     
 v_hartree_z_average(0)   2.8686636859757985E-004
    24 Broy./SMGL  0.30E+00   16.4     0.00559566     -3518.0232178198 -3.78E-03
 Using HartreeLeadsBottom  -10.987830000000001     
 v_hartree_z_average(0)   2.8542005283167533E-004
    25 Broy./SMGL  0.30E+00   16.8     0.00791431     -3518.0240737496 -8.56E-04
 Using HartreeLeadsBottom  -10.987830000000001     
 v_hartree_z_average(0)   2.8544700046276154E-004
    26 Broy./SMGL  0.30E+00   16.7     0.00010271     -3517.9136803611  1.10E-01
 Using HartreeLeadsBottom  -10.987830000000001     
 v_hartree_z_average(0)   2.8562462392634077E-004
    27 Broy./SMGL  0.30E+00   16.4     0.00125329     -3517.9065689616  7.11E-03
 Using HartreeLeadsBottom  -10.987830000000001     
 v_hartree_z_average(0)   2.8607289308065908E-004
    28 Broy./SMGL  0.30E+00   16.8     0.00248962     -3517.9089416609 -2.37E-03
 Using HartreeLeadsBottom  -10.987830000000001     
 v_hartree_z_average(0)   2.8604459300068756E-004
    29 Broy./SMGL  0.30E+00   16.7     0.00015419     -3517.9459557178 -3.70E-02
 Using HartreeLeadsBottom  -10.987830000000001     
 v_hartree_z_average(0)   2.8597975541416840E-004
    30 Broy./SMGL  0.30E+00   16.4     0.00060240     -3517.9464211200 -4.65E-04
 Using HartreeLeadsBottom  -10.987830000000001     
 v_hartree_z_average(0)   2.8516370966560434E-004
    31 Broy./SMGL  0.30E+00   16.9     0.00436644     -3517.9626574393 -1.62E-02
 Using HartreeLeadsBottom  -10.987830000000001     
 v_hartree_z_average(0)   2.8589039530376901E-004
    32 Broy./SMGL  0.30E+00   16.9     0.00379379     -3517.8701229806  9.25E-02
 Using HartreeLeadsBottom  -10.987830000000001     
 v_hartree_z_average(0)   2.8890047884374767E-004
    33 Broy./SMGL  0.30E+00   16.3     0.01699616     -3517.8135350666  5.66E-02
 Using HartreeLeadsBottom  -10.987830000000001     
 v_hartree_z_average(0)   2.8772292004426746E-004
    34 Broy./SMGL  0.30E+00   16.7     0.00711619     -3518.0038722763 -1.90E-01
 Using HartreeLeadsBottom  -10.987830000000001     
 v_hartree_z_average(0)   2.8682697185016817E-004
    35 Broy./SMGL  0.30E+00   19.9     0.00505093     -3518.0055519323 -1.68E-03
 Using HartreeLeadsBottom  -10.987830000000001     
 v_hartree_z_average(0)   2.8558065936170024E-004
    36 Broy./SMGL  0.30E+00   16.7     0.00669601     -3518.0074080928 -1.86E-03
 Using HartreeLeadsBottom  -10.987830000000001     
 v_hartree_z_average(0)   2.8555665606829351E-004
    37 Broy./SMGL  0.30E+00   17.0     0.00014782     -3517.9161111748  9.13E-02
 Using HartreeLeadsBottom  -10.987830000000001     
 v_hartree_z_average(0)   2.8606468600167587E-004
    38 Broy./SMGL  0.30E+00   16.8     0.00267801     -3517.8955193130  2.06E-02
 Using HartreeLeadsBottom  -10.987830000000001     
 v_hartree_z_average(0)   2.8696760578310343E-004
    39 Broy./SMGL  0.30E+00   16.3     0.00468443     -3517.9017837211 -6.26E-03
 Using HartreeLeadsBottom  -10.987830000000001     
 v_hartree_z_average(0)   2.8784037021120266E-004
    40 Broy./SMGL  0.30E+00   16.4     0.00480096     -3517.9277559680 -2.60E-02
 Using HartreeLeadsBottom  -10.987830000000001     
 v_hartree_z_average(0)   2.8659520387303678E-004
    41 Broy./SMGL  0.30E+00   16.7     0.00676433     -3518.0149786934 -8.72E-02
 Using HartreeLeadsBottom  -10.987830000000001     
 v_hartree_z_average(0)   2.8469772555543202E-004
    42 Broy./SMGL  0.30E+00   16.9     0.00997869     -3518.0203471974 -5.37E-03
 Using HartreeLeadsBottom  -10.987830000000001     
 v_hartree_z_average(0)   2.8350409552527396E-004
    43 Broy./SMGL  0.30E+00   16.6     0.00652826     -3517.9153774019  1.05E-01
 Using HartreeLeadsBottom  -10.987830000000001     
 v_hartree_z_average(0)   2.8457446447405666E-004
    44 Broy./SMGL  0.30E+00   17.0     0.00612566     -3517.7605823619  1.55E-01
 Using HartreeLeadsBottom  -10.987830000000001     
 v_hartree_z_average(0)   2.8567483564093923E-004
    45 Broy./SMGL  0.30E+00   17.1     0.00587954     -3517.8313313575 -7.07E-02
 Using HartreeLeadsBottom  -10.987830000000001     
 v_hartree_z_average(0)   2.8658721296529073E-004
    46 Broy./SMGL  0.30E+00   16.6     0.00468966     -3517.8899496633 -5.86E-02
 Using HartreeLeadsBottom  -10.987830000000001     
 v_hartree_z_average(0)   2.8836275712447294E-004
    47 Broy./SMGL  0.30E+00   16.8     0.00986874     -3517.8899981362 -4.85E-05
 Using HartreeLeadsBottom  -10.987830000000001     
 v_hartree_z_average(0)   2.8926150605445460E-004
    48 Broy./SMGL  0.30E+00   17.2     0.00553420     -3517.9358884516 -4.59E-02
 Using HartreeLeadsBottom  -10.987830000000001     
 v_hartree_z_average(0)   2.9086249376736090E-004
    49 Broy./SMGL  0.30E+00   16.5     0.01381903     -3517.8875153478  4.84E-02
 Using HartreeLeadsBottom  -10.987830000000001     
 v_hartree_z_average(0)   2.9312317934544567E-004
    50 Broy./SMGL  0.30E+00   20.6     0.04158510     -3517.7537063349  1.34E-01
 Using HartreeLeadsBottom  -10.987830000000001     
 v_hartree_z_average(0)   2.9431784970649461E-004
    51 Broy./SMGL  0.30E+00   17.5     0.04048428     -3517.4084672345  3.45E-01
 Using HartreeLeadsBottom  -10.987830000000001     
 v_hartree_z_average(0)   2.9437231940827575E-004
    52 Broy./SMGL  0.30E+00   24.6     0.00324945     -3517.0490909731  3.59E-01
 Using HartreeLeadsBottom  -10.987830000000001     
 v_hartree_z_average(0)   2.9512491197947134E-004
    53 Broy./SMGL  0.30E+00   17.3     0.03597682     -3516.9852753991  6.38E-02
 Using HartreeLeadsBottom  -10.987830000000001     
 v_hartree_z_average(0)   2.8792858080518683E-004
    54 Broy./SMGL  0.30E+00   17.1     0.14023063     -3516.9367267047  4.85E-02
 Using HartreeLeadsBottom  -10.987830000000001     
 v_hartree_z_average(0)   2.8203242842938625E-004
    55 Broy./SMGL  0.30E+00   16.4     0.03099554     -3518.1420650093 -1.21E+00
 Using HartreeLeadsBottom  -10.987830000000001     
 v_hartree_z_average(0)   2.8323942886269266E-004
    56 Broy./SMGL  0.30E+00   17.1     0.00728732     -3517.6728025492  4.69E-01
 Using HartreeLeadsBottom  -10.987830000000001     
 v_hartree_z_average(0)   2.8306910100652958E-004
    57 Broy./SMGL  0.30E+00   17.1     0.00091816     -3517.8071323429 -1.34E-01
 Using HartreeLeadsBottom  -10.987830000000001     
 v_hartree_z_average(0)   2.8349701230706039E-004
    58 Broy./SMGL  0.30E+00   16.3     0.00243656     -3517.7774194431  2.97E-02
 Using HartreeLeadsBottom  -10.987830000000001     
 v_hartree_z_average(0)   2.8413317937654931E-004
    59 Broy./SMGL  0.30E+00   17.1     0.00343481     -3517.8004753038 -2.31E-02
 Using HartreeLeadsBottom  -10.987830000000001     
 v_hartree_z_average(0)   2.8487746487136417E-004
    60 Broy./SMGL  0.30E+00   16.4     0.00390564     -3517.8333172990 -3.28E-02
 Using HartreeLeadsBottom  -10.987830000000001     
 v_hartree_z_average(0)   2.8582956700983050E-004
    61 Broy./SMGL  0.30E+00   17.1     0.00479660     -3517.8639025160 -3.06E-02
 Using HartreeLeadsBottom  -10.987830000000001     
 v_hartree_z_average(0)   2.8716611364999441E-004
    62 Broy./SMGL  0.30E+00   17.3     0.00688745     -3517.8876574458 -2.38E-02
 Using HartreeLeadsBottom  -10.987830000000001     
 v_hartree_z_average(0)   2.8894146757335191E-004
    63 Broy./SMGL  0.30E+00   16.4     0.01018433     -3517.9034254637 -1.58E-02
 Using HartreeLeadsBottom  -10.987830000000001     
 v_hartree_z_average(0)   2.8923509257697060E-004
    64 Broy./SMGL  0.30E+00   18.2     0.00181374     -3517.9471837166 -4.38E-02
 Using HartreeLeadsBottom  -10.987830000000001     
 v_hartree_z_average(0)   2.8869673766704254E-004
    65 Broy./SMGL  0.30E+00   16.5     0.00331500     -3517.9688158311 -2.16E-02
 Using HartreeLeadsBottom  -10.987830000000001     
 v_hartree_z_average(0)   2.8785591591635443E-004
    66 Broy./SMGL  0.30E+00   17.1     0.00493012     -3517.9940976038 -2.53E-02
 Using HartreeLeadsBottom  -10.987830000000001     
 v_hartree_z_average(0)   2.8667379069677887E-004
    67 Broy./SMGL  0.30E+00   17.5     0.00642849     -3518.0149802493 -2.09E-02
 Using HartreeLeadsBottom  -10.987830000000001     
 v_hartree_z_average(0)   2.8492783753488805E-004
    68 Broy./SMGL  0.30E+00   16.4     0.00914250     -3518.0198202557 -4.84E-03
 Using HartreeLeadsBottom  -10.987830000000001     
 v_hartree_z_average(0)   2.8357154382799407E-004
    69 Broy./SMGL  0.30E+00   17.9     0.00742001     -3517.9367564571  8.31E-02
 Using HartreeLeadsBottom  -10.987830000000001     
 v_hartree_z_average(0)   2.8243500783736058E-004
    70 Broy./SMGL  0.30E+00   17.0     0.00633828     -3517.8499277550  8.68E-02
 Using HartreeLeadsBottom  -10.987830000000001     
 v_hartree_z_average(0)   2.8271019420365439E-004
    71 Broy./SMGL  0.30E+00   18.8     0.00167996     -3517.7193404616  1.31E-01
 Using HartreeLeadsBottom  -10.987830000000001     
 v_hartree_z_average(0)   2.8385204414114638E-004
    72 Broy./SMGL  0.30E+00   17.0     0.00634134     -3517.7116123480  7.73E-03
 Using HartreeLeadsBottom  -10.987830000000001     
 v_hartree_z_average(0)   2.8523404418377837E-004
    73 Broy./SMGL  0.30E+00   17.5     0.00740764     -3517.7805603585 -6.89E-02
 Using HartreeLeadsBottom  -10.987830000000001     
 v_hartree_z_average(0)   2.8659975278003548E-004
    74 Broy./SMGL  0.30E+00   16.5     0.00694788     -3517.8523765641 -7.18E-02
 Using HartreeLeadsBottom  -10.987830000000001     
 v_hartree_z_average(0)   2.8659605844843356E-004
    75 Broy./SMGL  0.30E+00   17.1     0.00006936     -3517.9531062167 -1.01E-01
 Using HartreeLeadsBottom  -10.987830000000001     
 v_hartree_z_average(0)   2.8850695422897633E-004
    76 Broy./SMGL  0.30E+00   16.9     0.01062138     -3517.8798661846  7.32E-02
 Using HartreeLeadsBottom  -10.987830000000001     
 v_hartree_z_average(0)   2.8930609122851468E-004
    77 Broy./SMGL  0.30E+00   16.4     0.00492768     -3517.9355848425 -5.57E-02
 Using HartreeLeadsBottom  -10.987830000000001     
 v_hartree_z_average(0)   2.8968420500771806E-004
    78 Broy./SMGL  0.30E+00   17.0     0.00245629     -3517.9297145367  5.87E-03
 Using HartreeLeadsBottom  -10.987830000000001     
 v_hartree_z_average(0)   2.8942935312407079E-004
    79 Broy./SMGL  0.30E+00   16.4     0.00169629     -3517.9346847096 -4.97E-03
 Using HartreeLeadsBottom  -10.987830000000001     
 v_hartree_z_average(0)   2.8751178144539684E-004
    80 Broy./SMGL  0.30E+00   18.8     0.01148304     -3518.0072728741 -7.26E-02
 Using HartreeLeadsBottom  -10.987830000000001     
 v_hartree_z_average(0)   2.8550978619365280E-004
    81 Broy./SMGL  0.30E+00   17.0     0.01038366     -3518.0402230816 -3.30E-02
 Using HartreeLeadsBottom  -10.987830000000001     
 v_hartree_z_average(0)   2.8420257679770942E-004
    82 Broy./SMGL  0.30E+00   16.5     0.00704604     -3517.9614157673  7.88E-02
 Using HartreeLeadsBottom  -10.987830000000001     
 v_hartree_z_average(0)   2.8288681192463309E-004
    83 Broy./SMGL  0.30E+00   17.1     0.00729385     -3517.8934506758  6.80E-02
 Using HartreeLeadsBottom  -10.987830000000001     
 v_hartree_z_average(0)   2.8160134482470604E-004
    84 Broy./SMGL  0.30E+00   17.0     0.00726900     -3517.8066720594  8.68E-02
 Using HartreeLeadsBottom  -10.987830000000001     
 v_hartree_z_average(0)   2.8243402291757075E-004
    85 Broy./SMGL  0.30E+00   16.4     0.00479270     -3517.6336617003  1.73E-01
 Using HartreeLeadsBottom  -10.987830000000001     
 v_hartree_z_average(0)   2.8679748335565583E-004
    86 Broy./SMGL  0.30E+00   22.7     0.02353869     -3517.5716145304  6.20E-02
 Using HartreeLeadsBottom  -10.987830000000001     
 v_hartree_z_average(0)   2.8922205665363545E-004
    87 Broy./SMGL  0.30E+00   17.3     0.01405581     -3517.8718938524 -3.00E-01
 Using HartreeLeadsBottom  -10.987830000000001     
 v_hartree_z_average(0)   2.9192691420865146E-004
    88 Broy./SMGL  0.30E+00   16.4     0.02881547     -3517.8491367144  2.28E-02
 Using HartreeLeadsBottom  -10.987830000000001     
 v_hartree_z_average(0)   3.0687858472622719E-004
    89 Broy./SMGL  0.30E+00   20.4    10.13298753     -3517.1620699665  6.87E-01
 Using HartreeLeadsBottom  -10.987830000000001     
 v_hartree_z_average(0)   3.2514282927031187E-004
    90 Broy./SMGL  0.30E+00   16.4     9.65044168     -3419.4029601296  9.78E+01
 Using HartreeLeadsBottom  -10.987830000000001     
 v_hartree_z_average(0)   2.1264108784847100E-004
    91 Broy./SMGL  0.30E+00   21.6    17.38262788     -3353.7683395950  6.56E+01
 Using HartreeLeadsBottom  -10.987830000000001     
 v_hartree_z_average(0)   9.3890003254040087E-005
    92 Broy./SMGL  0.30E+00   17.5     1.01814166     -3513.7956566433 -1.60E+02
 Using HartreeLeadsBottom  -10.987830000000001     
 v_hartree_z_average(0)   1.2166431986638748E-004
    93 Broy./SMGL  0.30E+00   16.4     0.40695899     -3501.4713514349  1.23E+01
 Using HartreeLeadsBottom  -10.987830000000001     
 v_hartree_z_average(0)   6.8819816265508358E-005
    94 Broy./SMGL  0.30E+00   17.9     0.40781218     -3507.8698667241 -6.40E+00
 Using HartreeLeadsBottom  -10.987830000000001     
 v_hartree_z_average(0)  -1.6027255461357773E-004
    95 Broy./SMGL  0.30E+00   17.7    16.28219675     -3509.6677923006 -1.80E+00
 Using HartreeLeadsBottom  -10.987830000000001     
 v_hartree_z_average(0)   1.7129233796559854E-004
    96 Broy./SMGL  0.30E+00   16.4    16.30503564     -3345.6660756030  1.64E+02
 Using HartreeLeadsBottom  -10.987830000000001     
 v_hartree_z_average(0)   2.7585432018457044E-004
    97 Broy./SMGL  0.30E+00   17.3     0.57618723     -3505.9642565079 -1.60E+02
 Using HartreeLeadsBottom  -10.987830000000001     
 v_hartree_z_average(0)   3.0386422062842042E-004
    98 Broy./SMGL  0.30E+00   16.5    16.66345413     -3516.2948930249 -1.03E+01
 Using HartreeLeadsBottom  -10.987830000000001     
 v_hartree_z_average(0)   3.4170962917145066E-004
    99 Broy./SMGL  0.30E+00   17.2    11.46058121     -3357.2317646376  1.59E+02
 Using HartreeLeadsBottom  -10.987830000000001     
 v_hartree_z_average(0)   3.6896471145781513E-004
   100 Broy./SMGL  0.30E+00   17.5     4.42613957     -3465.5273564356 -1.08E+02

  Leaving inner SCF loop after reaching   100 steps.


  Electronic density on regular grids:      -1183.6442268815        0.3557731185
  Core density on regular grids:             1183.9999998085       -0.0000001915
  Total charge density on r-space grids:        0.3557729270
  Total charge density g-space grids:           0.3557729270

  Overlap energy of the core charge distribution:               0.00001347459308
  Self energy of the core charge distribution:              -6148.38221378166963
  Core Hamiltonian energy:                                   1994.96063852773455
  Hartree energy:                                            1243.07857748508059
  Exchange-correlation energy:                               -555.18437214130381
  Electronic entropic energy:                                   0.00000000000000
  Fermi energy:                                                 0.00000000000000

  Total energy:                                             -3465.52735643556480

 *** WARNING in qs_scf.F:608 :: SCF run NOT converged ***


 The electron density is written in cube file format to the file:

 0V-ELECTRON_DENSITY-1_0.cube

 !-----------------------------------------------------------------------------!
                     Mulliken Population Analysis

 #  Atom  Element  Kind  Atomic population                           Net charge
       1     Au       1         11.001795                             -0.001795
       2     Au       1         11.001801                             -0.001801
       3     Au       1         10.998716                              0.001284
       4     Au       1         11.002575                             -0.002575
       5     Au       1         10.999227                              0.000773
       6     Au       1         10.999230                              0.000770
       7     Au       1         10.998717                              0.001283
       8     Au       1         11.002555                             -0.002555
       9     Au       1         11.000671                             -0.000671
      10     Au       1         11.000133                             -0.000133
      11     Au       1         11.000192                             -0.000192
      12     Au       1         11.000197                             -0.000197
      13     Au       1         11.000758                             -0.000758
      14     Au       1         11.000921                             -0.000921
      15     Au       1         11.000197                             -0.000197
      16     Au       1         11.000203                             -0.000203
      17     Au       1         10.999875                              0.000125
      18     Au       1         10.999883                              0.000117
      19     Au       1         10.998407                              0.001593
      20     Au       1         10.999986                              0.000014
      21     Au       1         10.998523                              0.001477
      22     Au       1         10.998510                              0.001490
      23     Au       1         10.998387                              0.001613
      24     Au       1         10.999993                              0.000007
      25     Au       1         10.996435                              0.003565
      26     Au       1         10.988724                              0.011276
      27     Au       1         10.992574                              0.007426
      28     Au       1         10.992577                              0.007423
      29     Au       1         11.004871                             -0.004871
      30     Au       1         10.997137                              0.002863
      31     Au       1         10.992595                              0.007405
      32     Au       1         10.992598                              0.007402
      33     Au       1         11.769722                             -0.769722
      34     Au       1         11.770173                             -0.770173
      35     Au       1         11.911662                             -0.911662
      36     Au       1         11.781451                             -0.781451
      37     Au       1         11.922173                             -0.922173
      38     Au       1         11.922718                             -0.922718
      39     Au       1         11.912138                             -0.912138
      40     Au       1         11.781872                             -0.781872
      41     Au       1         10.785576                              0.214424
      42     Au       1         10.804605                              0.195395
      43     Au       1         10.794213                              0.205787
      44     Au       1         10.793570                              0.206430
      45     Au       1         10.784810                              0.215190
      46     Au       1         10.789550                              0.210450
      47     Au       1         10.793585                              0.206415
      48     Au       1         10.793973                              0.206027
      49     Au       1         11.046559                             -0.046559
      50     Au       1         11.047095                             -0.047095
      51     Au       1         11.208981                             -0.208981
      52     Au       1         11.042381                             -0.042381
      53     Au       1         11.180407                             -0.180407
      54     Au       1         11.181511                             -0.181511
      55     Au       1         11.210098                             -0.210098
      56     Au       1         11.042446                             -0.042446
      57     S        2          5.273938                              0.726062
      58     C        3          4.079981                             -0.079981
      59     H        4          0.843812                              0.156188
      60     H        4          0.843317                              0.156683
      61     C        3          4.100252                             -0.100252
      62     C        3          4.102707                             -0.102707
      63     C        3          4.101858                             -0.101858
      64     C        3          4.099493                             -0.099493
      65     H        4          0.838881                              0.161119
      66     H        4          0.839623                              0.160377
      67     C        3          4.074052                             -0.074052
      68     S        2          5.281035                              0.718965
      69     Au       1         10.750416                              0.249584
      70     Au       1         10.730655                              0.269345
      71     Au       1         11.339181                             -0.339181
      72     Au       1         11.150403                             -0.150403
      73     Au       1         11.800544                             -0.800544
      74     Au       1         11.773396                             -0.773396
      75     Au       1         11.332449                             -0.332449
      76     Au       1         11.141958                             -0.141958
      77     Au       1         19.773757                             -8.773757
      78     Au       1         12.442756                             -1.442756
      79     Au       1         22.335259                            -11.335259
      80     Au       1         22.107581                            -11.107581
      81     Au       1         24.582451                            -13.582451
      82     Au       1         26.983130                            -15.983130
      83     Au       1         22.255407                            -11.255407
      84     Au       1         22.027519                            -11.027519
      85     Au       1         10.986979                              0.013021
      86     Au       1         10.986911                              0.013089
      87     Au       1         10.988604                              0.011396
      88     Au       1         10.987464                              0.012536
      89     Au       1         10.988745                              0.011255
      90     Au       1         10.988674                              0.011326
      91     Au       1         10.988503                              0.011497
      92     Au       1         10.987423                              0.012577
      93     Au       1         10.996986                              0.003014
      94     Au       1         10.993399                              0.006601
      95     Au       1         10.996716                              0.003284
      96     Au       1         10.996721                              0.003279
[...]
     19       Au     1      11.000         11.010                        -0.010
     20       Au     1      11.000         11.009                        -0.009
     21       Au     1      11.000         11.010                        -0.010
     22       Au     1      11.000         11.010                        -0.010
     23       Au     1      11.000         11.010                        -0.010
     24       Au     1      11.000         11.009                        -0.009
     25       Au     1      11.000         11.239                        -0.239
     26       Au     1      11.000         11.216                        -0.216
     27       Au     1      11.000         11.244                        -0.244
     28       Au     1      11.000         11.244                        -0.244
     29       Au     1      11.000         11.278                        -0.278
     30       Au     1      11.000         11.244                        -0.244
     31       Au     1      11.000         11.244                        -0.244
     32       Au     1      11.000         11.244                        -0.244
     33       Au     1      11.000         11.419                        -0.419
     34       Au     1      11.000         11.419                        -0.419
     35       Au     1      11.000         11.496                        -0.496
     36       Au     1      11.000         11.425                        -0.425
     37       Au     1      11.000         11.502                        -0.502
     38       Au     1      11.000         11.502                        -0.502
     39       Au     1      11.000         11.496                        -0.496
     40       Au     1      11.000         11.425                        -0.425
     41       Au     1      11.000         10.994                         0.006
     42       Au     1      11.000         10.977                         0.023
     43       Au     1      11.000         10.996                         0.004
     44       Au     1      11.000         10.996                         0.004
     45       Au     1      11.000         11.016                        -0.016
     46       Au     1      11.000         10.995                         0.005
     47       Au     1      11.000         10.996                         0.004
     48       Au     1      11.000         10.996                         0.004
     49       Au     1      11.000         10.981                         0.019
     50       Au     1      11.000         10.981                         0.019
     51       Au     1      11.000         10.936                         0.064
     52       Au     1      11.000         10.981                         0.019
     53       Au     1      11.000         10.942                         0.058
     54       Au     1      11.000         10.942                         0.058
     55       Au     1      11.000         10.936                         0.064
     56       Au     1      11.000         10.981                         0.019
     57       S      2       6.000          5.894                         0.106
     58       C      3       4.000          4.003                        -0.003
     59       H      4       1.000          0.960                         0.040
     60       H      4       1.000          0.960                         0.040
     61       C      3       4.000          4.042                        -0.042
     62       C      3       4.000          4.043                        -0.043
     63       C      3       4.000          4.046                        -0.046
     64       C      3       4.000          4.045                        -0.045
     65       H      4       1.000          0.968                         0.032
     66       H      4       1.000          0.969                         0.031
     67       C      3       4.000          4.008                        -0.008
     68       S      2       6.000          5.941                         0.059
     69       Au     1      11.000         11.093                        -0.093
     70       Au     1      11.000         11.089                        -0.089
     71       Au     1      11.000         11.214                        -0.214
     72       Au     1      11.000         11.212                        -0.212
     73       Au     1      11.000         11.331                        -0.331
     74       Au     1      11.000         11.324                        -0.324
     75       Au     1      11.000         11.212                        -0.212
     76       Au     1      11.000         11.210                        -0.210
     77       Au     1      11.000         15.646                        -4.646
     78       Au     1      11.000          8.976                         2.024
     79       Au     1      11.000         17.141                        -6.141
     80       Au     1      11.000         16.986                        -5.986
     81       Au     1      11.000         18.318                        -7.318
     82       Au     1      11.000         20.320                        -9.320
     83       Au     1      11.000         17.087                        -6.087
     84       Au     1      11.000         16.933                        -5.933
     85       Au     1      11.000         14.460                        -3.460
     86       Au     1      11.000         14.405                        -3.405
     87       Au     1      11.000         15.671                        -4.671
     88       Au     1      11.000         16.184                        -5.184
     89       Au     1      11.000         17.423                        -6.423
     90       Au     1      11.000         17.284                        -6.284
     91       Au     1      11.000         15.640                        -4.640
     92       Au     1      11.000         16.152                        -5.152
     93       Au     1      11.000         11.125                        -0.125
     94       Au     1      11.000         11.098                        -0.098
     95       Au     1      11.000         11.170                        -0.170
     96       Au     1      11.000         11.166                        -0.166
     97       Au     1      11.000         11.199                        -0.199
     98       Au     1      11.000         11.257                        -0.257
     99       Au     1      11.000         11.169                        -0.169
    100       Au     1      11.000         11.165                        -0.165
    101       Au     1      11.000         11.000                        -0.000
    102       Au     1      11.000         11.000                        -0.000
    103       Au     1      11.000         11.000                        -0.000
    104       Au     1      11.000         11.001                        -0.001
    105       Au     1      11.000         11.000                        -0.000
    106       Au     1      11.000         11.000                        -0.000
    107       Au     1      11.000         11.000                        -0.000
    108       Au     1      11.000         11.001                        -0.001
    109       Au     1      11.000         10.999                         0.001
    110       Au     1      11.000         11.005                        -0.005
    111       Au     1      11.000         11.000                         0.000
    112       Au     1      11.000         11.000                         0.000
    113       Au     1      11.000         10.999                         0.001
    114       Au     1      11.000         11.000                         0.000
    115       Au     1      11.000         11.000                         0.000
    116       Au     1      11.000         11.000                         0.000

  Total Charge                                                          -90.920
 !-----------------------------------------------------------------------------!
 Calculating transmission coefficient

 ENERGY| Total FORCE_EVAL ( QS ) energy [a.u.]:            -3465.527356435564798

 -------------------------------------------------------------------------------
 -                                                                             -
 -                                DBCSR STATISTICS                             -
 -                                                                             -
 -------------------------------------------------------------------------------
 COUNTER                                    TOTAL       BLAS       SMM       ACC
 flops inhomo. stacks                           0       0.0%      0.0%      0.0%
 flops total                         0.000000E+00       0.0%      0.0%      0.0%
 flops max/rank                      0.000000E+00       0.0%      0.0%      0.0%
 matmuls inhomo. stacks                         0       0.0%      0.0%      0.0%
 matmuls total                                  0       0.0%      0.0%      0.0%
 number of processed stacks                     0       0.0%      0.0%      0.0%
 average stack size                                     0.0       0.0       0.0
 marketing flops                     0.000000E+00
 -------------------------------------------------------------------------------
 -                                                                             -
 -                      DBCSR MESSAGE PASSING PERFORMANCE                      -
 -                                                                             -
 -------------------------------------------------------------------------------
 ROUTINE             CALLS      AVE VOLUME [Bytes]
 MP_Bcast                1                     12.
 MP_Allreduce         8419                      8.
 MP_Alltoall          6214                 175543.
 -------------------------------------------------------------------------------

 -------------------------------------------------------------------------------
 -                                                                             -
 -                                DBM STATISTICS                               -
 -                                                                             -
 -------------------------------------------------------------------------------
    M  x    N  x    K                                          COUNT     PERCENT
 -------------------------------------------------------------------------------

 -------------------------------------------------------------------------------
 -                                                                             -
 -                                GRID STATISTICS                              -
 -                                                                             -
 -------------------------------------------------------------------------------
 LP    KERNEL             BACKEND                              COUNT     PERCENT
 4     collocate ortho    REF                                9602272      44.92%
 4     integrate ortho    REF                                9507200      44.47%
 3     collocate ortho    REF                                 459651       2.15%
 3     integrate ortho    REF                                 455100       2.13%
 2     collocate ortho    REF                                 331381       1.55%
 2     integrate ortho    REF                                 328100       1.53%
 0     collocate general  REF                                 250560       1.17%
 0     integrate general  REF                                 222720       1.04%
 1     collocate ortho    REF                                  82820       0.39%
 1     integrate ortho    REF                                  82000       0.38%
 0     collocate ortho    REF                                  28482       0.13%
 0     integrate ortho    REF                                  28200       0.13%
 -------------------------------------------------------------------------------

 MEMORY| Estimated peak process memory [MiB]                                 862

 -------------------------------------------------------------------------------
 ----                             MULTIGRID INFO                            ----
 -------------------------------------------------------------------------------
 count for grid        1:         403725          cutoff [a.u.]          200.00
 count for grid        2:         625157          cutoff [a.u.]           66.67
 count for grid        3:         344958          cutoff [a.u.]           22.22
 count for grid        4:         152886          cutoff [a.u.]            7.41
 total gridlevel count  :        1526726

 -------------------------------------------------------------------------------
 -                                                                             -
 -                         MESSAGE PASSING PERFORMANCE                         -
 -                                                                             -
 -------------------------------------------------------------------------------

 ROUTINE             CALLS      AVE VOLUME [Bytes]
 MP_Group                5
 MP_Bcast            98516                  10802.
 MP_Allreduce         7017                 939198.
 MP_Sync              1210
 MP_Alltoall          1825             1035577403.
 MP_ISendRecv        96078                   4000.
 MP_Wait            118335
 MP_ISend            32447                  37171.
 MP_IRecv            32545                  37067.
 MP_Recv              6300                 248832.
 MP_Write_All            2                 248850.
 -------------------------------------------------------------------------------


 -------------------------------------------------------------------------------
 -                                                                             -
 -                           R E F E R E N C E S                               -
 -                                                                             -
 -------------------------------------------------------------------------------
 
 CP2K version 2022.1 (Development Version), the CP2K developers group (2022).
 CP2K is freely available from https://www.cp2k.org/ .

 Kuehne,Thomas D.; Iannuzzi,Marcella; Del Ben,Mauro;
 Rybkin,Vladimir V.; Seewald,Patrick; Stein,Frederick; Laino,Teodoro;
 Khaliullin,Rustam Z.; Schuett,Ole; Schiffmann,Florian; Golze,Dorothea;
 Wilhelm,Jan; Chulkov,Sergey; Bani-Hashemian,Mohammad Hossein;
 Weber,Valery; Borstnik,Urban; Taillefumier,Mathieu;
 Jakobovits,Alice Shoshana; Lazzaro,Alfio; Pabst,Hans; Mueller,Tiziano;
 Schade,Robert; Guidon,Manuel; Andermatt,Samuel; Holmberg,Nico;
 Schenter,Gregory K.; Hehn,Anna; Bussy,Augustin; Belleflamme,Fabian;
 Tabacchi,Gloria; Gloess,Andreas; Lass,Michael; Bethune,Iain;
 Mundy,Christopher J.; Plessl,Christian; Watkins,Matt;
 VandeVondele,Joost; Krack,Matthias; Hutter,Juerg. 
 The Journal of Chemical Physics, 152 (19), (2020). 
 CP2K: An electronic structure and molecular dynamics software package -
 Quickstep: Efficient and accurate electronic structure calculations.
 https://doi.org/10.1063/5.0007045

 Togo, Atsushi; Tanaka, Isao. arXiv, 1808.01590 (2018). 
 Spglib : a software library for crystal symmetry search.
 https://doi.org/xxx

 Schuett, Ole; Messmer, Peter; Hutter, Juerg; VandeVondele, Joost. 
 Electronic Structure Calculations on Graphics Processing Units, John
 Wiley & Sons, Ltd, 173-190 (2016). 
 GPU-Accelerated Sparse Matrix-Matrix Multiplication for
 Linear Scaling Density Functional Theory.
 https://doi.org/10.1002/9781118670712.ch8

 Heinecke, A; Henry, G; Hutchinson, M; Pabst, H. 
 Proceedings of Intl. Supercomputing Conference, 981-991 (2016). 
 LIBXSMM: Accelerating Small Matrix Multiplications
 by Runtime Code Generation.
 https://doi.org/10.1109/SC.2016.83

 Borstnik, U; VandeVondele, J; Weber, V; Hutter, J. 
 PARALLEL COMPUTING, 40 (5-6), 47-58 (2014). 
 Sparse matrix multiplication: The distributed block-compressed sparse
 row library.
 https://doi.org/10.1016/j.parco.2014.03.012

 Hutter, J; Iannuzzi, M; Schiffmann, F; VandeVondele, J. 
 WIREs Comput Mol Sci., 4 (1), 15-25 (2014). 
 CP2K: atomistic simulations of condensed matter systems.
 https://doi.org/10.1002/wcms.1159

 VandeVondele, J; Hutter, J. 
 JOURNAL OF CHEMICAL PHYSICS, 127 (11), 114105 (2007). 
 Gaussian basis sets for accurate calculations on molecular systems in
 gas and condensed phases.
 https://doi.org/10.1063/1.2770708

 Krack, M. 
 THEORETICAL CHEMISTRY ACCOUNTS, 114 (1-3), 145-152 (2005). 
 Pseudopotentials for H to Kr optimized for gradient-corrected
 exchange-correlation functionals.
 https://doi.org/10.1007/s00214-005-0655-y

 VandeVondele, J; Krack, M; Mohamed, F; Parrinello, M; Chassaing, T;
 Hutter, J. COMPUTER PHYSICS COMMUNICATIONS, 167 (2), 103-128 (2005). 
 QUICKSTEP: Fast and accurate density functional calculations using a
 mixed Gaussian and plane waves approach.
 https://doi.org/10.1016/j.cpc.2004.12.014

 Frigo, M; Johnson, SG. 
 PROCEEDINGS OF THE IEEE, 93 (2), 216-231 (2005). 
 The design and implementation of FFTW3.
 https://doi.org/10.1109/JPROC.2004.840301

 Hartwigsen, C; Goedecker, S; Hutter, J. 
 PHYSICAL REVIEW B, 58 (7), 3641-3662 (1998). 
 Relativistic separable dual-space Gaussian pseudopotentials from H to Rn.
 https://doi.org/10.1103/PhysRevB.58.3641

 Lippert, G; Hutter, J; Parrinello, M. 
 MOLECULAR PHYSICS, 92 (3), 477-487 (1997). 
 A hybrid Gaussian and plane wave density functional scheme.
 https://doi.org/10.1080/002689797170220

 Goedecker, S; Teter, M; Hutter, J. 
 PHYSICAL REVIEW B, 54 (3), 1703-1710 (1996). 
 Separable dual-space Gaussian pseudopotentials.
 https://doi.org/10.1103/PhysRevB.54.1703


 -------------------------------------------------------------------------------
 -                                                                             -
 -                                T I M I N G                                  -
 -                                                                             -
 -------------------------------------------------------------------------------
 SUBROUTINE                       CALLS  ASD         SELF TIME        TOTAL TIME
                                MAXIMUM       AVERAGE  MAXIMUM  AVERAGE  MAXIMUM
 CP2K                                 1  1.0    0.026    0.043 1787.837 1787.847
 qs_energies                          1  2.0    0.000    0.000 1787.641 1787.654
 run_smeagol_emtrans                101  6.0 1547.254 1643.115 1759.853 1760.564
 scf_env_do_scf                       1  3.0    0.000    0.004 1737.569 1737.611
 scf_env_do_scf_inner_loop          100  4.0    0.026    5.092 1737.568 1737.607
 qs_scf_new_mos_kp                  100  5.0    0.001    0.001 1712.114 1712.823
 mp_sum_iv                          822  7.4   97.335  102.399   97.335  102.399
 convert_dbcsr_to_replsiesta        302  7.0   13.149   14.097   70.262   71.616
 dbcsr_replicate                  16926  8.0    0.951    1.116   71.389   71.612
 -------------------------------------------------------------------------------

 The number of warnings for this run is : 1
 
 -------------------------------------------------------------------------------
  **** **** ******  **  PROGRAM ENDED AT                 2023-02-21 14:42:13.717
 ***** ** ***  *** **   PROGRAM RAN ON                     cn1128.scarf.rl.ac.uk
 **    ****   ******    PROGRAM RAN BY                                 scarf1157
 ***** **    ** ** **   PROGRAM PROCESS ID                                 27637
  **** **  *******  **  PROGRAM STOPPED IN /work4/scd/scarf1157/work/testing/cp2
                                           k-smeagol/bdt/cp2k/hollow-site/transp
                                           ort-cp2k/5-4/geometry-ordered/3x3-4/s
                                           z/bulk_layers-4/kpoints_bulk-2-2-100_
                                           em-2-2-1_hlb-10.98783
