     116
 i =        1, E =     -3518.3390024894
 Au         0.0000000000        0.0000000000        0.0000000000
 Au         0.0000000000        4.1460000000        0.0000000000
 Au         2.0730000000        2.0730000000        0.0000000000
 Au         2.0730000000        6.2190000000        0.0000000000
 Au         4.1460000000        0.0000000000        0.0000000000
 Au         4.1460000000        4.1460000000        0.0000000000
 Au         6.2190000000        2.0730000000        0.0000000000
 Au         6.2190000000        6.2190000000        0.0000000000
 Au         0.0000000000        2.0730000000        2.0730000000
 Au         0.0000000000        6.2190000000        2.0730000000
 Au         2.0730000000        0.0000000000        2.0730000000
 Au         2.0730000000        4.1460000000        2.0730000000
 Au         4.1460000000        2.0730000000        2.0730000000
 Au         4.1460000000        6.2190000000        2.0730000000
 Au         6.2190000000        0.0000000000        2.0730000000
 Au         6.2190000000        4.1460000000        2.0730000000
 Au         0.0000000000        0.0000000000        4.1460000000
 Au         0.0000000000        4.1460000000        4.1460000000
 Au         2.0730000000        2.0730000000        4.1460000000
 Au         2.0730000000        6.2190000000        4.1460000000
 Au         4.1460000000        0.0000000000        4.1460000000
 Au         4.1460000000        4.1460000000        4.1460000000
 Au         6.2190000000        2.0730000000        4.1460000000
 Au         6.2190000000        6.2190000000        4.1460000000
 Au         0.0000000000        2.0730000000        6.2190000000
 Au         0.0000000000        6.2190000000        6.2190000000
 Au         2.0730000000        0.0000000000        6.2190000000
 Au         2.0730000000        4.1460000000        6.2190000000
 Au         4.1460000000        2.0730000000        6.2190000000
 Au         4.1460000000        6.2190000000        6.2190000000
 Au         6.2190000000        0.0000000000        6.2190000000
 Au         6.2190000000        4.1460000000        6.2190000000
 Au         0.0000000000        0.0000000000        8.2920000000
 Au         0.0000000000        4.1460000000        8.2920000000
 Au         2.0730000000        2.0730000000        8.2920000000
 Au         2.0730000000        6.2190000000        8.2920000000
 Au         4.1460000000        0.0000000000        8.2920000000
 Au         4.1460000000        4.1460000000        8.2920000000
 Au         6.2190000000        2.0730000000        8.2920000000
 Au         6.2190000000        6.2190000000        8.2920000000
 Au        -0.0000340212        2.0729856414       10.3807342392
 Au        -0.0000154937        6.2189500413       10.3601355473
 Au         2.0701132116       -0.0018051783       10.3531313099
 Au         2.0701219170        4.1479065532       10.3530707461
 Au         4.1459900665        2.0728941735       10.2893469802
 Au         4.1459905264        6.2188078669       10.3788790627
 Au         6.2218909628       -0.0018054891       10.3530943287
 Au         6.2218830008        4.1479072704       10.3530323407
 Au         0.0000373879       -0.0087292116       12.4394384694
 Au         0.0000383357        4.1548328236       12.4395458416
 Au         1.9697971363        2.0730666810       12.4469908453
 Au         2.0630718499        6.2189321942       12.4386475293
 Au         4.1459838708       -0.1067809517       12.4376209189
 Au         4.1459856079        4.2527747831       12.4375158783
 Au         6.3221082928        2.0730689635       12.4470153808
 Au         6.2289332975        6.2189332597       12.4386525728
  S         4.1462111186        2.0752122384       13.8736529711
  C         4.1442737893        2.0883774529       15.6390789802
  H         1.9982592826        2.0983345234       15.7589082358
  H         6.2905724342        2.0982029561       15.7682710679
  C         2.9211906282        2.0758763157       16.3093626818
  C         5.3626929584        2.0760169862       16.3107765665
  C         2.9190174794        2.0681119359       17.7062236049
  C         5.3604032650        2.0681749912       17.7072109721
  H         1.9897523597        2.0458295676       18.2492445125
  H         6.2840853430        2.0456741105       18.2584210760
  C         4.1377065587        2.0561520369       18.3783167786
  S         4.1425288353        2.0705455114       20.1434858320
 Au         0.0003954735       -0.0073503533       21.5790347222
 Au         0.0003886012        4.1532429224       21.5791517417
 Au         1.9682448576        2.0729666267       21.5717581304
 Au         2.0641951121        6.2190368819       21.5799266863
 Au         4.1464824764       -0.1089838135       21.5815643978
 Au         4.1464912652        4.2550608164       21.5814855125
 Au         6.3236341123        2.0729707660       21.5718213554
 Au         6.2190000000        6.2190000000       21.5800000000
 Au         0.0000000000        2.0730000000       23.6530000000
 Au         0.0000000000        6.2190000000       23.6530000000
 Au         2.0730000000        0.0000000000       23.6530000000
 Au         2.0730000000        4.1460000000       23.6530000000
 Au         4.1460000000        2.0730000000       23.6530000000
 Au         4.1460000000        6.2190000000       23.6530000000
 Au         6.2190000000        0.0000000000       23.6530000000
 Au         6.2190000000        4.1460000000       23.6530000000
 Au         0.0000000000        0.0000000000       25.7260000000
 Au         0.0000000000        4.1460000000       25.7260000000
 Au         2.0730000000        2.0730000000       25.7260000000
 Au         2.0730000000        6.2190000000       25.7260000000
 Au         4.1460000000        0.0000000000       25.7260000000
 Au         4.1460000000        4.1460000000       25.7260000000
 Au         6.2190000000        2.0730000000       25.7260000000
 Au         6.2190000000        6.2190000000       25.7260000000
 Au         0.0000000000        2.0730000000       27.7990000000
 Au         0.0000000000        6.2190000000       27.7990000000
 Au         2.0730000000        0.0000000000       27.7990000000
 Au         2.0730000000        4.1460000000       27.7990000000
 Au         4.1460000000        2.0730000000       27.7990000000
 Au         4.1460000000        6.2190000000       27.7990000000
 Au         6.2190000000        0.0000000000       27.7990000000
 Au         6.2190000000        4.1460000000       27.7990000000
 Au         0.0000000000        0.0000000000       29.8720000000
 Au         0.0000000000        4.1460000000       29.8720000000
 Au         2.0730000000        2.0730000000       29.8720000000
 Au         2.0730000000        6.2190000000       29.8720000000
 Au         4.1460000000        0.0000000000       29.8720000000
 Au         4.1460000000        4.1460000000       29.8720000000
 Au         6.2190000000        2.0730000000       29.8720000000
 Au         6.2190000000        6.2190000000       29.8720000000
 Au         0.0000000000        2.0730000000       31.9450000000
 Au         0.0000000000        6.2190000000       31.9450000000
 Au         2.0730000000        0.0000000000       31.9450000000
 Au         2.0730000000        4.1460000000       31.9450000000
 Au         4.1460000000        2.0730000000       31.9450000000
 Au         4.1460000000        6.2190000000       31.9450000000
 Au         6.2190000000        0.0000000000       31.9450000000
 Au         6.2190000000        4.1460000000       31.9450000000
     116
 i =        2, E =     -3518.3427180513
 Au         0.0000000000        0.0000000000        0.0000000000
 Au         0.0000000000        4.1460000000        0.0000000000
 Au         2.0730000000        2.0730000000        0.0000000000
 Au         2.0730000000        6.2190000000        0.0000000000
 Au         4.1460000000        0.0000000000        0.0000000000
 Au         4.1460000000        4.1460000000        0.0000000000
 Au         6.2190000000        2.0730000000        0.0000000000
 Au         6.2190000000        6.2190000000        0.0000000000
 Au         0.0000000000        2.0730000000        2.0730000000
 Au         0.0000000000        6.2190000000        2.0730000000
 Au         2.0730000000        0.0000000000        2.0730000000
 Au         2.0730000000        4.1460000000        2.0730000000
 Au         4.1460000000        2.0730000000        2.0730000000
 Au         4.1460000000        6.2190000000        2.0730000000
 Au         6.2190000000        0.0000000000        2.0730000000
 Au         6.2190000000        4.1460000000        2.0730000000
 Au         0.0000000000        0.0000000000        4.1460000000
 Au         0.0000000000        4.1460000000        4.1460000000
 Au         2.0730000000        2.0730000000        4.1460000000
 Au         2.0730000000        6.2190000000        4.1460000000
 Au         4.1460000000        0.0000000000        4.1460000000
 Au         4.1460000000        4.1460000000        4.1460000000
 Au         6.2190000000        2.0730000000        4.1460000000
 Au         6.2190000000        6.2190000000        4.1460000000
 Au         0.0000000000        2.0730000000        6.2190000000
 Au         0.0000000000        6.2190000000        6.2190000000
 Au         2.0730000000        0.0000000000        6.2190000000
 Au         2.0730000000        4.1460000000        6.2190000000
 Au         4.1460000000        2.0730000000        6.2190000000
 Au         4.1460000000        6.2190000000        6.2190000000
 Au         6.2190000000        0.0000000000        6.2190000000
 Au         6.2190000000        4.1460000000        6.2190000000
 Au         0.0000000000        0.0000000000        8.2920000000
 Au         0.0000000000        4.1460000000        8.2920000000
 Au         2.0730000000        2.0730000000        8.2920000000
 Au         2.0730000000        6.2190000000        8.2920000000
 Au         4.1460000000        0.0000000000        8.2920000000
 Au         4.1460000000        4.1460000000        8.2920000000
 Au         6.2190000000        2.0730000000        8.2920000000
 Au         6.2190000000        6.2190000000        8.2920000000
 Au        -0.0000026786        2.0730196050       10.3657395392
 Au        -0.0000180402        6.2189452116       10.3602124903
 Au         2.0759736568        0.0058366738       10.3577404225
 Au         2.0759759975        4.1402619425       10.3575371297
 Au         4.1460208574        2.0727507554       10.3195634478
 Au         4.1459873960        6.2184313888       10.3580852395
 Au         6.2160266272        0.0058338023       10.3577554460
 Au         6.2160267856        4.1402664921       10.3575496902
 Au         0.0000489317       -0.0379281861       12.4463720132
 Au         0.0000512115        4.1841493288       12.4465787627
 Au         1.9541912729        2.0728443813       12.4553950900
 Au         2.0312372219        6.2190525088       12.4450030765
 Au         4.1459716807       -0.1235696057       12.4385244889
 Au         4.1459721741        4.2701681510       12.4382712943
 Au         6.3376665338        2.0728454664       12.4554675983
 Au         6.2607540717        6.2190547233       12.4449597287
  S         4.1458568533        2.0795454274       13.8685753349
  C         4.1440759283        2.0782811299       15.6300912269
  H         1.9977470685        2.0919919262       15.7532685819
  H         6.2898867273        2.0919073172       15.7611392428
  C         2.9324453937        2.0893616456       16.3153538662
  C         5.3526720445        2.0891904260       16.3192915093
  C         2.9294604250        2.0551914452       17.6967553139
  C         5.3494863443        2.0550739559       17.7003712291
  H         1.9917518243        2.0521619301       18.2556370366
  H         6.2842553995        2.0520149335       18.2635343081
  C         4.1381498162        2.0662357503       18.3857883374
  S         4.1408327176        2.0660814959       20.1464721143
 Au        -0.0008042786       -0.0351351729       21.5708827689
 Au        -0.0008064795        4.1808551911       21.5711059152
 Au         1.9457368174        2.0732657200       21.5561109161
 Au         2.0340450277        6.2189147339       21.5715147818
 Au         4.1453733248       -0.1314574745       21.5724327999
 Au         4.1453739792        4.2767480763       21.5721821618
 Au         6.3460336824        2.0732648520       21.5562907440
 Au         6.2190000000        6.2190000000       21.5800000000
 Au         0.0000000000        2.0730000000       23.6530000000
 Au         0.0000000000        6.2190000000       23.6530000000
 Au         2.0730000000        0.0000000000       23.6530000000
 Au         2.0730000000        4.1460000000       23.6530000000
 Au         4.1460000000        2.0730000000       23.6530000000
 Au         4.1460000000        6.2190000000       23.6530000000
 Au         6.2190000000        0.0000000000       23.6530000000
 Au         6.2190000000        4.1460000000       23.6530000000
 Au         0.0000000000        0.0000000000       25.7260000000
 Au         0.0000000000        4.1460000000       25.7260000000
 Au         2.0730000000        2.0730000000       25.7260000000
 Au         2.0730000000        6.2190000000       25.7260000000
 Au         4.1460000000        0.0000000000       25.7260000000
 Au         4.1460000000        4.1460000000       25.7260000000
 Au         6.2190000000        2.0730000000       25.7260000000
 Au         6.2190000000        6.2190000000       25.7260000000
 Au         0.0000000000        2.0730000000       27.7990000000
 Au         0.0000000000        6.2190000000       27.7990000000
 Au         2.0730000000        0.0000000000       27.7990000000
 Au         2.0730000000        4.1460000000       27.7990000000
 Au         4.1460000000        2.0730000000       27.7990000000
 Au         4.1460000000        6.2190000000       27.7990000000
 Au         6.2190000000        0.0000000000       27.7990000000
 Au         6.2190000000        4.1460000000       27.7990000000
 Au         0.0000000000        0.0000000000       29.8720000000
 Au         0.0000000000        4.1460000000       29.8720000000
 Au         2.0730000000        2.0730000000       29.8720000000
 Au         2.0730000000        6.2190000000       29.8720000000
 Au         4.1460000000        0.0000000000       29.8720000000
 Au         4.1460000000        4.1460000000       29.8720000000
 Au         6.2190000000        2.0730000000       29.8720000000
 Au         6.2190000000        6.2190000000       29.8720000000
 Au         0.0000000000        2.0730000000       31.9450000000
 Au         0.0000000000        6.2190000000       31.9450000000
 Au         2.0730000000        0.0000000000       31.9450000000
 Au         2.0730000000        4.1460000000       31.9450000000
 Au         4.1460000000        2.0730000000       31.9450000000
 Au         4.1460000000        6.2190000000       31.9450000000
 Au         6.2190000000        0.0000000000       31.9450000000
 Au         6.2190000000        4.1460000000       31.9450000000
     116
 i =        3, E =     -3518.3431835071
 Au         0.0000000000        0.0000000000        0.0000000000
 Au         0.0000000000        4.1460000000        0.0000000000
 Au         2.0730000000        2.0730000000        0.0000000000
 Au         2.0730000000        6.2190000000        0.0000000000
 Au         4.1460000000        0.0000000000        0.0000000000
 Au         4.1460000000        4.1460000000        0.0000000000
 Au         6.2190000000        2.0730000000        0.0000000000
 Au         6.2190000000        6.2190000000        0.0000000000
 Au         0.0000000000        2.0730000000        2.0730000000
 Au         0.0000000000        6.2190000000        2.0730000000
 Au         2.0730000000        0.0000000000        2.0730000000
 Au         2.0730000000        4.1460000000        2.0730000000
 Au         4.1460000000        2.0730000000        2.0730000000
 Au         4.1460000000        6.2190000000        2.0730000000
 Au         6.2190000000        0.0000000000        2.0730000000
 Au         6.2190000000        4.1460000000        2.0730000000
 Au         0.0000000000        0.0000000000        4.1460000000
 Au         0.0000000000        4.1460000000        4.1460000000
 Au         2.0730000000        2.0730000000        4.1460000000
 Au         2.0730000000        6.2190000000        4.1460000000
 Au         4.1460000000        0.0000000000        4.1460000000
 Au         4.1460000000        4.1460000000        4.1460000000
 Au         6.2190000000        2.0730000000        4.1460000000
 Au         6.2190000000        6.2190000000        4.1460000000
 Au         0.0000000000        2.0730000000        6.2190000000
 Au         0.0000000000        6.2190000000        6.2190000000
 Au         2.0730000000        0.0000000000        6.2190000000
 Au         2.0730000000        4.1460000000        6.2190000000
 Au         4.1460000000        2.0730000000        6.2190000000
 Au         4.1460000000        6.2190000000        6.2190000000
 Au         6.2190000000        0.0000000000        6.2190000000
 Au         6.2190000000        4.1460000000        6.2190000000
 Au         0.0000000000        0.0000000000        8.2920000000
 Au         0.0000000000        4.1460000000        8.2920000000
 Au         2.0730000000        2.0730000000        8.2920000000
 Au         2.0730000000        6.2190000000        8.2920000000
 Au         4.1460000000        0.0000000000        8.2920000000
 Au         4.1460000000        4.1460000000        8.2920000000
 Au         6.2190000000        2.0730000000        8.2920000000
 Au         6.2190000000        6.2190000000        8.2920000000
 Au        -0.0000224374        2.0731108761       10.3637089610
 Au        -0.0000177205        6.2189392046       10.3427478896
 Au         2.0811217688        0.0127974689       10.3655070409
 Au         2.0809324151        4.1329635862       10.3652891114
 Au         4.1460152438        2.0727840747       10.3494198975
 Au         4.1459679568        6.2186038438       10.3501517687
 Au         6.2109505168        0.0128023051       10.3655747111
 Au         6.2111424287        4.1329614130       10.3653570244
 Au         0.0000471579       -0.0506014344       12.4541488862
 Au         0.0000477277        4.1968446870       12.4542744415
 Au         1.9394285155        2.0724096528       12.4660071722
 Au         2.0158403992        6.2194077847       12.4512659325
 Au         4.1459651220       -0.1398866051       12.4400570355
 Au         4.1459666463        4.2874070825       12.4402256853
 Au         6.3524960007        2.0724123164       12.4660399266
 Au         6.2761208085        6.2194084218       12.4511959727
  S         4.1457639514        2.0814819780       13.8655591918
  C         4.1434589965        2.0977355468       15.6240501010
  H         1.9968040088        2.0899817880       15.7514046934
  H         6.2900097928        2.0898597396       15.7588409078
  C         2.9362028387        2.0685219351       16.3176299566
  C         5.3489277736        2.0683759857       16.3223301215
  C         2.9327513255        2.0761509808       17.6933612221
  C         5.3466828941        2.0759460808       17.6979350141
  H         1.9919433842        2.0542375523       18.2577217077
  H         6.2857249174        2.0540859336       18.2651675327
  C         4.1388220322        2.0472245790       18.3897689849
  S         4.1393408327        2.0639169361       20.1462413073
 Au        -0.0053040485       -0.0556128590       21.5610211670
 Au        -0.0053197808        4.2012806113       21.5611878827
 Au         1.9309892299        2.0737559426       21.5417935501
 Au         2.0126864284        6.2185369353       21.5598852419
 Au         4.1393005187       -0.1402439599       21.5623017556
 Au         4.1393325097        4.2844350492       21.5623660604
 Au         6.3601231271        2.0737549259       21.5418707044
 Au         6.2190000000        6.2190000000       21.5800000000
 Au         0.0000000000        2.0730000000       23.6530000000
 Au         0.0000000000        6.2190000000       23.6530000000
 Au         2.0730000000        0.0000000000       23.6530000000
 Au         2.0730000000        4.1460000000       23.6530000000
 Au         4.1460000000        2.0730000000       23.6530000000
 Au         4.1460000000        6.2190000000       23.6530000000
 Au         6.2190000000        0.0000000000       23.6530000000
 Au         6.2190000000        4.1460000000       23.6530000000
 Au         0.0000000000        0.0000000000       25.7260000000
 Au         0.0000000000        4.1460000000       25.7260000000
 Au         2.0730000000        2.0730000000       25.7260000000
 Au         2.0730000000        6.2190000000       25.7260000000
 Au         4.1460000000        0.0000000000       25.7260000000
 Au         4.1460000000        4.1460000000       25.7260000000
 Au         6.2190000000        2.0730000000       25.7260000000
 Au         6.2190000000        6.2190000000       25.7260000000
 Au         0.0000000000        2.0730000000       27.7990000000
 Au         0.0000000000        6.2190000000       27.7990000000
 Au         2.0730000000        0.0000000000       27.7990000000
 Au         2.0730000000        4.1460000000       27.7990000000
 Au         4.1460000000        2.0730000000       27.7990000000
 Au         4.1460000000        6.2190000000       27.7990000000
 Au         6.2190000000        0.0000000000       27.7990000000
 Au         6.2190000000        4.1460000000       27.7990000000
 Au         0.0000000000        0.0000000000       29.8720000000
 Au         0.0000000000        4.1460000000       29.8720000000
 Au         2.0730000000        2.0730000000       29.8720000000
 Au         2.0730000000        6.2190000000       29.8720000000
 Au         4.1460000000        0.0000000000       29.8720000000
 Au         4.1460000000        4.1460000000       29.8720000000
 Au         6.2190000000        2.0730000000       29.8720000000
 Au         6.2190000000        6.2190000000       29.8720000000
 Au         0.0000000000        2.0730000000       31.9450000000
 Au         0.0000000000        6.2190000000       31.9450000000
 Au         2.0730000000        0.0000000000       31.9450000000
 Au         2.0730000000        4.1460000000       31.9450000000
 Au         4.1460000000        2.0730000000       31.9450000000
 Au         4.1460000000        6.2190000000       31.9450000000
 Au         6.2190000000        0.0000000000       31.9450000000
 Au         6.2190000000        4.1460000000       31.9450000000
     116
 i =        4, E =     -3518.3438757756
 Au         0.0000000000        0.0000000000        0.0000000000
 Au         0.0000000000        4.1460000000        0.0000000000
 Au         2.0730000000        2.0730000000        0.0000000000
 Au         2.0730000000        6.2190000000        0.0000000000
 Au         4.1460000000        0.0000000000        0.0000000000
 Au         4.1460000000        4.1460000000        0.0000000000
 Au         6.2190000000        2.0730000000        0.0000000000
 Au         6.2190000000        6.2190000000        0.0000000000
 Au         0.0000000000        2.0730000000        2.0730000000
 Au         0.0000000000        6.2190000000        2.0730000000
 Au         2.0730000000        0.0000000000        2.0730000000
 Au         2.0730000000        4.1460000000        2.0730000000
 Au         4.1460000000        2.0730000000        2.0730000000
 Au         4.1460000000        6.2190000000        2.0730000000
 Au         6.2190000000        0.0000000000        2.0730000000
 Au         6.2190000000        4.1460000000        2.0730000000
 Au         0.0000000000        0.0000000000        4.1460000000
 Au         0.0000000000        4.1460000000        4.1460000000
 Au         2.0730000000        2.0730000000        4.1460000000
 Au         2.0730000000        6.2190000000        4.1460000000
 Au         4.1460000000        0.0000000000        4.1460000000
 Au         4.1460000000        4.1460000000        4.1460000000
 Au         6.2190000000        2.0730000000        4.1460000000
 Au         6.2190000000        6.2190000000        4.1460000000
 Au         0.0000000000        2.0730000000        6.2190000000
 Au         0.0000000000        6.2190000000        6.2190000000
 Au         2.0730000000        0.0000000000        6.2190000000
 Au         2.0730000000        4.1460000000        6.2190000000
 Au         4.1460000000        2.0730000000        6.2190000000
 Au         4.1460000000        6.2190000000        6.2190000000
 Au         6.2190000000        0.0000000000        6.2190000000
 Au         6.2190000000        4.1460000000        6.2190000000
 Au         0.0000000000        0.0000000000        8.2920000000
 Au         0.0000000000        4.1460000000        8.2920000000
 Au         2.0730000000        2.0730000000        8.2920000000
 Au         2.0730000000        6.2190000000        8.2920000000
 Au         4.1460000000        0.0000000000        8.2920000000
 Au         4.1460000000        4.1460000000        8.2920000000
 Au         6.2190000000        2.0730000000        8.2920000000
 Au         6.2190000000        6.2190000000        8.2920000000
 Au        -0.0000084007        2.0730563535       10.3686161541
 Au         0.0000008894        6.2188971170       10.3327973740
 Au         2.0816036840        0.0144342718       10.3693075217
 Au         2.0815067207        4.1313063590       10.3692210411
 Au         4.1460005119        2.0727738805       10.3558743816
 Au         4.1459633142        6.2183601514       10.3524335030
 Au         6.2104956204        0.0144314677       10.3693870585
 Au         6.2105960862        4.1313118998       10.3693006212
 Au         0.0000466760       -0.0476717150       12.4567003548
 Au         0.0000475084        4.1939244328       12.4567368276
 Au         1.9339830136        2.0720048859       12.4733048063
 Au         2.0175522338        6.2196239749       12.4525571604
 Au         4.1459793176       -0.1459262293       12.4431822135
 Au         4.1459801836        4.2944575470       12.4434965331
 Au         6.3580113232        2.0720096647       12.4733134173
 Au         6.2743761569        6.2196256873       12.4525103403
  S         4.1457872096        2.0840645418       13.8677083126
  C         4.1431710017        2.0855964413       15.6255202094
  H         1.9947087764        2.0871536707       15.7521810557
  H         6.2920194767        2.0870012980       15.7598803221
  C         2.9331369690        2.0793145940       16.3164328607
  C         5.3514980610        2.0792582517       16.3205819652
  C         2.9307019132        2.0654143857       17.6944004449
  C         5.3492454435        2.0653068684       17.6984943937
  H         1.9906720465        2.0571497828       18.2560023993
  H         6.2872373279        2.0569716238       18.2636028551
  C         4.1390462982        2.0592704965       18.3886017853
  S         4.1390936994        2.0613409829       20.1443803420
 Au        -0.0089343651       -0.0555063536       21.5566348875
 Au        -0.0090242800        4.2012815783       21.5566991207
 Au         1.9265799677        2.0741604114       21.5381354655
 Au         2.0134781045        6.2182529485       21.5541604799
 Au         4.1339466579       -0.1387772603       21.5594178245
 Au         4.1340827616        4.2819515089       21.5596455546
 Au         6.3628249040        2.0741626200       21.5381715958
 Au         6.2190000000        6.2190000000       21.5800000000
 Au         0.0000000000        2.0730000000       23.6530000000
 Au         0.0000000000        6.2190000000       23.6530000000
 Au         2.0730000000        0.0000000000       23.6530000000
 Au         2.0730000000        4.1460000000       23.6530000000
 Au         4.1460000000        2.0730000000       23.6530000000
 Au         4.1460000000        6.2190000000       23.6530000000
 Au         6.2190000000        0.0000000000       23.6530000000
 Au         6.2190000000        4.1460000000       23.6530000000
 Au         0.0000000000        0.0000000000       25.7260000000
 Au         0.0000000000        4.1460000000       25.7260000000
 Au         2.0730000000        2.0730000000       25.7260000000
 Au         2.0730000000        6.2190000000       25.7260000000
 Au         4.1460000000        0.0000000000       25.7260000000
 Au         4.1460000000        4.1460000000       25.7260000000
 Au         6.2190000000        2.0730000000       25.7260000000
 Au         6.2190000000        6.2190000000       25.7260000000
 Au         0.0000000000        2.0730000000       27.7990000000
 Au         0.0000000000        6.2190000000       27.7990000000
 Au         2.0730000000        0.0000000000       27.7990000000
 Au         2.0730000000        4.1460000000       27.7990000000
 Au         4.1460000000        2.0730000000       27.7990000000
 Au         4.1460000000        6.2190000000       27.7990000000
 Au         6.2190000000        0.0000000000       27.7990000000
 Au         6.2190000000        4.1460000000       27.7990000000
 Au         0.0000000000        0.0000000000       29.8720000000
 Au         0.0000000000        4.1460000000       29.8720000000
 Au         2.0730000000        2.0730000000       29.8720000000
 Au         2.0730000000        6.2190000000       29.8720000000
 Au         4.1460000000        0.0000000000       29.8720000000
 Au         4.1460000000        4.1460000000       29.8720000000
 Au         6.2190000000        2.0730000000       29.8720000000
 Au         6.2190000000        6.2190000000       29.8720000000
 Au         0.0000000000        2.0730000000       31.9450000000
 Au         0.0000000000        6.2190000000       31.9450000000