SIESTA 1.3.7  -- [1.3f1 release] (04 Feb 2004)
Architecture  : mpif90
Compiler flags:  -O2 -openmp 
PARALLEL version

* Running on    8 nodes in parallel
 OMP_NUM_THREADS environment variable=1                                        0
 MKL_NUM_THREADS environment variable=1                                        0
 OMP_NUM_THREADS environment variable=1                                        1
 MKL_NUM_THREADS environment variable=1                                        1
 Maximum number of Threads, node index:           1           0
 Maximum number of Threads, node index:           1           1
 Maximum number of Threads, node index:           1           4
 Maximum number of Threads, node index:           1           3
 Maximum number of Threads, node index:           1           6
 Maximum number of Threads, node index:           1           2
 Maximum number of Threads, node index:           1           5
 Maximum number of Threads, node index:           1           7
 In parallel region?  F
 Number of Threads in parallel region           1
 Node index, Thread index           0           0
>> Start of run:  26-AUG-2013   0:50:23

                           ***********************       
                           *  WELCOME TO SIESTA  *       
                           ***********************       

reinit: Reading from standard input
************************** Dump of input data file ****************************
SystemName  Au wire
SystemLabel Au_sp
#********************************************************
# Specification of atomic species and positions
#********************************************************
# Chemical species
NumberOfSpecies 2
%block ChemicalSpeciesLabel
 1 79 Au
 2 26 Fe
%endblock ChemicalSpeciesLabel
# UNIT CELL
LatticeConstant       1.0 Ang
%block LatticeVectors
  9.000   0.000   0.000	  1
  0.000   9.000   0.000   1
  0.000   0.000  22.400   1
%endblock LatticeVectors
# ATOMIC POSITIONS
NumberOfAtoms    10
AtomicCoordinatesFormat Ang
%block AtomicCoordinatesAndAtomicSpecies
   0.000   0.000  0.000   1  Au
   0.000   0.000  2.800   1  Au
   0.000   0.000  5.600   1  Au
   2.800   0.000  5.600   2  Au
   0.000   0.000  8.400   1  Au
   0.000   0.000 11.200   1  Au
   0.000   0.000 14.000   1  Au
   2.800   0.000 14.000   2  Au
   0.000   0.000 16.800   1  Au
   0.000   0.000 19.600   1  Au
%endblock AtomicCoordinatesAndAtomicSpecies 	
#********************************************************
# DFT options
#********************************************************
# Basis set variables
PAO.BasisType split
PAO.SplitNorm			0.15		# Amount of norm carried by the second zeta
%block PAO.Basis
  Au  1
n=6  0  1  P 0 E 20 4
  5.5
%endblock PAO.Basis
%block PS.lmax
 Au   1
%endblock PS.lmax
# k-mesh for Brillouin zone integration
%block kgrid_Monkhorst_Pack
  1   0   0     0.0
  0   1   0     0.0
  0   0   1     0.0
%endblock kgrid_Monkhorst_Pack
# General variables
ElectronicTemperature  300 K
MeshCutoff             200 Ry
xc.functional          LDA           # Exchange-correlation functional
xc.authors             CA
SpinPolarized          T
# SCF variables
DM.MixSCF1            T
MaxSCFIterations      1000           # Maximum number of SCF iter
DM.MixingWeight       0.1            # New DM amount for next SCF cycle
DM.Tolerance          2.0d-4         # Tolerance in maximum difference
DM.UseSaveDM          true           # to use continuation files
DM.NumberPulay        4
# Output variables
WriteMullikenPop                0
WriteBands                      F
SaveRho                         T
SaveElectrostaticPotential      T
SaveTotalPotential              F
WriteCoorXmol                   T
WriteMDXmol                     T
#********************************************************
# SMEAGOL options
#********************************************************
# perform a transport calculation
EMTransport               T
# set number of energy points for integrals
NEnergReal              320
NEnergImCircle           16
NEnergImLine             16
NPoles                   16
#set bias range
VInitial                 0.00d0 eV
VFinal                   0.00d0 eV
NIVPoints                0
# General variables
Delta                    1.d-4
EnergLowestBound        -4.4d0 Ry
NSlices                  1
PeriodicTransp           T
SaveMemTranspK           F
WriteDMT                 F
# Matching of Hartree potential with the leads
HartreeLeadsBottom      -1.79978740  eV
HartreeLeadsLeft         0.000      Ang
HartreeLeadsRight        0.000      Ang
# print transmission coefficient
TrCoefficients           T
NTransmPoints            200
TransmissionOverK        F
TRCScaleEF               T
InitTransmRange         -10.0  eV
FinalTransmRange         10.0  eV
TransmissionEmbed        F
TRC.EMDOS                T
TRC.EMPDOS               T
TRC.LeadsDOS             T
TRC.LeadsPDOS            F
Sigma.PDOS               F
Sigma.DOSVV              F
# save output for specified bias steps
%block SaveBiasSteps
 0
%endblock SaveBiasSteps
%block DM.InitSpin
4 +
8 +
%endblock DM.InitSpin
************************** End of input data file *****************************

reinit: -----------------------------------------------------------------------
reinit: System Name: Au wire                                                    
reinit: -----------------------------------------------------------------------
reinit: System Label: Au_sp               
reinit: -----------------------------------------------------------------------

initatom: Reading input for the pseudopotentials and atomic orbitals ----------
 Species number:            1  Label: Au Atomic number:          79
 Species number:            2  Label: Fe Atomic number:          26
Ground state valence configuration:   6s01  5d10
Reading pseudopotential information in formatted form from Au.psf
Semicore shell(s) with ** electrons included in the valence for
Au
Ground state valence configuration:   4s02  3d06
Reading pseudopotential information in formatted form from Fe.psf
relmxkb: Read Max KB Ang. Momentum=    1 for species Au
For Fe, standard SIESTA heuristics set lmxkb to 3
 (one more than the basis l, including polarization orbitals).
Use PS.lmax or PS.KBprojectors blocks to override.

<basis_specs>
===============================================================================
Au                   Z=  79    Mass=  196.97        Charge=  0.0000    
Lmxo=0 Lmxkb=1     BasisType=split      Semic=T
L=0  Nsemic=0  Cnfigmx=6
          n=1  nzeta=1  polorb=0
               vcte:    20.000    
               rinn:    4.0000    
                rcs:    5.5000    
            lambdas:    1.0000    
-------------------------------------------------------------------------------
L=0  Nkbl=1  erefs: 0.17977+309
L=1  Nkbl=1  erefs: 0.17977+309
===============================================================================
</basis_specs>

atom: Called for Au  (Z =  79)

read_vps: Pseudopotential generation method:
read_vps: ATM3      Troullier-Martins                       

read_vps: Pseudopotential generated from a relativistic atomic calculation
read_vps: There are spin-orbit pseudopotentials available

read_vps: Valence configuration (pseudopotential and basis set generation):
6s( 1.00) rc: 2.29
6p( 0.00) rc: 2.29
Total valence charge:    1.00000

read_vps: Pseudopotential includes a core correction:
read_vps: Pseudo-core for xc-correction
comcore: Pseudo-core radius Rcore=  7.714087

xc_check: Exchange-correlation functional:
xc_check: Ceperley-Alder
V l=0 = -2*Zval/r beyond r=  6.3158
V l=1 = -2*Zval/r beyond r=  6.3158
All V_l potentials equal beyond r=  2.2661
This should be close to max(r_c) in ps generation
All pots = -2*Zval/r beyond r=  6.3158
Using large-core scheme for Vlocal

atom: Estimated core radius    6.31575
atom: Maximum radius for 4*pi*r*r*local-pseudopot. charge    6.72309
atom: Maximum radius for r*vlocal+2*Zval:    6.39520
GHOST: No ghost state for L =  0
GHOST: No ghost state for L =  1

KBgen: Kleinman-Bylander projectors: 
   l= 0   rc=  2.352642   el= -0.445660   Ekb=  4.785126   kbcos=  0.279017
   l= 1   rc=  2.352642   el= -0.065043   Ekb=  2.856109   kbcos=  0.217743

KBgen: Total number of  Kleinman-Bylander projectors:    4
atom: -------------------------------------------------------------------------

atom: SANKEY-TYPE ORBITALS:

SPLIT: Orbitals with angular momentum L= 0

SPLIT: Basis orbitals for state 6s

   izeta = 1
                 lambda =    1.000000
                     rc =    5.504393
                 energy =   -0.392859
                kinetic =    0.507951
    potential(screened) =   -0.900809
       potential(ionic) =   -0.802802
atom: Total number of Sankey-type orbitals:  1

atm_pop: Valence configuration(local Pseudopot. screening):
 6s( 1.00)                                                            
Vna: chval, zval:    1.00000   1.00000

Vna:  Cut-off radius for the neutral-atom potential:   6.475639
Vna: WARNING: Cut-off radius for the neutral-atom potential, rVna =     6.47564
Vna: WARNING: Cut-off radius for charge density =     5.50439
Vna: WARNING: Check atom: Look for the sentence:
Vna: WARNING: LOCAL NEUTRAL-ATOM PSEUDOPOTENTIAL
Vna: WARNING: Increasing the tolerance parameter EPS
Vna: WARNING: might be a good idea

atom: _________________________________________________________________________

<basis_specs>
===============================================================================
Fe                   Z=  26    Mass=  55.850        Charge=  0.0000    
Lmxo=2 Lmxkb=3     BasisType=split      Semic=F
L=0  Nsemic=0  Cnfigmx=4
          n=1  nzeta=2  polorb=1
               vcte:    0.0000    
               rinn:    0.0000    
                rcs:    0.0000      0.0000    
            lambdas:    1.0000      1.0000    
L=1  Nsemic=0  Cnfigmx=4
L=2  Nsemic=0  Cnfigmx=3
          n=1  nzeta=2  polorb=0
               vcte:    0.0000    
               rinn:    0.0000    
                rcs:    0.0000      0.0000    
            lambdas:    1.0000      1.0000    
-------------------------------------------------------------------------------
L=0  Nkbl=1  erefs: 0.17977+309
L=1  Nkbl=1  erefs: 0.17977+309
L=2  Nkbl=1  erefs: 0.17977+309
L=3  Nkbl=1  erefs: 0.17977+309
===============================================================================
</basis_specs>

atom: Called for Fe  (Z =  26)

read_vps: Pseudopotential generation method:
read_vps: ATM3      Troullier-Martins                       

read_vps: Pseudopotential generated from a relativistic atomic calculation
read_vps: There are spin-orbit pseudopotentials available

read_vps: Valence configuration (pseudopotential and basis set generation):
4s( 2.00) rc: 2.00
4p( 0.00) rc: 2.47
3d( 6.00) rc: 1.70
4f( 0.00) rc: 2.00
Total valence charge:    8.00000

read_vps: Pseudopotential includes a core correction:
read_vps: Pseudo-core for xc-correction
comcore: Pseudo-core radius Rcore=  3.778693

xc_check: Exchange-correlation functional:
xc_check: Ceperley-Alder
V l=0 = -2*Zval/r beyond r=  2.7645
V l=1 = -2*Zval/r beyond r=  2.7645
V l=2 = -2*Zval/r beyond r=  2.7645
V l=3 = -2*Zval/r beyond r=  2.7645
All V_l potentials equal beyond r=  2.4397
This should be close to max(r_c) in ps generation
All pots = -2*Zval/r beyond r=  2.7645

VLOCAL1: 99.0% of the norm of Vloc inside      7.293 Ry
VLOCAL1: 99.9% of the norm of Vloc inside     16.621 Ry
atom: Maximum radius for 4*pi*r*r*local-pseudopot. charge    2.94283
atom: Maximum radius for r*vlocal+2*Zval:    2.59703
GHOST: No ghost state for L =  0
GHOST: No ghost state for L =  1
GHOST: No ghost state for L =  2
GHOST: No ghost state for L =  3

KBgen: Kleinman-Bylander projectors: 
   l= 0   rc=  3.017329   el= -0.402779   Ekb=  3.550400   kbcos=  0.267794
   l= 1   rc=  3.093715   el= -0.105642   Ekb=  1.665266   kbcos=  0.238268
   l= 2   rc=  2.662772   el= -0.571198   Ekb=-17.358585   kbcos= -0.670229
   l= 3   rc=  3.293249   el=  0.003534   Ekb= -1.754106   kbcos= -0.008738

KBgen: Total number of  Kleinman-Bylander projectors:   16
atom: -------------------------------------------------------------------------

atom: SANKEY-TYPE ORBITALS:
atom: Selected multiple-zeta basis: split     

SPLIT: Orbitals with angular momentum L= 0

SPLIT: Basis orbitals for state 4s

SPLIT: PAO cut-off radius determinated from an
SPLIT: energy shift=  0.020000 Ry

   izeta = 1
                 lambda =    1.000000
                     rc =    6.308440
                 energy =   -0.383650
                kinetic =    0.350354
    potential(screened) =   -0.734004
       potential(ionic) =   -6.150550

   izeta = 2
                 rmatch =    5.926225
              splitnorm =    0.150000
                 energy =   -0.331275
                kinetic =    0.521435
    potential(screened) =   -0.852710
       potential(ionic) =   -6.599998

SPLIT: Orbitals with angular momentum L= 2

SPLIT: Basis orbitals for state 3d

SPLIT: PAO cut-off radius determinated from an
SPLIT: energy shift=  0.020000 Ry

   izeta = 1
                 lambda =    1.000000
                     rc =    3.639613
                 energy =   -0.550791
                kinetic =   10.824165
    potential(screened) =  -11.374956
       potential(ionic) =  -20.512549

   izeta = 2
                 rmatch =    2.099834
              splitnorm =    0.150000
                 energy =   -0.120281
                kinetic =   14.919573
    potential(screened) =  -15.039854
       potential(ionic) =  -24.845478

POLgen: Perturbative polarization orbital with L=  1

POLgen: Polarization orbital for state 4s

   izeta = 1
                     rc =    6.308440
                 energy =   -0.042008
                kinetic =    0.659603
    potential(screened) =   -0.701612
       potential(ionic) =   -5.753141
atom: Total number of Sankey-type orbitals: 15

atm_pop: Valence configuration(local Pseudopot. screening):
 4s( 2.00)                                                            
 4p( 0.00)                                                            
 3d( 6.00)                                                            
Vna: chval, zval:    8.00000   8.00000

Vna:  Cut-off radius for the neutral-atom potential:   6.308440

atom: _________________________________________________________________________

prinput: Basis input ----------------------------------------------------------

PAO.BasisType split     

%block ChemicalSpeciesLabel
    1   79 Au                      # Species index, atomic number, species label
    2   26 Fe                      # Species index, atomic number, species label
%endblock ChemicalSpeciesLabel

%block PAO.Basis                 # Define Basis set
Au          1                    # Species label, number of l-shells
 n=6   0   1                         # n, l, Nzeta 
   5.504   
   1.000   
Fe          2                    # Species label, number of l-shells
 n=4   0   2 P   1                   # n, l, Nzeta, Polarization, NzetaPol
   6.308      5.926   
   1.000      1.000   
 n=3   2   2                         # n, l, Nzeta 
   3.640      2.100   
   1.000      1.000   
%endblock PAO.Basis

prinput: ----------------------------------------------------------------------


siesta: ******************** Simulation parameters ****************************
siesta:
siesta: The following are some of the parameters of the simulation.
siesta: A complete list of the parameters used, including defect values,
siesta: can be found in file out.fdf
siesta:
coor:   Atomic-coordinates input format  =     Cartesian coordinates
coor:                                          (in Angstroms)
redata: Number of spin components        =     2
redata: SpinOrbit                        =     0
redata: Long output                      =     F
redata: Number of Atomic Species         =     2
redata: Charge density info will appear in .RHO file
redata: Write Mulliken Pop.              =     NO
redata: Mesh Cutoff                      =   200.0000  Ry
redata: Net charge of the system         =     0.0000 |e|
redata: Max. number of SCF Iter          =  1000
redata: One Pulay mixing every           =     4 iterations
redata: Mix DM in first SCF step ?       =     T
redata: Write Pulay info on disk?        =     F
redata: New DM Mixing Weight             =     0.1000
redata: No kicks to SCF
redata: DM Mixing Weight for Kicks       =     0.5000
redata: DM Tolerance for SCF             =     0.000200
redata: Antiferro initial spin density   =     F
redata: Use continuation files for DM    =     T
redata: Neglect nonoverlap interactions  =     F
redata: Method of Calculation            =     Diagonalization
redata: Divide and Conquer               =     F
redata: Electronic Temperature           =     0.0019  Ry
redata: Fix the spin of the system       =     F
redata: Dynamics option                  =     CG coord. optimization
redata: Variable cell                    =     F
redata: Use continuation files for CG    =     F
redata: Maximum number of CG moves       =     0
redata: Max atomic displ per move        =     0.2000  Bohr
redata: Force tolerance                  =     0.0016  Ry/Bohr
redata: ***********************************************************************

siesta: Atomic coordinates (Bohr) and species
siesta:      0.00000   0.00000   0.00000  1        1
siesta:      0.00000   0.00000   5.29124  1        2
siesta:      0.00000   0.00000  10.58247  1        3
siesta:      5.29124   0.00000  10.58247  2        4
siesta:      0.00000   0.00000  15.87371  1        5
siesta:      0.00000   0.00000  21.16494  1        6
siesta:      0.00000   0.00000  26.45618  1        7
siesta:      5.29124   0.00000  26.45618  2        8
siesta:      0.00000   0.00000  31.74741  1        9
siesta:      0.00000   0.00000  37.03865  1       10

initatomlists: Number of atoms, orbitals, and projectors:     10    38    64

siesta: System type = slab      
 Nodes, Orbitals           8          38
 blocksizedefault           4

* ProcessorY, Blocksize:    2   4

 Using EM.ParallelOverKNum =           1
 label:           1 Au                             1 s      
 label:           2 Au                             2 s      
 label:           3 Au                             3 s      
 label:           4 Fe                             4 s      
 label:           5 Fe                             4 s      
 label:           6 Fe                             4 dxy    
 label:           7 Fe                             4 dyz    
 label:           8 Fe                             4 dz2    
 label:           9 Fe                             4 dxz    
 label:          10 Fe                             4 dx2-y2 
 label:          11 Fe                             4 dxy    
 label:          12 Fe                             4 dyz    
 label:          13 Fe                             4 dz2    
 label:          14 Fe                             4 dxz    
 label:          15 Fe                             4 dx2-y2 
 label:          16 Fe                             4 Ppy    
 label:          17 Fe                             4 Ppz    
 label:          18 Fe                             4 Ppx    
 label:          19 Au                             5 s      
 label:          20 Au                             6 s      
 label:          21 Au                             7 s      
 label:          22 Fe                             8 s      
 label:          23 Fe                             8 s      
 label:          24 Fe                             8 dxy    
 label:          25 Fe                             8 dyz    
 label:          26 Fe                             8 dz2    
 label:          27 Fe                             8 dxz    
 label:          28 Fe                             8 dx2-y2 
 label:          29 Fe                             8 dxy    
 label:          30 Fe                             8 dyz    
 label:          31 Fe                             8 dz2    
 label:          32 Fe                             8 dxz    
 label:          33 Fe                             8 dx2-y2 
 label:          34 Fe                             8 Ppy    
 label:          35 Fe                             8 Ppz    
 label:          36 Fe                             8 Ppx    
 label:          37 Au                             9 s      
 label:          38 Au                            10 s      
 
* Maximum dynamic memory allocated =     2 MB

siesta:                 ==============================
SMEAGOL                 Bias step =    0, V =  0.000 Ry
                            Begin CG move =      0
                        ==============================

xijorb: WARNING: orbital pair      3     4 is multiply connected


read_ldau The LDA+U method used is from Czyzky PRB 49 14211

InitMesh: MESH =    80 x    80 x   192 =     1228800
InitMesh: Mesh cutoff (required, used) =   200.000   203.052 Ry
 
* Maximum dynamic memory allocated =    15 MB
siesta: reading saved Hamiltonian
siesta: saved Hamiltonian not found

siesta: Program's energy decomposition (eV):
siesta: Eions   =      2110.329903
siesta: Ena     =       752.554773
siesta: Ekin    =      1841.646156
siesta: Enl     =     -1268.306038
siesta: DEna    =        -0.000019
siesta: DUscf   =         0.000000
siesta: DUext   =         0.000000
siesta: Exc     =     -1711.980588
siesta: eta*DQ  =         0.000000
siesta: Emadel  =         0.000000
siesta: Eharris =     -2444.821572
siesta: Eso     =         0.000000
siesta: Etot    =     -2496.415619
siesta: FreeEng =     -2496.415619

siesta: iscf   Eharris(eV)      E_KS(eV)   FreeEng(eV)   dDmax  Ef(eV)
siesta:    1    -2444.8216    -2496.4156    -2496.4156  0.9941  0.0000
timer: Routine,Calls,Time,% = IterSCF        1      19.060  78.28
siesta:    2    -2485.3274    -2483.9185    -2483.9185  1.0866  0.0000
siesta:    3    -2524.6635    -2448.0597    -2448.0597  2.6120  0.0000
siesta:    4    -2205.9598    -2254.7912    -2254.7912  7.0842  0.0000
siesta:    5    -2528.0839    -2456.7104    -2456.7104  2.3565  0.0000
siesta:    6    -2210.0745    -2260.4329    -2260.4329  6.9733  0.0000
siesta:    7    -2476.1215    -2478.0781    -2478.0781  1.7781  0.0000
siesta:    8    -2472.1340    -2473.4386    -2473.4386  1.9475  0.0000
siesta:    9    -2471.0675    -2470.4084    -2470.4084  2.0501  0.0000
siesta:   10    -2596.1306    -2472.4549    -2472.4549  1.9622  0.0000
siesta:   11    -2185.1018    -2187.4579    -2187.4579  8.2614  0.0000
siesta:   12    -2228.4644    -2276.3942    -2276.3942  6.7038  0.0000
siesta:   13    -2475.8753    -2475.3575    -2475.3575  1.8242  0.0000
siesta:   14    -2477.2955    -2476.6873    -2476.6873  1.7648  0.0000
siesta:   15    -2478.7210    -2478.6028    -2478.6028  1.6846  0.0000
siesta:   16    -2548.9484    -2479.0176    -2479.0176  1.6681  0.0000
siesta:   17    -2206.3484    -2248.1608    -2248.1608  7.1813  0.0000
siesta:   18    -2544.0187    -2506.7757    -2506.7757  0.2925  0.0000
siesta:   19    -2261.3027    -2308.5976    -2308.5976  6.2463  0.0000
siesta:   20    -2482.7832    -2480.9098    -2480.9098  1.5933  0.0000
siesta:   21    -2486.4035    -2486.9377    -2486.9377  1.3423  0.0000
siesta:   22    -2485.3670    -2485.2303    -2485.2303  1.4184  0.0000
siesta:   23    -2494.4214    -2485.6771    -2485.6771  1.4017  0.0000
siesta:   24    -2507.3672    -2504.9426    -2504.9426  0.0615  0.0000
siesta:   25    -2505.1731    -2506.5392    -2506.5392  0.4117  0.0000
siesta:   26    -2506.1835    -2505.9663    -2505.9663  0.1198  0.0000
siesta:   27    -2507.3062    -2506.1135    -2506.1135  0.1966  0.0000
siesta:   28    -2505.7236    -2506.7580    -2506.7580  0.3480  0.0000
siesta:   29    -2505.4478    -2506.2447    -2506.2447  0.1644  0.0000
siesta:   30    -2505.2796    -2505.6105    -2505.6105  0.0448  0.0000
siesta:   31    -2505.5886    -2505.3195    -2505.3195  0.0212  0.0000
siesta:   32    -2505.5130    -2505.5169    -2505.5169  0.1236  0.0000
siesta:   33    -2505.3951    -2505.5562    -2505.5562  0.0470  0.0000
siesta:   34    -2505.3519    -2505.4183    -2505.4183  0.0198  0.0000
siesta:   35    -2505.3987    -2505.3614    -2505.3614  0.0076  0.0000
siesta:   36    -2505.4082    -2505.3976    -2505.3976  0.0075  0.0000
siesta:   37    -2505.4072    -2505.4086    -2505.4086  0.0119  0.0000
siesta:   38    -2505.1364    -2505.4071    -2505.4071  0.0103  0.0000
siesta:   39    -2505.4182    -2505.1541    -2505.1541  0.0445  0.0000
siesta:   40    -2505.4119    -2505.4022    -2505.4022  0.0053  0.0000
siesta:   41    -2505.3962    -2505.4117    -2505.4117  0.0059  0.0000
siesta:   42    -2505.4008    -2505.3980    -2505.3980  0.0049  0.0000
siesta:   43    -2505.3899    -2505.4004    -2505.4004  0.0069  0.0000
siesta:   44    -2505.3908    -2505.3911    -2505.3911  0.0041  0.0000
siesta:   45    -2505.3897    -2505.3907    -2505.3907  0.0047  0.0000
siesta:   46    -2505.3589    -2505.3898    -2505.3898  0.0045  0.0000
siesta:   47    -2505.3760    -2505.3616    -2505.3616  0.0108  0.0000
siesta:   48    -2505.4125    -2505.3742    -2505.3742  0.0157  0.0000
siesta:   49    -2505.4220    -2505.4093    -2505.4093  0.0051  0.0000
siesta:   50    -2505.4280    -2505.4209    -2505.4209  0.0042  0.0000
siesta:   51    -2505.4085    -2505.4273    -2505.4273  0.0050  0.0000
siesta:   52    -2505.4386    -2505.4098    -2505.4098  0.0092  0.0000
siesta:   53    -2505.4233    -2505.4360    -2505.4360  0.0085  0.0000
siesta:   54    -2505.3665    -2505.4247    -2505.4247  0.0049  0.0000
siesta:   55    -2505.4092    -2505.3718    -2505.3718  0.0062  0.0000
siesta:   56    -2505.4020    -2505.4059    -2505.4059  0.0013  0.0000
siesta:   57    -2505.3986    -2505.4024    -2505.4024  0.0010  0.0000
siesta:   58    -2505.3988    -2505.3989    -2505.3989  0.0004  0.0000
siesta:   59    -2505.4005    -2505.3988    -2505.3988  0.0004  0.0000
siesta:   60    -2505.3987    -2505.4004    -2505.4004  0.0002  0.0000
siesta:   61    -2505.3997    -2505.3988    -2505.3988  0.0003  0.0000
siesta:   62    -2505.3988    -2505.3996    -2505.3996  0.0004  0.0000
siesta:   63    -2505.3987    -2505.3989    -2505.3989  0.0007  0.0000
siesta:   64    -2505.3991    -2505.3987    -2505.3987  0.0002  0.0000
 Calculating transmission coefficient

siesta: E_KS(eV) =            -2505.3991

siesta: E_KS - E_eggbox =     -2505.3991

siesta: Atomic forces (eV/Ang):
----------------------------------------
 Tot    0.274119    0.010149    0.038928
----------------------------------------
 Max    4.805339
 Res    1.703532    sqrt( Sum f_i^2 / 3N )
----------------------------------------
 Max    4.805339    constrained
 
* Maximum dynamic memory allocated =    15 MB

coxmol: Writing XMOL coordinates into file Au_sp.xyz               
 siesta: ERROR: PDOS implemented only with diagon

siesta: Program's energy decomposition (eV):
siesta:-Eions   =   -2110.329903
siesta: Ena     =     752.554773
siesta: Ekin    =    1800.435146
siesta: Enl     =   -1249.579008
siesta: DEna    =       4.616620
siesta: DUscf   =       1.400959
siesta: DUext   =       0.000000
siesta: Exc     =   -1704.497681
siesta: eta*DQ  =       0.000000
siesta: Emadel  =       0.000000
siesta: Ekinion =       0.000000
siesta: Eharris =   -2505.399137
siesta: Eso     =       0.000000
siesta: Etot    =   -2505.399094
siesta: FreeEng =   -2505.399094

siesta: Final energy (eV):
siesta:       Kinetic =    1800.435146
siesta:       Hartree =     867.634332
siesta:    Ext. field =       0.000000
siesta:   Exch.-corr. =   -1704.497681
siesta:  Ion-electron =   -3233.626828
siesta:       Ion-ion =    -235.344063
siesta:       Ekinion =       0.000000
siesta:         Total =   -2505.399094

siesta: Atomic forces (eV/Ang):
siesta:    1    0.002351    0.001160    0.055400
siesta:    2    0.282893    0.001208   -0.317771
siesta:    3    4.380455    0.001248   -0.152764
siesta:    4   -4.805339    0.000232   -0.016367
siesta:    5    0.276704    0.001226    0.986204
siesta:    6    0.277532    0.001210   -0.976173
siesta:    7    4.380391    0.001248    0.162149
siesta:    8   -4.805274    0.000233    0.016101
siesta:    9    0.282060    0.001224    0.327821
siesta:   10    0.002346    0.001160   -0.045672
siesta: ----------------------------------------
siesta:  Tot    0.274119    0.010149    0.038928

siesta: Stress tensor (static) (eV/Ang**3):
siesta:     0.015174    0.000000    0.000001
siesta:     0.000000   -0.000091   -0.000001
siesta:     0.000001   -0.000001    0.061070

siesta: Cell volume =       1814.400000 Ang**3

siesta: Pressure (static):
siesta:                Solid            Molecule  Units
siesta:          -0.00027647         -0.00022680  Ry/Bohr**3
siesta:          -0.02538425         -0.02082389  eV/Ang**3
siesta:         -40.67048789        -33.36391613  kBar

siesta: Total spin polarization (Qup-Qdown) =    8.815781
siesta: Spin vector =    0.000000    0.000000    8.815781
siesta: No SpinPolK block detected...

siesta: Electric dipole (a.u.)  =    0.000000   -0.000062    0.000000
siesta: Electric dipole (Debye) =    0.000000   -0.000157    0.000000
 
* Maximum dynamic memory allocated : Node    0 =    16 MB
* Maximum dynamic memory allocated : Node    1 =    15 MB
* Maximum dynamic memory allocated : Node    2 =    15 MB
* Maximum dynamic memory allocated : Node    3 =    14 MB
* Maximum dynamic memory allocated : Node    4 =    14 MB
* Maximum dynamic memory allocated : Node    5 =    14 MB
* Maximum dynamic memory allocated : Node    6 =    15 MB
* Maximum dynamic memory allocated : Node    7 =    14 MB
* Maximum memory occured during redistribXZ                   

timer: CPU execution times:
timer:  Routine       Calls   Time/call    Tot.time        %
timer:  siesta            1     171.040     171.040    99.99
timer:  Setup             1       3.960       3.960     2.32
timer:  bands             1       0.010       0.010     0.01
timer:  writewave         1       0.000       0.000     0.00
timer:  KSV_init          1       0.000       0.000     0.00
timer:  IterMD            1     160.880     160.880    94.05
timer:  hsparse           2       0.010       0.020     0.01
timer:  overfsm           2       0.620       1.240     0.72
timer:  IterSCF          65       2.454     159.530    93.27
timer:  kinefsm           2       0.530       1.060     0.62
timer:  nlefsm            2       3.945       7.890     4.61
timer:  DHSCF            66       2.178     143.720    84.02
timer:  DHSCF1            1       1.310       1.310     0.77
timer:  DHSCF2            1       1.840       1.840     1.08
timer:  REORD           998       0.004       3.930     2.30
timer:  POISON           67       0.745      49.910    29.18
timer:  DHSCF3           66       2.098     138.500    80.97
timer:  rhoofd           66       0.075       4.980     2.91
timer:  CELLXC           66       0.695      45.860    26.81
timer:  vmat             65       0.096       6.270     3.67
timer:  emtrans          65       0.147       9.560     5.59
timer:  NEGFK            65       0.125       8.100     4.74
timer:  NEGFK_su         65       0.054       3.520     2.06
timer:  NEGFK_imag       64       0.028       1.820     1.06
timer:  NEGFK_col        64       0.007       0.450     0.26
timer:  DHSCF4            1       1.170       1.170     0.68
timer:  dfscf             1       0.600       0.600     0.35
timer:  TRANSM            1       1.030       1.030     0.60
timer:  CURRENT           1       1.190       1.190     0.70
  
>> End of run:  26-AUG-2013   0:50:44
