#     Step Nr.          Time[fs]        Kin.[a.u.]          Temp[K]            Pot.[a.u.]        Cons Qty[a.u.]        UsedTime[s]
      2001         1000.500000         0.717495882       296.747883957     -9597.476651142     -9596.759155261      5478.616532475
      2002         1001.000000         0.718671781       297.234222223     -9597.477994231     -9596.759322450      2047.808170218
      2003         1001.500000         0.721347786       298.340986336     -9597.480892780     -9596.759544994      2160.674379468
      2004         1002.000000         0.723241108       299.124042272     -9597.482919423     -9596.759678315      2235.225651167
      2005         1002.500000         0.723192940       299.104120293     -9597.482854525     -9596.759661586      2054.006905134
      2006         1003.000000         0.721879169       298.560760018     -9597.481457536     -9596.759578367      2124.286683560
      2007         1003.500000         0.720912483       298.160950123     -9597.480472111     -9596.759559628      1846.547296404
      2008         1004.000000         0.721086860       298.233070403     -9597.480749975     -9596.759663115      2546.021620750
      2009         1004.500000         0.721326190       298.332054377     -9597.481183619     -9596.759857430      1959.726619374
      2010         1005.000000         0.719377151       297.525955020     -9597.479375630     -9596.759998478      1962.825153499
      2011         1005.500000         0.713709675       295.181953174     -9597.473696388     -9596.759986714      2704.952822283
      2012         1006.000000         0.704972938       291.568541125     -9597.464789021     -9596.759816083      2713.655955691
      2013         1006.500000         0.695869178       287.803332721     -9597.455461350     -9596.759592173      1907.582313683
      2014         1007.000000         0.689677946       285.242712068     -9597.449136776     -9596.759458830      1911.913856712
      2015         1007.500000         0.688551197       284.776701951     -9597.448005112     -9596.759453914      1954.285737146
      2016         1008.000000         0.692697760       286.491671658     -9597.452255748     -9596.759557988      1855.351032207
      2017         1008.500000         0.700748781       289.821479484     -9597.460446942     -9596.759698161      2803.515487058
      2018         1009.000000         0.710550686       293.875432618     -9597.470422187     -9596.759871500      1957.587037066
      2019         1009.500000         0.719608360       297.621580173     -9597.479672602     -9596.760064242      2012.009143471
      2020         1010.000000         0.725443917       300.035098387     -9597.485654031     -9596.760210113      2253.620801191
      2021         1010.500000         0.726490586       300.467988072     -9597.486711949     -9596.760221363      1898.372491724
      2022         1011.000000         0.723179422       299.098529679     -9597.483263301     -9596.760083879      2164.107002476
      2023         1011.500000         0.718185498       297.033101020     -9597.478043965     -9596.759858467      2239.960553691
      2024         1012.000000         0.715321376       295.848534110     -9597.474993052     -9596.759671675      2237.065756621
      2025         1012.500000         0.717628101       296.802568236     -9597.477266658     -9596.759638557      2230.995630658
      2026         1013.000000         0.725882257       300.216390345     -9597.485631791     -9596.759749534      2605.801118454
      2027         1013.500000         0.738333775       305.366192297     -9597.498292870     -9596.759959095      2004.739312737
      2028         1014.000000         0.751479320       310.803035469     -9597.511676452     -9596.760197132      2060.440278776
      2029         1014.500000         0.761287606       314.859627691     -9597.521660113     -9596.760372507      2859.186913004
      2030         1015.000000         0.764474306       316.177609317     -9597.524909446     -9596.760435141      2059.986786248
      2031         1015.500000         0.759475248       314.110057687     -9597.519813069     -9596.760337821      2758.883351630
      2032         1016.000000         0.746928846       308.921012759     -9597.507034955     -9596.760106109      1914.476733169
      2033         1016.500000         0.729740374       301.812062553     -9597.489482869     -9596.759742494      1908.185178319
      2034         1017.000000         0.712632887       294.736606224     -9597.471968891     -9596.759336004      2757.895861556
      2035         1017.500000         0.700901781       289.884758563     -9597.459930176     -9596.759028395      2695.252697977
      2036         1018.000000         0.698439691       288.866466975     -9597.457386728     -9596.758947037      1955.929314646
      2037         1018.500000         0.705721937       291.878318577     -9597.464887615     -9596.759165677      2650.307708145
      2038         1019.000000         0.719042120       297.387390130     -9597.478644751     -9596.759602631      1908.616949018
      2039         1019.500000         0.732080630       302.779965027     -9597.492079981     -9596.759999351      2023.479760535
      2040         1020.000000         0.739179670       305.716044586     -9597.499351719     -9596.760172049      1916.123272814
      2041         1020.500000         0.738120018       305.277785100     -9597.498193137     -9596.760073119      2232.767487808
      2042         1021.000000         0.730713216       302.214418515     -9597.490546347     -9596.759833131      2623.004473427
      2043         1021.500000         0.721317582       298.328494531     -9597.480884647     -9596.759567065      1954.755017522
      2044         1022.000000         0.714563094       295.534917426     -9597.473984196     -9596.759421102      2249.350206731
      2045         1022.500000         0.713608190       295.139980152     -9597.473018829     -9596.759410639      2058.661020736
      2046         1023.000000         0.719523636       297.586539490     -9597.479027450     -9596.759503814      2755.878349011
      2047         1023.500000         0.731409718       302.502483684     -9597.491111214     -9596.759701495      2170.947818628
      2048         1024.000000         0.746567872       308.771718417     -9597.506557454     -9596.759989582      2174.592373939
      2049         1024.500000         0.760808252       314.661372301     -9597.521104158     -9596.760295907      2005.326196791
      2050         1025.000000         0.769503873       318.257779362     -9597.530008940     -9596.760505067      1797.677217586
      2051         1025.500000         0.769343137       318.191300714     -9597.529875476     -9596.760532339      1956.359722842
      2052         1026.000000         0.759879332       314.277182169     -9597.520192604     -9596.760313271      2584.128864254
      2053         1026.500000         0.744080460       307.742953988     -9597.503995320     -9596.759914860      2742.420097502
      2054         1027.000000         0.727605125       300.928948343     -9597.487081462     -9596.759476337      2066.353610004
      2055         1027.500000         0.716750865       296.439753850     -9597.475923871     -9596.759173005      1860.584778726
      2056         1028.000000         0.715580308       295.955625138     -9597.474744298     -9596.759163990      2057.846475999
      2057         1028.500000         0.723759424       299.338411481     -9597.483239373     -9596.759479949      2001.001236856
      2058         1029.000000         0.736673998       304.679728213     -9597.496610537     -9596.759936539      2791.745692678
      2059         1029.500000         0.747853774       309.303552362     -9597.508172682     -9596.760318908      1983.983171715
      2060         1030.000000         0.752173782       311.090256759     -9597.512620693     -9596.760446912      1968.696126885
      2061         1030.500000         0.748127661       309.416828650     -9597.508449575     -9596.760321914      2650.346629628
      2062         1031.000000         0.738243089       305.328685587     -9597.498272279     -9596.760029190      1857.545326183
      2063         1031.500000         0.727570975       300.914824272     -9597.487307261     -9596.759736286      1908.944306982
      2064         1032.000000         0.721139667       298.254910995     -9597.480735771     -9596.759596104      2801.017414628
      2065         1032.500000         0.721878760       298.560590913     -9597.481506029     -9596.759627269      2167.550541106
      2066         1033.000000         0.729863423       301.862954030     -9597.489671626     -9596.759808203      2165.305955607
      2067         1033.500000         0.742541095       307.106290555     -9597.502630115     -9596.760089020      2107.667127213
      2068         1034.000000         0.755501154       312.466418829     -9597.515889080     -9596.760387926      2237.444541230
      2069         1034.500000         0.763940806       315.956959968     -9597.524490375     -9596.760549569      2058.688531309
      2070         1035.000000         0.764663710       316.255944780     -9597.525153590     -9596.760489880      2012.533903822
      2071         1035.500000         0.757496004       313.291465662     -9597.517726326     -9596.760230322      2864.994207716
      2072         1036.000000         0.745174344       308.195371542     -9597.505040576     -9596.759866232      1800.264753101
      2073         1036.500000         0.732082573       302.780768629     -9597.491575948     -9596.759493375      1756.846063258
      2074         1037.000000         0.722878938       298.974252901     -9597.482056792     -9596.759177854      1959.762951528
      2075         1037.500000         0.721294135       298.318797188     -9597.480301526     -9596.759007390      2710.185063033
      2076         1038.000000         0.728696094       301.380160593     -9597.487812010     -9596.759115915      2007.748050706
      2077         1038.500000         0.742864146       307.239900785     -9597.502323592     -9596.759459446      3973.189213907
      2078         1039.000000         0.758345081       313.642633821     -9597.518231473     -9596.759886392      1949.611701968
      2079         1039.500000         0.768815740       317.973175666     -9597.528996253     -9596.760180513      2011.032043569
      2080         1040.000000         0.770248407       318.565710021     -9597.530427399     -9596.760178992      2646.764794110
      2081         1040.500000         0.763149530       315.629697568     -9597.523024479     -9596.759874949      2745.350946683
      2082         1041.000000         0.752476345       311.215393609     -9597.511930427     -9596.759454082      1795.583663574
      2083         1041.500000         0.744928330       308.093622957     -9597.504100898     -9596.759172568      1854.825978941
      2084         1042.000000         0.745263709       308.232331676     -9597.504442993     -9596.759179284      2007.773023479
      2085         1042.500000         0.754146340       311.906083988     -9597.513575683     -9596.759429343      2250.006203285
      2086         1043.000000         0.768448256       317.821188611     -9597.528236228     -9596.759787972      2850.228557498
      2087         1043.500000         0.783089763       323.876744203     -9597.543216375     -9596.760126612      2233.187283120
      2088         1044.000000         0.793167558       328.044802015     -9597.553500469     -9596.760332911      2766.912789418
      2089         1044.500000         0.795546545       329.028723226     -9597.555904288     -9596.760357743      2664.773289338
      2090         1045.000000         0.789608810       326.572945657     -9597.549836636     -9596.760227826      2596.072288462
      2091         1045.500000         0.777195502       321.438946826     -9597.537171110     -9596.759975609      2600.005422832
      2092         1046.000000         0.761856438       315.094890012     -9597.521539242     -9596.759682804      1844.098523190
      2093         1046.500000         0.747652491       309.220303931     -9597.507089474     -9596.759436984      1815.729010738
      2094         1047.000000         0.737938033       305.202518049     -9597.497235271     -9596.759297238      2496.056808331
      2095         1047.500000         0.734524773       303.790833650     -9597.493813447     -9596.759288674      1904.252848372
      2096         1048.000000         0.737342761       304.956320731     -9597.496769045     -9596.759426284      1958.306519952
      2097         1048.500000         0.744382520       307.867882459     -9597.504087068     -9596.759704547      2009.769265437
      2098         1049.000000         0.751875425       310.966859824     -9597.511922308     -9596.760046883      2002.054703535
      2099         1049.500000         0.755270983       312.371222824     -9597.515604271     -9596.760333288      1850.803694341
      2100         1050.000000         0.751380172       310.762029232     -9597.511756218     -9596.760376046      2698.402656703
      2101         1050.500000         0.740624614       306.313656599     -9597.500789512     -9596.760164898      1913.614200371
      2102         1051.000000         0.727359902       300.827527299     -9597.487178865     -9596.759818962      1907.233717311
      2103         1051.500000         0.717515785       296.756115923     -9597.477136608     -9596.759620823      1900.951095627
      2104         1052.000000         0.715119163       295.764900932     -9597.474804175     -9596.759685012      1951.015280237
      2105         1052.500000         0.720178118       297.857225622     -9597.480141008     -9596.759962890      2809.150346731
      2106         1053.000000         0.729282047       301.622503787     -9597.489580953     -9596.760298906      2052.746524227
      2107         1053.500000         0.738066084       305.255478314     -9597.498583905     -9596.760517821      2700.128591205
      2108         1054.000000         0.743371246       307.449631243     -9597.503977313     -9596.760606067      2157.747686049
      2109         1054.500000         0.743901942       307.669120826     -9597.504516395     -9596.760614453      2293.342046889
      2110         1055.000000         0.739966650       306.041530235     -9597.500474452     -9596.760507802      2153.911819061
      2111         1055.500000         0.733170016       303.230522221     -9597.493495359     -9596.760325343      2738.243072566
      2112         1056.000000         0.725925277       300.234182950     -9597.486075077     -9596.760149800      2244.401376554
      2113         1056.500000         0.720429196       297.961068515     -9597.480474307     -9596.760045111      2649.331980819
      2114         1057.000000         0.717740993       296.849259104     -9597.477764389     -9596.760023396      1954.484197661
      2115         1057.500000         0.717846045       296.892707230     -9597.477881923     -9596.760035879      1854.621051274
      2116         1058.000000         0.720242925       297.884028988     -9597.480314524     -9596.760071599      1899.391185226
      2117         1058.500000         0.723929806       299.408879514     -9597.484128848     -9596.760199042      2595.667107176
      2118         1059.000000         0.727078929       300.711320116     -9597.487435551     -9596.760356621      2005.859669913
      2119         1059.500000         0.727794300       301.007188966     -9597.488194881     -9596.760400581      1951.231142911
      2120         1060.000000         0.725823019       300.191890430     -9597.486096904     -9596.760273885      1909.672290177
      2121         1060.500000         0.723088651       299.060987810     -9597.483212874     -9596.760124223      1852.133250841
      2122         1061.000000         0.722014384       298.616683553     -9597.482103955     -9596.760089571      1846.430815152
      2123         1061.500000         0.723535260       299.245700019     -9597.483712562     -9596.760177302      1956.654633180
      2124         1062.000000         0.726920606       300.645839363     -9597.487180216     -9596.760259610      2848.480168911
      2125         1062.500000         0.731014449       302.339005045     -9597.491314993     -9596.760300544      1945.656149593
      2126         1063.000000         0.735185609       304.064147638     -9597.495499001     -9596.760313393      1892.339800408
      2127         1063.500000         0.739167776       305.711125405     -9597.499531572     -9596.760363796      1903.080629261
      2128         1064.000000         0.742351356       307.027816662     -9597.502811839     -9596.760460483      1955.110968793
      2129         1064.500000         0.743735547       307.600302088     -9597.504251403     -9596.760515856      2045.229228575
      2130         1065.000000         0.742940859       307.271628347     -9597.503408989     -9596.760468129      2598.339776278
      2131         1065.500000         0.741037396       306.484378335     -9597.501386167     -9596.760348771      2802.450959866
      2132         1066.000000         0.739829255       305.984705500     -9597.500129352     -9596.760300097      2598.204805697
      2133         1066.500000         0.740178631       306.129203041     -9597.500555945     -9596.760377314      2495.467854762
      2134         1067.000000         0.741246100       306.570695909     -9597.501734201     -9596.760488100      1901.049738430
      2135         1067.500000         0.741398370       306.633672987     -9597.501952135     -9596.760553764      2636.918926479
      2136         1068.000000         0.739683293       305.924337007     -9597.500210059     -9596.760526766      1848.747147790
      2137         1068.500000         0.736471781       304.596093230     -9597.496919309     -9596.760447528      1949.926000480
      2138         1069.000000         0.733112174       303.206599540     -9597.493451808     -9596.760339633      2741.603541257
      2139         1069.500000         0.731353932       302.479411299     -9597.491615997     -9596.760262064      1901.455047187
      2140         1070.000000         0.732664275       303.021353705     -9597.492927147     -9596.760262872      2648.831511645
      2141         1070.500000         0.737103617       304.857413329     -9597.497516482     -9596.760412865      1900.149775208
      2142         1071.000000         0.742661588       307.156125190     -9597.503317527     -9596.760655939      1797.512215320
      2143         1071.500000         0.746327108       308.672141256     -9597.507123449     -9596.760796341      1866.149245200
      2144         1072.000000         0.746204078       308.621257499     -9597.506972406     -9596.760768328      1796.380694347
      2145         1072.500000         0.742714982       307.178208150     -9597.503342340     -9596.760627358      1751.272458316
      2146         1073.000000         0.737952286       305.208412892     -9597.498456336     -9596.760504050      1850.627184532
      2147         1073.500000         0.734045899       303.592776999     -9597.494512572     -9596.760466673      1850.343680618
      2148         1074.000000         0.732191556       302.825842747     -9597.492656166     -9596.760464609      1854.193196904
      2149         1074.500000         0.732819789       303.085672533     -9597.493323624     -9596.760503834      1908.215491228
      2150         1075.000000         0.735894784       304.357454439     -9597.496467848     -9596.760573063      2544.638691195
      2151         1075.500000         0.740696407       306.343349279     -9597.501402834     -9596.760706426      1998.699679533
      2152         1076.000000         0.745701706       308.413482186     -9597.506548540     -9596.760846834      1844.199679289
      2153         1076.500000         0.749160848       309.844142794     -9597.510101286     -9596.760940438      2748.861967660
      2154         1077.000000         0.749984055       310.184611659     -9597.510919540     -9596.760935484      1813.329695829
      2155         1077.500000         0.748216156       309.453429305     -9597.509082737     -9596.760866581      5298.904355938
      2156         1078.000000         0.744837377       308.056005812     -9597.505613110     -9596.760775733      1809.402999589
      2157         1078.500000         0.741172679       306.540329791     -9597.501859080     -9596.760686401      1857.250659288
      2158         1079.000000         0.738333612       305.366124969     -9597.498953088     -9596.760619476      2429.448338333
      2159         1079.500000         0.736828590       304.743665283     -9597.497448086     -9596.760619496      1906.251944870
      2160         1080.000000         0.736344765       304.543561249     -9597.497008494     -9596.760663729      1848.275813503
      2161         1080.500000         0.735872716       304.348327061     -9597.496550499     -9596.760677783      1877.388306644
      2162         1081.000000         0.734397960       303.738385551     -9597.495045014     -9596.760647054      2568.579100073
      2163         1081.500000         0.731848365       302.683902730     -9597.492387708     -9596.760539343      1936.776520517
      2164         1082.000000         0.729264375       301.615194821     -9597.489690650     -9596.760426275      1808.817420955
      2165         1082.500000         0.727836597       301.024682698     -9597.488233327     -9596.760396730      1797.597610234
      2166         1083.000000         0.727901277       301.051433604     -9597.488345033     -9596.760443756      1747.866141811
      2167         1083.500000         0.728997222       301.504703618     -9597.489496450     -9596.760499228      2564.924175608
      2168         1084.000000         0.730755167       302.231768739     -9597.491270584     -9596.760515418      1746.827784832
      2169         1084.500000         0.733438757       303.341670415     -9597.493986111     -9596.760547354      1896.552960259
      2170         1085.000000         0.737468310       305.008246160     -9597.498106541     -9596.760638231      1858.711336795
      2171         1085.500000         0.742577068       307.121168641     -9597.503379356     -9596.760802288      1803.785973790
      2172         1086.000000         0.747666511       309.226102420     -9597.508632660     -9596.760966149      1799.275994365
      2173         1086.500000         0.751552318       310.833226782     -9597.512621709     -9596.761069391      1851.999030889
      2174         1087.000000         0.753864057       311.789335030     -9597.514951048     -9596.761086991      2644.836585413
      2175         1087.500000         0.755283987       312.376601413     -9597.516358342     -9596.761074355      2545.941413433
      2176         1088.000000         0.756933499       313.058820015     -9597.518020269     -9596.761086770      2655.897342832
      2177         1088.500000         0.759525739       314.130940146     -9597.520638631     -9596.761112892      2756.938469425
      2178         1089.000000         0.763129651       315.621475889     -9597.524281305     -9596.761151654      2859.521482408
      2179         1089.500000         0.767427396       317.398972905     -9597.528640590     -9596.761213194      1847.207682273
      2180         1090.000000         0.771654900       319.147418902     -9597.532950844     -9596.761295944      1856.282337589
      2181         1090.500000         0.774437180       320.298137474     -9597.535802812     -9596.761365632      1888.506935839
      2182         1091.000000         0.774281951       320.233936360     -9597.535674967     -9596.761393016      2015.184834527
      2183         1091.500000         0.770360021       318.611872010     -9597.531723621     -9596.761363600      1959.047957698
      2184         1092.000000         0.762883977       315.519868106     -9597.524140677     -9596.761256700      2015.596747937
      2185         1092.500000         0.753298059       311.555244620     -9597.514365317     -9596.761067259      1959.186262868
      2186         1093.000000         0.744351860       307.855201544     -9597.505192908     -9596.760841049      1848.129660108
      2187         1093.500000         0.739282517       305.758580765     -9597.499988336     -9596.760705820      1962.958396291
      2188         1094.000000         0.739897557       306.012954054     -9597.500722986     -9596.760825430      1845.412378101
      2189         1094.500000         0.745022756       308.132676521     -9597.506168101     -9596.761145345      1810.846388681
      2190         1095.000000         0.751081816       310.638632662     -9597.512560139     -9596.761478323      1845.269505806
      2191         1095.500000         0.754570588       312.081547884     -9597.516235200     -9596.761664612      1898.152960587
      2192         1096.000000         0.754230513       311.940896775     -9597.515899940     -9596.761669427      1902.222234521
      2193         1096.500000         0.751241496       310.704674234     -9597.512837883     -9596.761596388      1894.199050956
      2194         1097.000000         0.747799661       309.281171692     -9597.509356575     -9596.761556914      1899.991461222
      2195         1097.500000         0.745520492       308.338534351     -9597.507115267     -9596.761594775      1795.208162671
      2196         1098.000000         0.744673393       307.988184085     -9597.506352432     -9596.761679039      2630.144278858
      2197         1098.500000         0.744503981       307.918116987     -9597.506236348     -9596.761732367      2946.818759752
      2198         1099.000000         0.744352273       307.855372477     -9597.506045018     -9596.761692745      2585.147062568
      2199         1099.500000         0.744568490       307.944797160     -9597.506143424     -9596.761574934      1844.265243224
      2200         1100.000000         0.746029586       308.549089687     -9597.507546656     -9596.761517069      2804.901043108
      2201         1100.500000         0.748691108       309.649863763     -9597.510235243     -9596.761544135      2703.893666438
      2202         1101.000000         0.751133290       310.659921824     -9597.512718680     -9596.761585390      2078.789591561
      2203         1101.500000         0.751609266       310.856779838     -9597.513164564     -9596.761555298      1958.184580261
      2204         1102.000000         0.749286766       309.896221037     -9597.510722930     -9596.761436164      1957.486521581
      2205         1102.500000         0.744806611       308.043281315     -9597.506059663     -9596.761253052      1851.130977595
      2206         1103.000000         0.739909100       306.017728460     -9597.500998713     -9596.761089613      2746.769672018
      2207         1103.500000         0.736156316       304.465620776     -9597.497194400     -9596.761038084      1796.813831490
      2208         1104.000000         0.733802887       303.492270246     -9597.494901208     -9596.761098321      1796.788701306
      2209         1104.500000         0.732161514       302.813417335     -9597.493296121     -9596.761134607      1740.077578072
      2210         1105.000000         0.731090425       302.370427643     -9597.492177910     -9596.761087486      2554.709218776
      2211         1105.500000         0.731710420       302.626850397     -9597.492754152     -9596.761043732      1848.672746502
      2212         1106.000000         0.735411349       304.157511221     -9597.496500260     -9596.761088911      2488.179226370
      2213         1106.500000         0.742246974       306.984645597     -9597.503532125     -9596.761285150      1949.695961574
      2214         1107.000000         0.750302032       310.316123081     -9597.511867236     -9596.761565204      1802.684816814
      2215         1107.500000         0.756461550       312.863627376     -9597.518274405     -9596.761812855      1804.781147826
      2216         1108.000000         0.758050541       313.520815749     -9597.519943069     -9596.761892527      1855.655677449
      2217         1108.500000         0.754648950       312.113957595     -9597.516382923     -9596.761733972      2852.521786535
      2218         1109.000000         0.749036653       309.792777350     -9597.510430550     -9596.761393896      1698.742345528
      2219         1109.500000         0.745844921       308.472714317     -9597.506997492     -9596.761152570      1949.933654958
      2220         1110.000000         0.747979439       309.355525866     -9597.509206868     -9596.761227429      1908.965619787
      2221         1110.500000         0.753930041       311.816625258     -9597.515433705     -9596.761503664      1952.225787675
      2222         1111.000000         0.759096073       313.953235221     -9597.520775880     -9596.761679807      2750.277082690
      2223         1111.500000         0.759814198       314.250243533     -9597.521404677     -9596.761590478      2061.385724130
      2224         1112.000000         0.756005868       312.675162743     -9597.517296633     -9596.761290765      1949.324173101
      2225         1112.500000         0.750443693       310.374712345     -9597.511467515     -9596.761023823      1908.032785278
      2226         1113.000000         0.745930153       308.507965342     -9597.506855401     -9596.760925247      1896.203899395
      2227         1113.500000         0.743202255       307.379738579     -9597.504166861     -9596.760964606      1797.608715209
      2228         1114.000000         0.741425295       306.644808545     -9597.502393621     -9596.760968327      2484.217023929