     183
 i =       0, E =    -5729.4041307832
 Au         0.0000997223        0.0008241144        0.0010433626
 Au         0.0000608890        2.9558240941        0.0006997242
 Au         0.0000220427        5.9118240739        0.0003559695
 Au         2.9560997197        0.0008629472        0.0009273809
 Au         2.9560608865        2.9558629270        0.0005837425
 Au         2.9560220401        5.9118629068        0.0002399878
 Au         5.9120997172        0.0009017801        0.0008113992
 Au         5.9120608840        2.9559017599        0.0004677608
 Au         5.9120220376        5.9119017396        0.0001240061
 Au         8.6700997149        0.0009380119        0.0007031862
 Au         8.6700608816        2.9559379917        0.0003595478
 Au         8.6700220353        5.9119379714        0.0000157931
 Au        11.6260997123        0.0009768448        0.0005872045
 Au        11.6260608791        2.9559768245        0.0002435661
 Au        11.6260220327        5.9119768043       -0.0001001886
 Au         1.4781622979        1.4790865689        2.0908134786
 Au         1.4781234647        4.4340865486        2.0904698403
 Au         1.4780846183        7.3900865284        2.0901260856
 Au         4.4341622954        1.4791254018        2.0906974969
 Au         4.4341234622        4.4341253815        2.0903538585
 Au         4.4340846158        7.3901253613        2.0900101039
 Au         7.1921622930        1.4791616335        2.0905892840
 Au         7.1921234598        4.4341616133        2.0902456456
 Au         7.1920846134        7.3901615930        2.0899018909
 Au        10.1481622905        1.4792004664        2.0904733022
 Au        10.1481234573        4.4342004462        2.0901296639
 Au        10.1480846109        7.3902004259        2.0897859092
 Au        13.1041622880        1.4792392993        2.0903573205
 Au        13.1041234548        4.4342392790        2.0900136822
 Au        13.1040846084        7.3902392588        2.0896699275
 Au         0.0002637225        0.0013102107        4.1810433311
 Au         0.0002248893        2.9563101905        4.1806996927
 Au         0.0001860429        5.9123101703        4.1803559380
 Au         2.9562637200        0.0013490436        4.1809273494
 Au         2.9562248867        2.9563490234        4.1805837110
 Au         2.9561860404        5.9123490031        4.1802399563
 Au         5.9122637174        0.0013878765        4.1808113677
 Au         5.9122248842        2.9563878563        4.1804677293
 Au         5.9121860378        5.9123878360        4.1801239746
 Au         8.6702637151        0.0014241083        4.1807031547
 Au         8.6702248819        2.9564240880        4.1803595163
 Au         8.6701860355        5.9124240678        4.1800157616
 Au        11.6262637125        0.0014629412        4.1805871730
 Au        11.6262248793        2.9564629209        4.1802435346
 Au        11.6261860329        5.9124629007        4.1798997799
 Au         1.4783262982        1.4795726653        6.2708134472
 Au         1.4782874649        4.4345726450        6.2704698088
 Au         1.4782486186        7.3905726248        6.2701260541
 Au         4.4343262956        1.4796114981        6.2706974654
 Au         4.4342874624        4.4346114779        6.2703538271
 Au         4.4342486160        7.3906114577        6.2700100724
 Au         7.1923262933        1.4796477299        6.2705892525
 Au         7.1922874600        4.4346477097        6.2702456141
 Au         7.1922486137        7.3906476894        6.2699018594
 Au        10.1483262907        1.4796865628        6.2704732708
 Au        10.1482874575        4.4346865425        6.2701296324
 Au        10.1482486111        7.3906865223        6.2697858777
 Au        13.1043262882        1.4797253957        6.2703572891
 Au        13.1042874550        4.4347253754        6.2700136507
 Au        13.1042486086        7.3907253552        6.2696698960
 Au         0.0004277227        0.0017963071        8.3610432996
 Au         0.0003888895        2.9567962869        8.3606996612
 Au         0.0003500431        5.9127962666        8.3603559065
 Au         2.9564277202        0.0018351400        8.3609273179
 Au         2.9563888870        2.9568351198        8.3605836795
 Au         2.9563500406        5.9128350995        8.3602399248
 Au         5.9124277177        0.0018739729        8.3608113362
 Au         5.9123888844        2.9568739527        8.3604676978
 Au         5.9123500381        5.9128739324        8.3601239431
 Au         8.6704277153        0.0019102047        8.3607031232
 Au         8.6703888821        2.9569101844        8.3603594848
 Au         8.6703500357        5.9129101642        8.3600157302
 Au        11.6264277128        0.0019490375        8.3605871415
 Au        11.6263888795        2.9569490173        8.3602435031
 Au        11.6263500332        5.9129489971        8.3598997485
 Au         1.4784902984        1.4800587616       10.4508134157
 Au         1.4784514652        4.4350587414       10.4504697773
 Au         1.4784126188        7.3910587212       10.4501260226
 Au         4.4344902959        1.4800975945       10.4506974340
 Au         4.4344514626        4.4350975743       10.4503537956
 Au         4.4344126163        7.3910975540       10.4500100409
 Au         7.1924902935        1.4801338263       10.4505892210
 Au         7.1924514603        4.4351338060       10.4502455826
 Au         7.1924126139        7.3911337858       10.4499018279
 Au        10.1484902910        1.4801726592       10.4504732393
 Au        10.1484514577        4.4351726389       10.4501296009
 Au        10.1484126114        7.3911726187       10.4497858462
 Au        13.1044902884        1.4802114921       10.4503572576
 Au        13.1044514552        4.4352114718       10.4500136192
 Au        13.1044126088        7.3912114516       10.4496698645
  N         4.8554941081        5.9132870672       12.0321653880
  N         9.5284941562        5.9153486888       12.0339818054
  N         7.1924941177        5.9363186985       12.0400710186
  H        10.3427184422        5.9073310551       12.6502507967
  H         4.0531190349        5.9061501267       12.6650977035
  C         8.3828214538        5.9189146810       12.7309263458
  C         5.9977221044        5.9193852900       12.7477198694
  N         8.3393742434        5.9044700093       14.0715297404
  N         5.9157753414        5.9061414848       14.1001246349
  C         7.0993997618        5.8965290412       14.7192793185
  N         8.6868235524        5.8733195068       15.3178197403
  H         7.4659501049        5.8708820690       15.9937679292
  H         6.7624793329        5.8466585105       16.7305983520
 Au         7.1928473459        5.9373656663       21.0430709508
 Au         5.9129072830        7.1955754936       22.9919748648
 Au         8.6709435250        4.4376117442       22.9921873810
 Au         5.9129435405        4.4365755125       22.9922957103
 Au         8.6709072806        7.1956117253       22.9918666518
 Au         1.4790643776        1.4817603316       25.0828133055
 Au         1.4790255444        4.4367603113       25.0824696671
 Au         1.4789866980        7.3927602911       25.0821259124
 Au         4.4350643751        1.4817991644       25.0826973238
 Au         4.4350255419        4.4367991442       25.0823536854
 Au         4.4349866955        7.3927991240       25.0820099307
 Au         7.1930643727        1.4818353962       25.0825891108
 Au         7.1930255395        4.4368353760       25.0822454724
 Au         7.1929866931        7.3928353557       25.0819017177
 Au        10.1490643702        1.4818742291       25.0824731291
 Au        10.1490255370        4.4368742089       25.0821294907
 Au        10.1489866906        7.3928741886       25.0817857360
 Au        13.1050643677        1.4819130620       25.0823571474
 Au        13.1050255345        4.4369130417       25.0820135090
 Au        13.1049866881        7.3929130215       25.0816697543
 Au         0.0011658022        0.0039839734       27.1730431579
 Au         0.0011269690        2.9589839532       27.1726995195
 Au         0.0010881226        5.9149839330       27.1723557649
 Au         2.9571657997        0.0040228063       27.1729271762
 Au         2.9571269664        2.9590227861       27.1725835378
 Au         2.9570881201        5.9150227658       27.1722397832
 Au         5.9131657971        0.0040616392       27.1728111945
 Au         5.9131269639        2.9590616190       27.1724675561
 Au         5.9130881175        5.9150615987       27.1721238014
 Au         8.6711657948        0.0040978710       27.1727029815
 Au         8.6711269615        2.9590978507       27.1723593432
 Au         8.6710881152        5.9150978305       27.1720155885
 Au        11.6271657922        0.0041367039       27.1725869998
 Au        11.6271269590        2.9591366836       27.1722433614
 Au        11.6270881126        5.9151366634       27.1718996068
 Au         1.4792283779        1.4822464279       29.2628132740
 Au         1.4791895446        4.4372464077       29.2624696356
 Au         1.4791506983        7.3932463875       29.2621258809
 Au         4.4352283753        1.4822852608       29.2626972923
 Au         4.4351895421        4.4372852406       29.2623536539
 Au         4.4351506957        7.3932852204       29.2620098992
 Au         7.1932283730        1.4823214926       29.2625890793
 Au         7.1931895397        4.4373214724       29.2622454409
 Au         7.1931506934        7.3933214521       29.2619016863
 Au        10.1492283704        1.4823603255       29.2624730976
 Au        10.1491895372        4.4373603052       29.2621294592
 Au        10.1491506908        7.3933602850       29.2617857045
 Au        13.1052283679        1.4823991584       29.2623571159
 Au        13.1051895347        4.4373991381       29.2620134775
 Au        13.1051506883        7.3933991179       29.2616697228
 Au         0.0013298024        0.0044700698       31.3530431264
 Au         0.0012909692        2.9594700496       31.3526994881
 Au         0.0012521228        5.9154700293       31.3523557334
 Au         2.9573297999        0.0045089027       31.3529271447
 Au         2.9572909667        2.9595088825       31.3525835064
 Au         2.9572521203        5.9155088622       31.3522397517
 Au         5.9133297974        0.0045477356       31.3528111630
 Au         5.9132909641        2.9595477154       31.3524675246
 Au         5.9132521178        5.9155476951       31.3521237700
 Au         8.6713297950        0.0045839674       31.3527029501
 Au         8.6712909618        2.9595839471       31.3523593117
 Au         8.6712521154        5.9155839269       31.3520155570
 Au        11.6273297925        0.0046228002       31.3525869683
 Au        11.6272909592        2.9596227800       31.3522433300
 Au        11.6272521129        5.9156227598       31.3518995753
 Au         1.4793923781        1.4827325243       33.4428132425
 Au         1.4793535448        4.4377325041       33.4424696041
 Au         1.4793146985        7.3937324839       33.4421258495
 Au         4.4353923755        1.4827713572       33.4426972608
 Au         4.4353535423        4.4377713370       33.4423536224
 Au         4.4353146959        7.3937713167       33.4420098677
 Au         7.1933923732        1.4828075890       33.4425890478
 Au         7.1933535400        4.4378075687       33.4422454094
 Au         7.1933146936        7.3938075485       33.4419016548
 Au        10.1493923707        1.4828464219       33.4424730661
 Au        10.1493535374        4.4378464016       33.4421294277
 Au        10.1493146911        7.3938463814       33.4417856731
 Au        13.1053923681        1.4828852547       33.4423570844
 Au        13.1053535349        4.4378852345       33.4420134460
 Au        13.1053146885        7.3938852143       33.4416696914
     183
 i =       1, E =    -5727.3728733975
 Au         0.0002783001        0.0012110208        0.0012304768
 Au         0.0002796934        2.9562109947        0.0007557048
 Au         0.0002810872        5.9122109686        0.0002807721
 Au         2.9562782981        0.0012096087        0.0010730288
 Au         2.9562796914        2.9562095826        0.0005982568
 Au         2.9562810852        5.9122095565        0.0001233241
 Au         5.9122782960        0.0012081966        0.0009155808
 Au         5.9122796893        2.9562081705        0.0004408088
 Au         5.9122810831        5.9122081444       -0.0000341238
 Au         8.6702782941        0.0012068791        0.0007686791
 Au         8.6702796874        2.9562068530        0.0002939071
 Au         8.6702810812        5.9122068269       -0.0001810256
 Au        11.6262782920        0.0012054669        0.0006112311
 Au        11.6262796854        2.9562054408        0.0001364591
 Au        11.6262810791        5.9122054147       -0.0003384736
 Au         1.4783903129        1.4795460979        2.0909142651
 Au         1.4783917062        4.4345460718        2.0904394931
 Au         1.4783931000        7.3905460457        2.0899645604
 Au         4.4343903108        1.4795446858        2.0907568171
 Au         4.4343917041        4.4345446597        2.0902820451
 Au         4.4343930979        7.3905446336        2.0898071124
 Au         7.1923903089        1.4795433683        2.0906099154
 Au         7.1923917022        4.4345433422        2.0901351434
 Au         7.1923930960        7.3905433161        2.0896602107
 Au        10.1483903068        1.4795419562        2.0904524674
 Au        10.1483917001        4.4345419301        2.0899776954
 Au        10.1483930939        7.3905419040        2.0895027627
 Au        13.1043903048        1.4795405440        2.0902950194
 Au        13.1043916981        4.4345405179        2.0898202474
 Au        13.1043930919        7.3905404918        2.0893453147
 Au         0.0005009339        0.0018826132        4.1812304341
 Au         0.0005023272        2.9568825872        4.1807556621
 Au         0.0005037210        5.9128825610        4.1802807294
 Au         2.9565009318        0.0018812011        4.1810729861
 Au         2.9565023251        2.9568811750        4.1805982141
 Au         2.9565037189        5.9128811489        4.1801232814
 Au         5.9125009297        0.0018797890        4.1809155381
 Au         5.9125023231        2.9568797629        4.1804407661
 Au         5.9125037168        5.9128797368        4.1799658334
 Au         8.6705009278        0.0018784715        4.1807686363
 Au         8.6705023211        2.9568784454        4.1802938643
 Au         8.6705037149        5.9128784193        4.1798189317
 Au        11.6265009258        0.0018770594        4.1806111884
 Au        11.6265023191        2.9568770333        4.1801364164
 Au        11.6265037129        5.9128770072        4.1796614837
 Au         1.4786129466        1.4802176904        6.2709142224
 Au         1.4786143399        4.4352176643        6.2704394503
 Au         1.4786157337        7.3912176382        6.2699645177
 Au         4.4346129445        1.4802162782        6.2707567744
 Au         4.4346143378        4.4352162521        6.2702820024
 Au         4.4346157316        7.3912162260        6.2698070697
 Au         7.1926129426        1.4802149607        6.2706098726
 Au         7.1926143359        4.4352149346        6.2701351006
 Au         7.1926157297        7.3912149085        6.2696601679
 Au        10.1486129405        1.4802135486        6.2704524246
 Au        10.1486143339        4.4352135225        6.2699776526
 Au        10.1486157276        7.3912134964        6.2695027199
 Au        13.1046129385        1.4802121365        6.2702949767
 Au        13.1046143318        4.4352121104        6.2698202046
 Au        13.1046157256        7.3912120843        6.2693452720
 Au         0.0007235676        0.0025542057        8.3612303913
 Au         0.0007249609        2.9575541796        8.3607556193
 Au         0.0007263547        5.9135541535        8.3602806866
 Au         2.9567235655        0.0025527936        8.3610729433
 Au         2.9567249588        2.9575527675        8.3605981713
 Au         2.9567263526        5.9135527414        8.3601232386
 Au         5.9127235635        0.0025513814        8.3609154953
 Au         5.9127249568        2.9575513553        8.3604407233
 Au         5.9127263506        5.9135513292        8.3599657906
 Au         8.6707235615        0.0025500639        8.3607685936
 Au         8.6707249549        2.9575500378        8.3602938216
 Au         8.6707263486        5.9135500117        8.3598188889
 Au        11.6267235595        0.0025486518        8.3606111456
 Au        11.6267249528        2.9575486257        8.3601363736
 Au        11.6267263466        5.9135485996        8.3596614409
 Au         1.4788355803        1.4808892828       10.4509141796
 Au         1.4788369736        4.4358892567       10.4504394076
 Au         1.4788383674        7.3918892306       10.4499644749
 Au         4.4348355782        1.4808878707       10.4507567316
 Au         4.4348369716        4.4358878446       10.4502819596
 Au         4.4348383653        7.3918878185       10.4498070269
 Au         7.1928355763        1.4808865531       10.4506098299
 Au         7.1928369696        4.4358865270       10.4501350579
 Au         7.1928383634        7.3918865009       10.4496601252
 Au        10.1488355743        1.4808851410       10.4504523819
 Au        10.1488369676        4.4358851149       10.4499776099
 Au        10.1488383614        7.3918850888       10.4495026772
 Au        13.1048355722        1.4808837289       10.4502949339
 Au        13.1048369655        4.4358837028       10.4498201619
 Au        13.1048383593        7.3918836767       10.4493452292
  N         4.8557782465        5.9138184785       12.0320938998
  N         9.5289220451        5.9158884244       12.0337728278
  N         7.1929223634        5.9371419760       12.0398938799
  H        10.3501644880        5.9069246928       12.6441864119
  H         4.0485801565        5.9064200167       12.6636665020
  C         8.4298643292        5.9186846650       12.7633324392
  C         6.0038145519        5.9215853077       12.6997417107
  N         8.2136130536        5.9086349376       13.9154411245
  N         5.9515605609        5.9067543733       14.1877815307
  C         6.3936694886        5.9008888794       14.6877403494
  N         9.3520573011        5.8643679299       15.5788799395
  H         7.4506887261        5.8709582802       16.0333063005
  H         6.9250657580        5.8448577552       16.7819864890
 Au         7.1502924314        5.9385862703       21.0428937959
 Au         5.9490760095        7.1099666437       22.9917591902
 Au         8.6201328862        4.4388982978       22.9920560546
 Au         5.9490702717        4.4379040522       22.9922031006
 Au         8.6201386234        7.1099608893       22.9916123048
 Au         1.4796149049        1.4832401776       25.0829140300
 Au         1.4796162982        4.4382401515       25.0824392579
 Au         1.4796176920        7.3942401254       25.0819643253
 Au         4.4356149028        1.4832387655       25.0827565820
 Au         4.4356162961        4.4382387394       25.0822818100
 Au         4.4356176899        7.3942387133       25.0818068773
 Au         7.1936149009        1.4832374480       25.0826096802
 Au         7.1936162942        4.4382374219       25.0821349082
 Au         7.1936176880        7.3942373958       25.0816599755
 Au        10.1496148988        1.4832360358       25.0824522322
 Au        10.1496162921        4.4382360097       25.0819774602
 Au        10.1496176859        7.3942359836       25.0815025275
 Au        13.1056148968        1.4832346237       25.0822947842
 Au        13.1056162901        4.4382345976       25.0818200122
 Au        13.1056176839        7.3942345715       25.0813450796
 Au         0.0017255258        0.0055766929       27.1732301989
 Au         0.0017269192        2.9605766668       27.1727554269
 Au         0.0017283129        5.9165766407       27.1722804942
 Au         2.9577255238        0.0055752808       27.1730727509
 Au         2.9577269171        2.9605752547       27.1725979789
 Au         2.9577283109        5.9165752286       27.1721230462
 Au         5.9137255217        0.0055738687       27.1729153029
 Au         5.9137269150        2.9605738426       27.1724405309
 Au         5.9137283088        5.9165738165       27.1719655982
 Au         8.6717255198        0.0055725512       27.1727684012
 Au         8.6717269131        2.9605725251       27.1722936292
 Au         8.6717283069        5.9165724990       27.1718186965
 Au        11.6277255178        0.0055711390       27.1726109532
 Au        11.6277269111        2.9605711129       27.1721361812
 Au        11.6277283049        5.9165710868       27.1716612485
 Au         1.4798375386        1.4839117700       29.2629139872
 Au         1.4798389319        4.4389117439       29.2624392152
 Au         1.4798403257        7.3949117178       29.2619642825
 Au         4.4358375365        1.4839103579       29.2627565392
 Au         4.4358389298        4.4389103318       29.2622817672
 Au         4.4358403236        7.3949103057       29.2618068345
 Au         7.1938375346        1.4839090404       29.2626096375
 Au         7.1938389279        4.4389090143       29.2621348655
 Au         7.1938403217        7.3949089882       29.2616599328
 Au        10.1498375325        1.4839076283       29.2624521895
 Au        10.1498389259        4.4389076022       29.2619774175
 Au        10.1498403196        7.3949075761       29.2615024848
 Au        13.1058375305        1.4839062161       29.2622947415
 Au        13.1058389238        4.4389061901       29.2618199695
 Au        13.1058403176        7.3949061639       29.2613450368
 Au         0.0019481596        0.0062482854       31.3532301562
 Au         0.0019495529        2.9612482593       31.3527553841
 Au         0.0019509467        5.9172482332       31.3522804515
 Au         2.9579481575        0.0062468732       31.3530727082
 Au         2.9579495508        2.9612468471       31.3525979362
 Au         2.9579509446        5.9172468210       31.3521230035
 Au         5.9139481555        0.0062454611       31.3529152602
 Au         5.9139495488        2.9612454350       31.3524404882
 Au         5.9139509426        5.9172454089       31.3519655555
 Au         8.6719481535        0.0062441436       31.3527683584
 Au         8.6719495469        2.9612441175       31.3522935864
 Au         8.6719509406        5.9172440914       31.3518186538
 Au        11.6279481515        0.0062427315       31.3526109105
 Au        11.6279495448        2.9612427054       31.3521361384
 Au        11.6279509386        5.9172426793       31.3516612058
 Au         1.4800601723        1.4845833625       33.4429139444
 Au         1.4800615656        4.4395833364       33.4424391724
 Au         1.4800629594        7.3955833103       33.4419642398
 Au         4.4360601702        1.4845819503       33.4427564965
 Au         4.4360615636        4.4395819242       33.4422817244
 Au         4.4360629573        7.3955818981       33.4418067918
 Au         7.1940601683        1.4845806328       33.4426095947
 Au         7.1940615616        4.4395806067       33.4421348227
 Au         7.1940629554        7.3955805806       33.4416598900
 Au        10.1500601663        1.4845792207       33.4424521467
 Au        10.1500615596        4.4395791946       33.4419773747
 Au        10.1500629534        7.3955791685       33.4415024420
 Au        13.1060601642        1.4845778086       33.4422946987
 Au        13.1060615575        4.4395777825       33.4418199267
 Au        13.1060629513        7.3955777564       33.4413449941
     183
 i =       2, E =    -5728.8919797331
 Au         0.0002952746        0.0012304422        0.0012214649
 Au         0.0003022411        2.9562304160        0.0007419463
 Au         0.0003092100        5.9122303898        0.0002622655
 Au         2.9562952726        0.0012234548        0.0010627249
 Au         2.9563022392        2.9562234286        0.0005832063
 Au         2.9563092081        5.9122234025        0.0001035255
 Au         5.9122952707        0.0012164674        0.0009039849
 Au         5.9123022373        2.9562164412        0.0004244663
 Au         5.9123092062        5.9122164151       -0.0000552145
 Au         8.6702952689        0.0012099480        0.0007558776
 Au         8.6703022355        2.9562099219        0.0002763591
 Au         8.6703092044        5.9122098957       -0.0002033217
 Au        11.6262952670        0.0012029606        0.0005971376
 Au        11.6263022335        2.9562029345        0.0001176191
 Au        11.6263092024        5.9122029083       -0.0003620617
 Au         1.4784109884        1.4795660887        2.0909022329
 Au         1.4784179549        4.4345660626        2.0904227144
 Au         1.4784249238        7.3905660364        2.0899430336
 Au         4.4344109864        1.4795591013        2.0907434929
 Au         4.4344179530        4.4345590752        2.0902639744
 Au         4.4344249219        7.3905590490        2.0897842935
 Au         7.1924109846        1.4795525820        2.0905953857
 Au         7.1924179512        4.4345525558        2.0901158671
 Au         7.1924249201        7.3905525296        2.0896361863
 Au        10.1484109827        1.4795455946        2.0904366457
 Au        10.1484179493        4.4345455684        2.0899571271
 Au        10.1484249182        7.3905455422        2.0894774463
 Au        13.1044109808        1.4795386072        2.0902779056
 Au        13.1044179473        4.4345385810        2.0897983871
 Au        13.1044249162        7.3905385548        2.0893187063
 Au         0.0005197352        0.0019087488        4.1812214218
 Au         0.0005267017        2.9569087227        4.1807419032
 Au         0.0005336706        5.9129086965        4.1802622224
 Au         2.9565197333        0.0019017615        4.1810626818
 Au         2.9565266998        2.9569017353        4.1805831632
 Au         2.9565336687        5.9129017091        4.1801034824
 Au         5.9125197313        0.0018947741        4.1809039417
 Au         5.9125266979        2.9568947479        4.1804244232
 Au         5.9125336668        5.9128947217        4.1799447424
 Au         8.6705197295        0.0018882547        4.1807558345
 Au         8.6705266961        2.9568882285        4.1802763160
 Au         8.6705336650        5.9128882024        4.1797966352
 Au        11.6265197276        0.0018812673        4.1805970945
 Au        11.6265266941        2.9568812411        4.1801175760
 Au        11.6265336631        5.9128812150        4.1796378951
 Au         1.4786354490        1.4802443954        6.2709021898
 Au         1.4786424155        4.4352443692        6.2704226713
 Au         1.4786493844        7.3912443430        6.2699429905
 Au         4.4346354471        1.4802374080        6.2707434498
 Au         4.4346424136        4.4352373818        6.2702639313
 Au         4.4346493825        7.3912373557        6.2697842504
 Au         7.1926354453        1.4802308886        6.2705953426
 Au         7.1926424118        4.4352308625        6.2701158240
 Au         7.1926493807        7.3912308363        6.2696361432
 Au        10.1486354433        1.4802239012        6.2704366026
 Au        10.1486424099        4.4352238751        6.2699570840
 Au        10.1486493788        7.3912238489        6.2694774032
 Au        13.1046354414        1.4802169139        6.2702778625
 Au        13.1046424079        4.4352168877        6.2697983440
 Au        13.1046493768        7.3912168615        6.2693186632
 Au         0.0007441958        0.0025870555        8.3612213787
 Au         0.0007511624        2.9575870293        8.3607418601
 Au         0.0007581313        5.9135870032        8.3602621793
 Au         2.9567441939        0.0025800681        8.3610626387
 Au         2.9567511604        2.9575800419        8.3605831201
 Au         2.9567581293        5.9135800158        8.3601034393
 Au         5.9127441919        0.0025730807        8.3609038986
 Au         5.9127511585        2.9575730546        8.3604243801
 Au         5.9127581274        5.9135730284        8.3599446993
 Au         8.6707441901        0.0025665614        8.3607557914
 Au         8.6707511567        2.9575665352        8.3602762729
 Au         8.6707581256        5.9135665090        8.3597965921
 Au        11.6267441882        0.0025595740        8.3605970514
 Au        11.6267511548        2.9575595478        8.3601175329
 Au        11.6267581237        5.9135595216        8.3596378520
 Au         1.4788599096        1.4809227021       10.4509021467
 Au         1.4788668762        4.4359226759       10.4504226282
 Au         1.4788738451        7.3919226497       10.4499429474
 Au         4.4348599077        1.4809157147       10.4507434067
 Au         4.4348668742        4.4359156885       10.4502638882
 Au         4.4348738431        7.3919156623       10.4497842073
 Au         7.1928599059        1.4809091953       10.4505952995
 Au         7.1928668724        4.4359091691       10.4501157809
 Au         7.1928738413        7.3919091430       10.4496361001
 Au        10.1488599039        1.4809022079       10.4504365594
 Au        10.1488668705        4.4359021817       10.4499570409
 Au        10.1488738394        7.3919021556       10.4494773601
 Au        13.1048599020        1.4808952205       10.4502778194
 Au        13.1048668686        4.4358951943       10.4497983009
 Au        13.1048738375        7.3918951682       10.4493186201
  N         4.8558070976        5.9138378708       12.0320755360
  N         9.5289554331        5.9159012733       12.0337501522
  N         7.1929557920        5.9371671720       12.0398721918