 # Version information for this restart file 
 # current date 2024-01-10 21:26:00.749
 # current working dir /gpfs/home/cahart/transport/melamine/au_from-h2/ci-neb/ts1/dft_leads-sz_tip-dzvp_surf-dzvp_kpoints-2-4-20_replicas-3
 # Program compiled at                              Thu 21 Sep 19:20:17 BST 2023
 # Program compiled on                                           hx1-c12-login-1
 # Program compiled for                                                    local
 # Source code revision number                                       git:5518aa6
 &GLOBAL
   EXTENDED_FFT_LENGTHS  T
   PRINT_LEVEL  MEDIUM
   PROJECT_NAME 2_dft_wfn-r-0
   OUTPUT_FILE_NAME 2_dft_wfn-r-0.out
   RUN_TYPE  BAND
 &END GLOBAL
 &MOTION
   &CONSTRAINT
     &FIXED_ATOMS
       LIST  1..93 104..183
     &END FIXED_ATOMS
   &END CONSTRAINT
   &BAND
     NPROC_REP  64
     BAND_TYPE  CI-NEB
     NUMBER_OF_REPLICA  3
     K_SPRING     5.0000000000000003E-02
     &CI_NEB
       NSTEPS_IT  5
     &END CI_NEB
     &OPTIMIZE_BAND
       OPT_TYPE  DIIS
       &DIIS
         MAX_STEPS  1000
       &END DIIS
     &END OPTIMIZE_BAND
     &REPLICA
       &COORD
             0.0000000000000000E+00    0.0000000000000000E+00    0.0000000000000000E+00
             0.0000000000000000E+00    2.9550000000000010E+00    0.0000000000000000E+00
             0.0000000000000000E+00    5.9110000000000023E+00    0.0000000000000000E+00
             2.9560000000000013E+00    0.0000000000000000E+00    0.0000000000000000E+00
             2.9560000000000013E+00    2.9550000000000010E+00    0.0000000000000000E+00
             2.9560000000000013E+00    5.9110000000000023E+00    0.0000000000000000E+00
             5.9120000000000026E+00    0.0000000000000000E+00    0.0000000000000000E+00
             5.9120000000000026E+00    2.9550000000000010E+00    0.0000000000000000E+00
             5.9120000000000026E+00    5.9110000000000023E+00    0.0000000000000000E+00
             8.6700000000000017E+00    0.0000000000000000E+00    0.0000000000000000E+00
             8.6700000000000017E+00    2.9550000000000010E+00    0.0000000000000000E+00
             8.6700000000000017E+00    5.9110000000000023E+00    0.0000000000000000E+00
             1.1626000000000001E+01    0.0000000000000000E+00    0.0000000000000000E+00
             1.1626000000000001E+01    2.9550000000000010E+00    0.0000000000000000E+00
             1.1626000000000001E+01    5.9110000000000023E+00    0.0000000000000000E+00
             1.4780000000000006E+00    1.4780000000000006E+00    2.0900000000000003E+00
             1.4780000000000006E+00    4.4330000000000025E+00    2.0900000000000003E+00
             1.4780000000000006E+00    7.3890000000000029E+00    2.0900000000000003E+00
             4.4340000000000011E+00    1.4780000000000006E+00    2.0900000000000003E+00
             4.4340000000000011E+00    4.4330000000000025E+00    2.0900000000000003E+00
             4.4340000000000011E+00    7.3890000000000029E+00    2.0900000000000003E+00
             7.1920000000000019E+00    1.4780000000000006E+00    2.0900000000000003E+00
             7.1920000000000019E+00    4.4330000000000025E+00    2.0900000000000003E+00
             7.1920000000000019E+00    7.3890000000000029E+00    2.0900000000000003E+00
             1.0148000000000001E+01    1.4780000000000006E+00    2.0900000000000003E+00
             1.0148000000000001E+01    4.4330000000000025E+00    2.0900000000000003E+00
             1.0148000000000001E+01    7.3890000000000029E+00    2.0900000000000003E+00
             1.3103999999999999E+01    1.4780000000000006E+00    2.0900000000000003E+00
             1.3103999999999999E+01    4.4330000000000025E+00    2.0900000000000003E+00
             1.3103999999999999E+01    7.3890000000000029E+00    2.0900000000000003E+00
             0.0000000000000000E+00    0.0000000000000000E+00    4.1800000000000006E+00
             0.0000000000000000E+00    2.9550000000000010E+00    4.1800000000000006E+00
             0.0000000000000000E+00    5.9110000000000023E+00    4.1800000000000006E+00
             2.9560000000000013E+00    0.0000000000000000E+00    4.1800000000000006E+00
             2.9560000000000013E+00    2.9550000000000010E+00    4.1800000000000006E+00
             2.9560000000000013E+00    5.9110000000000023E+00    4.1800000000000006E+00
             5.9120000000000026E+00    0.0000000000000000E+00    4.1800000000000006E+00
             5.9120000000000026E+00    2.9550000000000010E+00    4.1800000000000006E+00
             5.9120000000000026E+00    5.9110000000000023E+00    4.1800000000000006E+00
             8.6700000000000017E+00    0.0000000000000000E+00    4.1800000000000006E+00
             8.6700000000000017E+00    2.9550000000000010E+00    4.1800000000000006E+00
             8.6700000000000017E+00    5.9110000000000023E+00    4.1800000000000006E+00
             1.1626000000000001E+01    0.0000000000000000E+00    4.1800000000000006E+00
             1.1626000000000001E+01    2.9550000000000010E+00    4.1800000000000006E+00
             1.1626000000000001E+01    5.9110000000000023E+00    4.1800000000000006E+00
             1.4780000000000006E+00    1.4780000000000006E+00    6.2700000000000005E+00
             1.4780000000000006E+00    4.4330000000000025E+00    6.2700000000000005E+00
             1.4780000000000006E+00    7.3890000000000029E+00    6.2700000000000005E+00
             4.4340000000000011E+00    1.4780000000000006E+00    6.2700000000000005E+00
             4.4340000000000011E+00    4.4330000000000025E+00    6.2700000000000005E+00
             4.4340000000000011E+00    7.3890000000000029E+00    6.2700000000000005E+00
             7.1920000000000019E+00    1.4780000000000006E+00    6.2700000000000005E+00
             7.1920000000000019E+00    4.4330000000000025E+00    6.2700000000000005E+00
             7.1920000000000019E+00    7.3890000000000029E+00    6.2700000000000005E+00
             1.0148000000000001E+01    1.4780000000000006E+00    6.2700000000000005E+00
             1.0148000000000001E+01    4.4330000000000025E+00    6.2700000000000005E+00
             1.0148000000000001E+01    7.3890000000000029E+00    6.2700000000000005E+00
             1.3103999999999999E+01    1.4780000000000006E+00    6.2700000000000005E+00
             1.3103999999999999E+01    4.4330000000000025E+00    6.2700000000000005E+00
             1.3103999999999999E+01    7.3890000000000029E+00    6.2700000000000005E+00
             0.0000000000000000E+00    0.0000000000000000E+00    8.3600000000000012E+00
             0.0000000000000000E+00    2.9550000000000010E+00    8.3600000000000012E+00
             0.0000000000000000E+00    5.9110000000000023E+00    8.3600000000000012E+00
             2.9560000000000013E+00    0.0000000000000000E+00    8.3600000000000012E+00
             2.9560000000000013E+00    2.9550000000000010E+00    8.3600000000000012E+00
             2.9560000000000013E+00    5.9110000000000023E+00    8.3600000000000012E+00
             5.9120000000000026E+00    0.0000000000000000E+00    8.3600000000000012E+00
             5.9120000000000026E+00    2.9550000000000010E+00    8.3600000000000012E+00
             5.9120000000000026E+00    5.9110000000000023E+00    8.3600000000000012E+00
             8.6700000000000017E+00    0.0000000000000000E+00    8.3600000000000012E+00
             8.6700000000000017E+00    2.9550000000000010E+00    8.3600000000000012E+00
             8.6700000000000017E+00    5.9110000000000023E+00    8.3600000000000012E+00
             1.1626000000000001E+01    0.0000000000000000E+00    8.3600000000000012E+00
             1.1626000000000001E+01    2.9550000000000010E+00    8.3600000000000012E+00
             1.1626000000000001E+01    5.9110000000000023E+00    8.3600000000000012E+00
             1.4780000000000006E+00    1.4780000000000006E+00    1.0450000000000001E+01
             1.4780000000000006E+00    4.4330000000000025E+00    1.0450000000000001E+01
             1.4780000000000006E+00    7.3890000000000029E+00    1.0450000000000001E+01
             4.4340000000000011E+00    1.4780000000000006E+00    1.0450000000000001E+01
             4.4340000000000011E+00    4.4330000000000025E+00    1.0450000000000001E+01
             4.4340000000000011E+00    7.3890000000000029E+00    1.0450000000000001E+01
             7.1920000000000019E+00    1.4780000000000006E+00    1.0450000000000001E+01
             7.1920000000000019E+00    4.4330000000000025E+00    1.0450000000000001E+01
             7.1920000000000019E+00    7.3890000000000029E+00    1.0450000000000001E+01
             1.0148000000000001E+01    1.4780000000000006E+00    1.0450000000000001E+01
             1.0148000000000001E+01    4.4330000000000025E+00    1.0450000000000001E+01
             1.0148000000000001E+01    7.3890000000000029E+00    1.0450000000000001E+01
             1.3103999999999999E+01    1.4780000000000006E+00    1.0450000000000001E+01
             1.3103999999999999E+01    4.4330000000000025E+00    1.0450000000000001E+01
             1.3103999999999999E+01    7.3890000000000029E+00    1.0450000000000001E+01
             4.8554000000000030E+00    5.9119000000000010E+00    1.2031800000000000E+01
             9.5280000000000005E+00    5.9137000000000013E+00    1.2034000000000002E+01
             7.1920000000000019E+00    5.9340000000000011E+00    1.2040000000000003E+01
             4.0750319168000004E+00    5.9049488170000011E+00    1.2696844061800000E+01
             1.0293988349500003E+01    5.9062142779000002E+00    1.2716532694500001E+01
             6.0099999686000025E+00    5.9120523853000009E+00    1.2765819797400002E+01
             8.3750478948000016E+00    5.9129627335000015E+00    1.2760746495900005E+01
             5.9788500869000023E+00    5.8882515165000004E+00    1.4094239568500003E+01
             8.4047327065000026E+00    5.8893877816000009E+00    1.4094060897200000E+01
             7.1943473362999999E+00    5.8799164377000013E+00    1.4701118490300006E+01
             7.1912293097000024E+00    5.8521058221000004E+00    1.6050622658199998E+01
             6.3086348447000002E+00    5.8615539361000009E+00    1.6548439365000004E+01
             8.0709262665000008E+00    5.8621389354000017E+00    1.6553588809700003E+01
             7.3120000000000029E+00    5.9340000000000011E+00    2.1043000000000006E+01
             5.8130000000000006E+00    7.4340000000000028E+00    2.2992000000000004E+01
             8.8130000000000024E+00    4.4340000000000011E+00    2.2992000000000004E+01
             5.8130000000000006E+00    4.4330000000000025E+00    2.2992000000000004E+01
             8.8130000000000024E+00    7.4340000000000028E+00    2.2992000000000004E+01
             1.4780000000000006E+00    1.4780000000000006E+00    2.5082000000000008E+01
             1.4780000000000006E+00    4.4330000000000025E+00    2.5082000000000008E+01
             1.4780000000000006E+00    7.3890000000000029E+00    2.5082000000000008E+01
             4.4340000000000011E+00    1.4780000000000006E+00    2.5082000000000008E+01
             4.4340000000000011E+00    4.4330000000000025E+00    2.5082000000000008E+01
             4.4340000000000011E+00    7.3890000000000029E+00    2.5082000000000008E+01
             7.1920000000000019E+00    1.4780000000000006E+00    2.5082000000000008E+01
             7.1920000000000019E+00    4.4330000000000025E+00    2.5082000000000008E+01
             7.1920000000000019E+00    7.3890000000000029E+00    2.5082000000000008E+01
             1.0148000000000001E+01    1.4780000000000006E+00    2.5082000000000008E+01
             1.0148000000000001E+01    4.4330000000000025E+00    2.5082000000000008E+01
             1.0148000000000001E+01    7.3890000000000029E+00    2.5082000000000008E+01
             1.3103999999999999E+01    1.4780000000000006E+00    2.5082000000000008E+01
             1.3103999999999999E+01    4.4330000000000025E+00    2.5082000000000008E+01
             1.3103999999999999E+01    7.3890000000000029E+00    2.5082000000000008E+01
             0.0000000000000000E+00    0.0000000000000000E+00    2.7172000000000011E+01
             0.0000000000000000E+00    2.9550000000000010E+00    2.7172000000000011E+01
             0.0000000000000000E+00    5.9110000000000023E+00    2.7172000000000011E+01
             2.9560000000000013E+00    0.0000000000000000E+00    2.7172000000000011E+01
             2.9560000000000013E+00    2.9550000000000010E+00    2.7172000000000011E+01
             2.9560000000000013E+00    5.9110000000000023E+00    2.7172000000000011E+01
             5.9120000000000026E+00    0.0000000000000000E+00    2.7172000000000011E+01
             5.9120000000000026E+00    2.9550000000000010E+00    2.7172000000000011E+01
             5.9120000000000026E+00    5.9110000000000023E+00    2.7172000000000011E+01
             8.6700000000000017E+00    0.0000000000000000E+00    2.7172000000000011E+01
             8.6700000000000017E+00    2.9550000000000010E+00    2.7172000000000011E+01
             8.6700000000000017E+00    5.9110000000000023E+00    2.7172000000000011E+01
             1.1626000000000001E+01    0.0000000000000000E+00    2.7172000000000011E+01
             1.1626000000000001E+01    2.9550000000000010E+00    2.7172000000000011E+01
             1.1626000000000001E+01    5.9110000000000023E+00    2.7172000000000011E+01
             1.4780000000000006E+00    1.4780000000000006E+00    2.9262000000000004E+01
             1.4780000000000006E+00    4.4330000000000025E+00    2.9262000000000004E+01
             1.4780000000000006E+00    7.3890000000000029E+00    2.9262000000000004E+01
             4.4340000000000011E+00    1.4780000000000006E+00    2.9262000000000004E+01
             4.4340000000000011E+00    4.4330000000000025E+00    2.9262000000000004E+01
             4.4340000000000011E+00    7.3890000000000029E+00    2.9262000000000004E+01
             7.1920000000000019E+00    1.4780000000000006E+00    2.9262000000000004E+01
             7.1920000000000019E+00    4.4330000000000025E+00    2.9262000000000004E+01
             7.1920000000000019E+00    7.3890000000000029E+00    2.9262000000000004E+01
             1.0148000000000001E+01    1.4780000000000006E+00    2.9262000000000004E+01
             1.0148000000000001E+01    4.4330000000000025E+00    2.9262000000000004E+01
             1.0148000000000001E+01    7.3890000000000029E+00    2.9262000000000004E+01
             1.3103999999999999E+01    1.4780000000000006E+00    2.9262000000000004E+01
             1.3103999999999999E+01    4.4330000000000025E+00    2.9262000000000004E+01
             1.3103999999999999E+01    7.3890000000000029E+00    2.9262000000000004E+01
             0.0000000000000000E+00    0.0000000000000000E+00    3.1352000000000011E+01
             0.0000000000000000E+00    2.9550000000000010E+00    3.1352000000000011E+01
             0.0000000000000000E+00    5.9110000000000023E+00    3.1352000000000011E+01
             2.9560000000000013E+00    0.0000000000000000E+00    3.1352000000000011E+01
             2.9560000000000013E+00    2.9550000000000010E+00    3.1352000000000011E+01
             2.9560000000000013E+00    5.9110000000000023E+00    3.1352000000000011E+01
             5.9120000000000026E+00    0.0000000000000000E+00    3.1352000000000011E+01
             5.9120000000000026E+00    2.9550000000000010E+00    3.1352000000000011E+01
             5.9120000000000026E+00    5.9110000000000023E+00    3.1352000000000011E+01
             8.6700000000000017E+00    0.0000000000000000E+00    3.1352000000000011E+01
             8.6700000000000017E+00    2.9550000000000010E+00    3.1352000000000011E+01
             8.6700000000000017E+00    5.9110000000000023E+00    3.1352000000000011E+01
             1.1626000000000001E+01    0.0000000000000000E+00    3.1352000000000011E+01
             1.1626000000000001E+01    2.9550000000000010E+00    3.1352000000000011E+01
             1.1626000000000001E+01    5.9110000000000023E+00    3.1352000000000011E+01
             1.4780000000000006E+00    1.4780000000000006E+00    3.3442000000000021E+01
             1.4780000000000006E+00    4.4330000000000025E+00    3.3442000000000021E+01
             1.4780000000000006E+00    7.3890000000000029E+00    3.3442000000000021E+01
             4.4340000000000011E+00    1.4780000000000006E+00    3.3442000000000021E+01
             4.4340000000000011E+00    4.4330000000000025E+00    3.3442000000000021E+01
             4.4340000000000011E+00    7.3890000000000029E+00    3.3442000000000021E+01
             7.1920000000000019E+00    1.4780000000000006E+00    3.3442000000000021E+01
             7.1920000000000019E+00    4.4330000000000025E+00    3.3442000000000021E+01
             7.1920000000000019E+00    7.3890000000000029E+00    3.3442000000000021E+01
             1.0148000000000001E+01    1.4780000000000006E+00    3.3442000000000021E+01
             1.0148000000000001E+01    4.4330000000000025E+00    3.3442000000000021E+01
             1.0148000000000001E+01    7.3890000000000029E+00    3.3442000000000021E+01
             1.3103999999999999E+01    1.4780000000000006E+00    3.3442000000000021E+01
             1.3103999999999999E+01    4.4330000000000025E+00    3.3442000000000021E+01
             1.3103999999999999E+01    7.3890000000000029E+00    3.3442000000000021E+01
       &END COORD
       &VELOCITY
             0.0000000000000000E+00    0.0000000000000000E+00    0.0000000000000000E+00
             0.0000000000000000E+00    0.0000000000000000E+00    0.0000000000000000E+00
             0.0000000000000000E+00    0.0000000000000000E+00    0.0000000000000000E+00
             0.0000000000000000E+00    0.0000000000000000E+00    0.0000000000000000E+00
             0.0000000000000000E+00    0.0000000000000000E+00    0.0000000000000000E+00
             0.0000000000000000E+00    0.0000000000000000E+00    0.0000000000000000E+00
             0.0000000000000000E+00    0.0000000000000000E+00    0.0000000000000000E+00
             0.0000000000000000E+00    0.0000000000000000E+00    0.0000000000000000E+00
             0.0000000000000000E+00    0.0000000000000000E+00    0.0000000000000000E+00
             0.0000000000000000E+00    0.0000000000000000E+00    0.0000000000000000E+00
             0.0000000000000000E+00    0.0000000000000000E+00    0.0000000000000000E+00
             0.0000000000000000E+00    0.0000000000000000E+00    0.0000000000000000E+00
             0.0000000000000000E+00    0.0000000000000000E+00    0.0000000000000000E+00
             0.0000000000000000E+00    0.0000000000000000E+00    0.0000000000000000E+00
             0.0000000000000000E+00    0.0000000000000000E+00    0.0000000000000000E+00
             0.0000000000000000E+00    0.0000000000000000E+00    0.0000000000000000E+00
             0.0000000000000000E+00    0.0000000000000000E+00    0.0000000000000000E+00
             0.0000000000000000E+00    0.0000000000000000E+00    0.0000000000000000E+00
             0.0000000000000000E+00    0.0000000000000000E+00    0.0000000000000000E+00
             0.0000000000000000E+00    0.0000000000000000E+00    0.0000000000000000E+00
             0.0000000000000000E+00    0.0000000000000000E+00    0.0000000000000000E+00
             0.0000000000000000E+00    0.0000000000000000E+00    0.0000000000000000E+00
             0.0000000000000000E+00    0.0000000000000000E+00    0.0000000000000000E+00
             0.0000000000000000E+00    0.0000000000000000E+00    0.0000000000000000E+00
             0.0000000000000000E+00    0.0000000000000000E+00    0.0000000000000000E+00
             0.0000000000000000E+00    0.0000000000000000E+00    0.0000000000000000E+00
             0.0000000000000000E+00    0.0000000000000000E+00    0.0000000000000000E+00
             0.0000000000000000E+00    0.0000000000000000E+00    0.0000000000000000E+00
             0.0000000000000000E+00    0.0000000000000000E+00    0.0000000000000000E+00
             0.0000000000000000E+00    0.0000000000000000E+00    0.0000000000000000E+00
             0.0000000000000000E+00    0.0000000000000000E+00    0.0000000000000000E+00
             0.0000000000000000E+00    0.0000000000000000E+00    0.0000000000000000E+00
             0.0000000000000000E+00    0.0000000000000000E+00    0.0000000000000000E+00
             0.0000000000000000E+00    0.0000000000000000E+00    0.0000000000000000E+00
             0.0000000000000000E+00    0.0000000000000000E+00    0.0000000000000000E+00
             0.0000000000000000E+00    0.0000000000000000E+00    0.0000000000000000E+00
             0.0000000000000000E+00    0.0000000000000000E+00    0.0000000000000000E+00
             0.0000000000000000E+00    0.0000000000000000E+00    0.0000000000000000E+00
             0.0000000000000000E+00    0.0000000000000000E+00    0.0000000000000000E+00
             0.0000000000000000E+00    0.0000000000000000E+00    0.0000000000000000E+00
             0.0000000000000000E+00    0.0000000000000000E+00    0.0000000000000000E+00
             0.0000000000000000E+00    0.0000000000000000E+00    0.0000000000000000E+00
             0.0000000000000000E+00    0.0000000000000000E+00    0.0000000000000000E+00
             0.0000000000000000E+00    0.0000000000000000E+00    0.0000000000000000E+00
             0.0000000000000000E+00    0.0000000000000000E+00    0.0000000000000000E+00
             0.0000000000000000E+00    0.0000000000000000E+00    0.0000000000000000E+00
             0.0000000000000000E+00    0.0000000000000000E+00    0.0000000000000000E+00
             0.0000000000000000E+00    0.0000000000000000E+00    0.0000000000000000E+00
             0.0000000000000000E+00    0.0000000000000000E+00    0.0000000000000000E+00
             0.0000000000000000E+00    0.0000000000000000E+00    0.0000000000000000E+00
             0.0000000000000000E+00    0.0000000000000000E+00    0.0000000000000000E+00
             0.0000000000000000E+00    0.0000000000000000E+00    0.0000000000000000E+00
             0.0000000000000000E+00    0.0000000000000000E+00    0.0000000000000000E+00
             0.0000000000000000E+00    0.0000000000000000E+00    0.0000000000000000E+00
             0.0000000000000000E+00    0.0000000000000000E+00    0.0000000000000000E+00
             0.0000000000000000E+00    0.0000000000000000E+00    0.0000000000000000E+00
             0.0000000000000000E+00    0.0000000000000000E+00    0.0000000000000000E+00
             0.0000000000000000E+00    0.0000000000000000E+00    0.0000000000000000E+00
             0.0000000000000000E+00    0.0000000000000000E+00    0.0000000000000000E+00
             0.0000000000000000E+00    0.0000000000000000E+00    0.0000000000000000E+00
             0.0000000000000000E+00    0.0000000000000000E+00    0.0000000000000000E+00
             0.0000000000000000E+00    0.0000000000000000E+00    0.0000000000000000E+00
             0.0000000000000000E+00    0.0000000000000000E+00    0.0000000000000000E+00
             0.0000000000000000E+00    0.0000000000000000E+00    0.0000000000000000E+00
             0.0000000000000000E+00    0.0000000000000000E+00    0.0000000000000000E+00
             0.0000000000000000E+00    0.0000000000000000E+00    0.0000000000000000E+00
             0.0000000000000000E+00    0.0000000000000000E+00    0.0000000000000000E+00
             0.0000000000000000E+00    0.0000000000000000E+00    0.0000000000000000E+00
             0.0000000000000000E+00    0.0000000000000000E+00    0.0000000000000000E+00
             0.0000000000000000E+00    0.0000000000000000E+00    0.0000000000000000E+00
             0.0000000000000000E+00    0.0000000000000000E+00    0.0000000000000000E+00
             0.0000000000000000E+00    0.0000000000000000E+00    0.0000000000000000E+00
             0.0000000000000000E+00    0.0000000000000000E+00    0.0000000000000000E+00
             0.0000000000000000E+00    0.0000000000000000E+00    0.0000000000000000E+00
             0.0000000000000000E+00    0.0000000000000000E+00    0.0000000000000000E+00
             0.0000000000000000E+00    0.0000000000000000E+00    0.0000000000000000E+00
             0.0000000000000000E+00    0.0000000000000000E+00    0.0000000000000000E+00
             0.0000000000000000E+00    0.0000000000000000E+00    0.0000000000000000E+00
             0.0000000000000000E+00    0.0000000000000000E+00    0.0000000000000000E+00
             0.0000000000000000E+00    0.0000000000000000E+00    0.0000000000000000E+00
             0.0000000000000000E+00    0.0000000000000000E+00    0.0000000000000000E+00
             0.0000000000000000E+00    0.0000000000000000E+00    0.0000000000000000E+00
             0.0000000000000000E+00    0.0000000000000000E+00    0.0000000000000000E+00
             0.0000000000000000E+00    0.0000000000000000E+00    0.0000000000000000E+00
             0.0000000000000000E+00    0.0000000000000000E+00    0.0000000000000000E+00
             0.0000000000000000E+00    0.0000000000000000E+00    0.0000000000000000E+00
             0.0000000000000000E+00    0.0000000000000000E+00    0.0000000000000000E+00
             0.0000000000000000E+00    0.0000000000000000E+00    0.0000000000000000E+00
             0.0000000000000000E+00    0.0000000000000000E+00    0.0000000000000000E+00
             0.0000000000000000E+00    0.0000000000000000E+00    0.0000000000000000E+00
             0.0000000000000000E+00    0.0000000000000000E+00    0.0000000000000000E+00
             0.0000000000000000E+00    0.0000000000000000E+00    0.0000000000000000E+00
             0.0000000000000000E+00    0.0000000000000000E+00    0.0000000000000000E+00
             0.0000000000000000E+00    0.0000000000000000E+00    0.0000000000000000E+00
             0.0000000000000000E+00    0.0000000000000000E+00    0.0000000000000000E+00
             0.0000000000000000E+00    0.0000000000000000E+00    0.0000000000000000E+00
             0.0000000000000000E+00    0.0000000000000000E+00    0.0000000000000000E+00
             0.0000000000000000E+00    0.0000000000000000E+00    0.0000000000000000E+00
             0.0000000000000000E+00    0.0000000000000000E+00    0.0000000000000000E+00
             0.0000000000000000E+00    0.0000000000000000E+00    0.0000000000000000E+00
             0.0000000000000000E+00    0.0000000000000000E+00    0.0000000000000000E+00
             0.0000000000000000E+00    0.0000000000000000E+00    0.0000000000000000E+00
             0.0000000000000000E+00    0.0000000000000000E+00    0.0000000000000000E+00
             0.0000000000000000E+00    0.0000000000000000E+00    0.0000000000000000E+00
             0.0000000000000000E+00    0.0000000000000000E+00    0.0000000000000000E+00
             0.0000000000000000E+00    0.0000000000000000E+00    0.0000000000000000E+00
             0.0000000000000000E+00    0.0000000000000000E+00    0.0000000000000000E+00
             0.0000000000000000E+00    0.0000000000000000E+00    0.0000000000000000E+00
             0.0000000000000000E+00    0.0000000000000000E+00    0.0000000000000000E+00
             0.0000000000000000E+00    0.0000000000000000E+00    0.0000000000000000E+00
             0.0000000000000000E+00    0.0000000000000000E+00    0.0000000000000000E+00
             0.0000000000000000E+00    0.0000000000000000E+00    0.0000000000000000E+00
             0.0000000000000000E+00    0.0000000000000000E+00    0.0000000000000000E+00
             0.0000000000000000E+00    0.0000000000000000E+00    0.0000000000000000E+00
             0.0000000000000000E+00    0.0000000000000000E+00    0.0000000000000000E+00
             0.0000000000000000E+00    0.0000000000000000E+00    0.0000000000000000E+00
             0.0000000000000000E+00    0.0000000000000000E+00    0.0000000000000000E+00
             0.0000000000000000E+00    0.0000000000000000E+00    0.0000000000000000E+00
             0.0000000000000000E+00    0.0000000000000000E+00    0.0000000000000000E+00
             0.0000000000000000E+00    0.0000000000000000E+00    0.0000000000000000E+00
             0.0000000000000000E+00    0.0000000000000000E+00    0.0000000000000000E+00
             0.0000000000000000E+00    0.0000000000000000E+00    0.0000000000000000E+00
             0.0000000000000000E+00    0.0000000000000000E+00    0.0000000000000000E+00
             0.0000000000000000E+00    0.0000000000000000E+00    0.0000000000000000E+00
             0.0000000000000000E+00    0.0000000000000000E+00    0.0000000000000000E+00
             0.0000000000000000E+00    0.0000000000000000E+00    0.0000000000000000E+00
             0.0000000000000000E+00    0.0000000000000000E+00    0.0000000000000000E+00
             0.0000000000000000E+00    0.0000000000000000E+00    0.0000000000000000E+00
             0.0000000000000000E+00    0.0000000000000000E+00    0.0000000000000000E+00
             0.0000000000000000E+00    0.0000000000000000E+00    0.0000000000000000E+00
             0.0000000000000000E+00    0.0000000000000000E+00    0.0000000000000000E+00
             0.0000000000000000E+00    0.0000000000000000E+00    0.0000000000000000E+00
             0.0000000000000000E+00    0.0000000000000000E+00    0.0000000000000000E+00
             0.0000000000000000E+00    0.0000000000000000E+00    0.0000000000000000E+00
             0.0000000000000000E+00    0.0000000000000000E+00    0.0000000000000000E+00
             0.0000000000000000E+00    0.0000000000000000E+00    0.0000000000000000E+00
             0.0000000000000000E+00    0.0000000000000000E+00    0.0000000000000000E+00
             0.0000000000000000E+00    0.0000000000000000E+00    0.0000000000000000E+00
             0.0000000000000000E+00    0.0000000000000000E+00    0.0000000000000000E+00
             0.0000000000000000E+00    0.0000000000000000E+00    0.0000000000000000E+00
             0.0000000000000000E+00    0.0000000000000000E+00    0.0000000000000000E+00
             0.0000000000000000E+00    0.0000000000000000E+00    0.0000000000000000E+00
             0.0000000000000000E+00    0.0000000000000000E+00    0.0000000000000000E+00
             0.0000000000000000E+00    0.0000000000000000E+00    0.0000000000000000E+00