         0      -5729.810926764      -5729.404130783      -5729.259818269         19.607065731          5.193960302
         1      -5729.810926764      -5727.372873397      -5729.259818269         19.796522592          7.133527120
         2      -5729.810926764      -5728.891979733      -5729.259818270         19.502222330          6.850655725
         3      -5729.810926764      -5728.633154496      -5729.259818269         18.922374439          7.543130548
         4      -5729.810926764      -5728.924953432      -5729.259818270         18.583220202          8.104638850
         5      -5729.810926764      -5728.732968416      -5729.259818270         17.930021280          9.221147522
         6      -5729.810926764      -5728.792606559      -5729.259818270         17.808399744          9.489148466
         7      -5729.810926764      -5728.815917848      -5729.259818270         17.792868859          9.647221781
         8      -5729.810926764      -5728.673239681      -5729.259818269         17.830385272         10.677051438
         9      -5729.810926764      -5728.746673414      -5729.259818269         17.683257443         10.984460233
        10      -5729.810926764      -5728.702081640      -5729.259818270         17.594712079         11.415632845
        11      -5729.810926764      -5728.709058186      -5729.259818269         17.472791850         11.870574497
        12      -5729.810926764      -5728.627622920      -5729.259818270         17.270711560         13.223415018
        13      -5729.810926764      -5728.734334071      -5729.259818270         17.250291931         13.345916691
        14      -5729.810926764      -5728.757257798      -5729.259818270         17.238629961         13.466691848
        15      -5729.810926764      -5728.727291202      -5729.259818269         17.148652573         14.108724178
        16      -5729.810926764      -5728.769129034      -5729.259818270         17.218350238         14.234366951
        17      -5729.810926764      -5728.727338393      -5729.259818269         17.151507769         14.521478853
        18      -5729.810926764      -5728.745060914      -5729.259818270         17.196395470         14.653780388
        19      -5729.810926764      -5728.391444757      -5729.259818269         17.290277458         16.232043405
        20      -5729.810926764      -5727.197230562      -5729.259818269         17.251764689         17.365838626
        21      -5729.810926764      -5727.409679244      -5729.259818270         17.318575767         18.313190513
        22      -5729.810926764      -5727.949531389      -5729.259818269         17.575878212         19.310703966
        23      -5729.810926764      -5728.127765630      -5729.259818269         17.527272982         19.286380771
        24      -5729.810926764      -5728.346433217      -5729.259818269         17.376719233         19.581997523
        25      -5729.810926764      -5728.431942197      -5729.259818270         17.441215387         19.719346330
        26      -5729.810926764      -5728.455591899      -5729.259818269         17.437615529         19.670360823
        27      -5729.810926764      -5728.458845825      -5729.259818270         17.428649795         19.675164558
        28      -5729.810926764      -5728.491429350      -5729.259818269         17.385886853         19.671224859
        29      -5729.810926764      -5728.505999520      -5729.259818270         17.378376828         19.627473685
        30      -5729.810926764      -5728.518350658      -5729.259818270         17.364638393         19.626334917
        31      -5729.810926764      -5728.527664930      -5729.259818270         17.339945050         19.612100024
        32      -5729.810926764      -5728.535679043      -5729.259818270         17.338870235         19.574365255
        33      -5729.810926764      -5728.542764021      -5729.259818269         17.323118062         19.564076786
        34      -5729.810926764      -5728.550330495      -5729.259818270         17.322403771         19.537613901
