 # Version information for this restart file 
 # current date 2024-01-11 00:29:11.402
 # current working dir /gpfs/home/cahart/transport/melamine/au_from-h2/ci-neb/ts1/dft_leads-sz_tip-dzvp_surf-dzvp_kpoints-2-4-20_replicas-3
 # Program compiled at                              Thu 21 Sep 19:20:17 BST 2023
 # Program compiled on                                           hx1-c12-login-1
 # Program compiled for                                                    local
 # Source code revision number                                       git:5518aa6
 &GLOBAL
   EXTENDED_FFT_LENGTHS  T
   PRINT_LEVEL  MEDIUM
   PROJECT_NAME 2_dft_wfn-r-0
   OUTPUT_FILE_NAME 2_dft_wfn-r-0.out
   RUN_TYPE  BAND
 &END GLOBAL
 &MOTION
   &CONSTRAINT
     &FIXED_ATOMS
       LIST  1..93 104..183
     &END FIXED_ATOMS
   &END CONSTRAINT
   &BAND
     NPROC_REP  64
     BAND_TYPE  CI-NEB
     NUMBER_OF_REPLICA  3
     K_SPRING     5.0000000000000003E-02
     &CI_NEB
       NSTEPS_IT  5
     &END CI_NEB
     &OPTIMIZE_BAND
       OPT_TYPE  DIIS
       &DIIS
         MAX_STEPS  1000
       &END DIIS
     &END OPTIMIZE_BAND
     &REPLICA
       &COORD
             0.0000000000000000E+00    0.0000000000000000E+00    0.0000000000000000E+00
             0.0000000000000000E+00    2.9550000000000010E+00    0.0000000000000000E+00
             0.0000000000000000E+00    5.9110000000000005E+00    0.0000000000000000E+00
             2.9560000000000008E+00    0.0000000000000000E+00    0.0000000000000000E+00
             2.9560000000000008E+00    2.9550000000000010E+00    0.0000000000000000E+00
             2.9560000000000008E+00    5.9110000000000005E+00    0.0000000000000000E+00
             5.9120000000000017E+00    0.0000000000000000E+00    0.0000000000000000E+00
             5.9120000000000017E+00    2.9550000000000010E+00    0.0000000000000000E+00
             5.9120000000000017E+00    5.9110000000000005E+00    0.0000000000000000E+00
             8.6699999999999982E+00    0.0000000000000000E+00    0.0000000000000000E+00
             8.6699999999999982E+00    2.9550000000000010E+00    0.0000000000000000E+00
             8.6699999999999982E+00    5.9110000000000005E+00    0.0000000000000000E+00
             1.1625999999999999E+01    0.0000000000000000E+00    0.0000000000000000E+00
             1.1625999999999999E+01    2.9550000000000010E+00    0.0000000000000000E+00
             1.1625999999999999E+01    5.9110000000000005E+00    0.0000000000000000E+00
             1.4780000000000004E+00    1.4780000000000004E+00    2.0899999999999999E+00
             1.4780000000000004E+00    4.4330000000000016E+00    2.0899999999999999E+00
             1.4780000000000004E+00    7.3890000000000011E+00    2.0899999999999999E+00
             4.4340000000000002E+00    1.4780000000000004E+00    2.0899999999999999E+00
             4.4340000000000002E+00    4.4330000000000016E+00    2.0899999999999999E+00
             4.4340000000000002E+00    7.3890000000000011E+00    2.0899999999999999E+00
             7.1919999999999993E+00    1.4780000000000004E+00    2.0899999999999999E+00
             7.1919999999999993E+00    4.4330000000000016E+00    2.0899999999999999E+00
             7.1919999999999993E+00    7.3890000000000011E+00    2.0899999999999999E+00
             1.0147999999999996E+01    1.4780000000000004E+00    2.0899999999999999E+00
             1.0147999999999996E+01    4.4330000000000016E+00    2.0899999999999999E+00
             1.0147999999999996E+01    7.3890000000000011E+00    2.0899999999999999E+00
             1.3103999999999996E+01    1.4780000000000004E+00    2.0899999999999999E+00
             1.3103999999999996E+01    4.4330000000000016E+00    2.0899999999999999E+00
             1.3103999999999996E+01    7.3890000000000011E+00    2.0899999999999999E+00
             0.0000000000000000E+00    0.0000000000000000E+00    4.1799999999999997E+00
             0.0000000000000000E+00    2.9550000000000010E+00    4.1799999999999997E+00
             0.0000000000000000E+00    5.9110000000000005E+00    4.1799999999999997E+00
             2.9560000000000008E+00    0.0000000000000000E+00    4.1799999999999997E+00
             2.9560000000000008E+00    2.9550000000000010E+00    4.1799999999999997E+00
             2.9560000000000008E+00    5.9110000000000005E+00    4.1799999999999997E+00
             5.9120000000000017E+00    0.0000000000000000E+00    4.1799999999999997E+00
             5.9120000000000017E+00    2.9550000000000010E+00    4.1799999999999997E+00
             5.9120000000000017E+00    5.9110000000000005E+00    4.1799999999999997E+00
             8.6699999999999982E+00    0.0000000000000000E+00    4.1799999999999997E+00
             8.6699999999999982E+00    2.9550000000000010E+00    4.1799999999999997E+00
             8.6699999999999982E+00    5.9110000000000005E+00    4.1799999999999997E+00
             1.1625999999999999E+01    0.0000000000000000E+00    4.1799999999999997E+00
             1.1625999999999999E+01    2.9550000000000010E+00    4.1799999999999997E+00
             1.1625999999999999E+01    5.9110000000000005E+00    4.1799999999999997E+00
             1.4780000000000004E+00    1.4780000000000004E+00    6.2699999999999996E+00
             1.4780000000000004E+00    4.4330000000000016E+00    6.2699999999999996E+00
             1.4780000000000004E+00    7.3890000000000011E+00    6.2699999999999996E+00
             4.4340000000000002E+00    1.4780000000000004E+00    6.2699999999999996E+00
             4.4340000000000002E+00    4.4330000000000016E+00    6.2699999999999996E+00
             4.4340000000000002E+00    7.3890000000000011E+00    6.2699999999999996E+00
             7.1919999999999993E+00    1.4780000000000004E+00    6.2699999999999996E+00
             7.1919999999999993E+00    4.4330000000000016E+00    6.2699999999999996E+00
             7.1919999999999993E+00    7.3890000000000011E+00    6.2699999999999996E+00
             1.0147999999999996E+01    1.4780000000000004E+00    6.2699999999999996E+00
             1.0147999999999996E+01    4.4330000000000016E+00    6.2699999999999996E+00
             1.0147999999999996E+01    7.3890000000000011E+00    6.2699999999999996E+00
             1.3103999999999996E+01    1.4780000000000004E+00    6.2699999999999996E+00
             1.3103999999999996E+01    4.4330000000000016E+00    6.2699999999999996E+00
             1.3103999999999996E+01    7.3890000000000011E+00    6.2699999999999996E+00
             0.0000000000000000E+00    0.0000000000000000E+00    8.3599999999999994E+00
             0.0000000000000000E+00    2.9550000000000010E+00    8.3599999999999994E+00
             0.0000000000000000E+00    5.9110000000000005E+00    8.3599999999999994E+00
             2.9560000000000008E+00    0.0000000000000000E+00    8.3599999999999994E+00
             2.9560000000000008E+00    2.9550000000000010E+00    8.3599999999999994E+00
             2.9560000000000008E+00    5.9110000000000005E+00    8.3599999999999994E+00
             5.9120000000000017E+00    0.0000000000000000E+00    8.3599999999999994E+00
             5.9120000000000017E+00    2.9550000000000010E+00    8.3599999999999994E+00
             5.9120000000000017E+00    5.9110000000000005E+00    8.3599999999999994E+00
             8.6699999999999982E+00    0.0000000000000000E+00    8.3599999999999994E+00
             8.6699999999999982E+00    2.9550000000000010E+00    8.3599999999999994E+00
             8.6699999999999982E+00    5.9110000000000005E+00    8.3599999999999994E+00
             1.1625999999999999E+01    0.0000000000000000E+00    8.3599999999999994E+00
             1.1625999999999999E+01    2.9550000000000010E+00    8.3599999999999994E+00
             1.1625999999999999E+01    5.9110000000000005E+00    8.3599999999999994E+00
             1.4780000000000004E+00    1.4780000000000004E+00    1.0449999999999998E+01
             1.4780000000000004E+00    4.4330000000000016E+00    1.0449999999999998E+01
             1.4780000000000004E+00    7.3890000000000011E+00    1.0449999999999998E+01
             4.4340000000000002E+00    1.4780000000000004E+00    1.0449999999999998E+01
             4.4340000000000002E+00    4.4330000000000016E+00    1.0449999999999998E+01
             4.4340000000000002E+00    7.3890000000000011E+00    1.0449999999999998E+01
             7.1919999999999993E+00    1.4780000000000004E+00    1.0449999999999998E+01
             7.1919999999999993E+00    4.4330000000000016E+00    1.0449999999999998E+01
             7.1919999999999993E+00    7.3890000000000011E+00    1.0449999999999998E+01
             1.0147999999999996E+01    1.4780000000000004E+00    1.0449999999999998E+01
             1.0147999999999996E+01    4.4330000000000016E+00    1.0449999999999998E+01
             1.0147999999999996E+01    7.3890000000000011E+00    1.0449999999999998E+01
             1.3103999999999996E+01    1.4780000000000004E+00    1.0449999999999998E+01
             1.3103999999999996E+01    4.4330000000000016E+00    1.0449999999999998E+01
             1.3103999999999996E+01    7.3890000000000011E+00    1.0449999999999998E+01
             4.8554000000000022E+00    5.9119000000000002E+00    1.2031800000000002E+01
             9.5279999999999987E+00    5.9137000000000004E+00    1.2033999999999999E+01
             7.1919999999999993E+00    5.9339999999999993E+00    1.2040000000000004E+01
             4.0750319168000004E+00    5.9049488169999993E+00    1.2696844061799997E+01
             1.0293988349499999E+01    5.9062142779000002E+00    1.2716532694499998E+01
             6.0099999686000016E+00    5.9120523853000000E+00    1.2765819797399999E+01
             8.3750478947999998E+00    5.9129627334999997E+00    1.2760746495900003E+01
             5.9788500869000005E+00    5.8882515164999996E+00    1.4094239568499999E+01
             8.4047327065000026E+00    5.8893877815999991E+00    1.4094060897199999E+01
             7.1943473362999981E+00    5.8799164377000004E+00    1.4701118490300004E+01
             7.1912293097000006E+00    5.8521058220999995E+00    1.6050622658199998E+01
             6.3086348447000002E+00    5.8615539361000000E+00    1.6548439365000004E+01
             8.0709262664999990E+00    5.8621389354000017E+00    1.6553588809699999E+01
             7.3120000000000021E+00    5.9339999999999993E+00    2.1043000000000003E+01
             5.8129999999999997E+00    7.4340000000000028E+00    2.2992000000000004E+01
             8.8130000000000024E+00    4.4340000000000002E+00    2.2992000000000004E+01
             5.8129999999999997E+00    4.4330000000000016E+00    2.2992000000000004E+01
             8.8130000000000024E+00    7.4340000000000028E+00    2.2992000000000004E+01
             1.4780000000000004E+00    1.4780000000000004E+00    2.5082000000000008E+01
             1.4780000000000004E+00    4.4330000000000016E+00    2.5082000000000008E+01
             1.4780000000000004E+00    7.3890000000000011E+00    2.5082000000000008E+01
             4.4340000000000002E+00    1.4780000000000004E+00    2.5082000000000008E+01
             4.4340000000000002E+00    4.4330000000000016E+00    2.5082000000000008E+01
             4.4340000000000002E+00    7.3890000000000011E+00    2.5082000000000008E+01
             7.1919999999999993E+00    1.4780000000000004E+00    2.5082000000000008E+01
             7.1919999999999993E+00    4.4330000000000016E+00    2.5082000000000008E+01
             7.1919999999999993E+00    7.3890000000000011E+00    2.5082000000000008E+01
             1.0147999999999996E+01    1.4780000000000004E+00    2.5082000000000008E+01
             1.0147999999999996E+01    4.4330000000000016E+00    2.5082000000000008E+01
             1.0147999999999996E+01    7.3890000000000011E+00    2.5082000000000008E+01
             1.3103999999999996E+01    1.4780000000000004E+00    2.5082000000000008E+01
             1.3103999999999996E+01    4.4330000000000016E+00    2.5082000000000008E+01
             1.3103999999999996E+01    7.3890000000000011E+00    2.5082000000000008E+01
             0.0000000000000000E+00    0.0000000000000000E+00    2.7172000000000008E+01
             0.0000000000000000E+00    2.9550000000000010E+00    2.7172000000000008E+01
             0.0000000000000000E+00    5.9110000000000005E+00    2.7172000000000008E+01
             2.9560000000000008E+00    0.0000000000000000E+00    2.7172000000000008E+01
             2.9560000000000008E+00    2.9550000000000010E+00    2.7172000000000008E+01
             2.9560000000000008E+00    5.9110000000000005E+00    2.7172000000000008E+01
             5.9120000000000017E+00    0.0000000000000000E+00    2.7172000000000008E+01
             5.9120000000000017E+00    2.9550000000000010E+00    2.7172000000000008E+01
             5.9120000000000017E+00    5.9110000000000005E+00    2.7172000000000008E+01
             8.6699999999999982E+00    0.0000000000000000E+00    2.7172000000000008E+01
             8.6699999999999982E+00    2.9550000000000010E+00    2.7172000000000008E+01
             8.6699999999999982E+00    5.9110000000000005E+00    2.7172000000000008E+01
             1.1625999999999999E+01    0.0000000000000000E+00    2.7172000000000008E+01
             1.1625999999999999E+01    2.9550000000000010E+00    2.7172000000000008E+01
             1.1625999999999999E+01    5.9110000000000005E+00    2.7172000000000008E+01
             1.4780000000000004E+00    1.4780000000000004E+00    2.9261999999999993E+01
             1.4780000000000004E+00    4.4330000000000016E+00    2.9261999999999993E+01
             1.4780000000000004E+00    7.3890000000000011E+00    2.9261999999999993E+01
             4.4340000000000002E+00    1.4780000000000004E+00    2.9261999999999993E+01
             4.4340000000000002E+00    4.4330000000000016E+00    2.9261999999999993E+01
             4.4340000000000002E+00    7.3890000000000011E+00    2.9261999999999993E+01
             7.1919999999999993E+00    1.4780000000000004E+00    2.9261999999999993E+01
             7.1919999999999993E+00    4.4330000000000016E+00    2.9261999999999993E+01
             7.1919999999999993E+00    7.3890000000000011E+00    2.9261999999999993E+01
             1.0147999999999996E+01    1.4780000000000004E+00    2.9261999999999993E+01
             1.0147999999999996E+01    4.4330000000000016E+00    2.9261999999999993E+01
             1.0147999999999996E+01    7.3890000000000011E+00    2.9261999999999993E+01
             1.3103999999999996E+01    1.4780000000000004E+00    2.9261999999999993E+01
             1.3103999999999996E+01    4.4330000000000016E+00    2.9261999999999993E+01
             1.3103999999999996E+01    7.3890000000000011E+00    2.9261999999999993E+01
             0.0000000000000000E+00    0.0000000000000000E+00    3.1352000000000000E+01
             0.0000000000000000E+00    2.9550000000000010E+00    3.1352000000000000E+01
             0.0000000000000000E+00    5.9110000000000005E+00    3.1352000000000000E+01
             2.9560000000000008E+00    0.0000000000000000E+00    3.1352000000000000E+01
             2.9560000000000008E+00    2.9550000000000010E+00    3.1352000000000000E+01
             2.9560000000000008E+00    5.9110000000000005E+00    3.1352000000000000E+01
             5.9120000000000017E+00    0.0000000000000000E+00    3.1352000000000000E+01
             5.9120000000000017E+00    2.9550000000000010E+00    3.1352000000000000E+01
             5.9120000000000017E+00    5.9110000000000005E+00    3.1352000000000000E+01
             8.6699999999999982E+00    0.0000000000000000E+00    3.1352000000000000E+01
             8.6699999999999982E+00    2.9550000000000010E+00    3.1352000000000000E+01
             8.6699999999999982E+00    5.9110000000000005E+00    3.1352000000000000E+01
             1.1625999999999999E+01    0.0000000000000000E+00    3.1352000000000000E+01
             1.1625999999999999E+01    2.9550000000000010E+00    3.1352000000000000E+01
             1.1625999999999999E+01    5.9110000000000005E+00    3.1352000000000000E+01
             1.4780000000000004E+00    1.4780000000000004E+00    3.3442000000000007E+01
             1.4780000000000004E+00    4.4330000000000016E+00    3.3442000000000007E+01
             1.4780000000000004E+00    7.3890000000000011E+00    3.3442000000000007E+01
             4.4340000000000002E+00    1.4780000000000004E+00    3.3442000000000007E+01
             4.4340000000000002E+00    4.4330000000000016E+00    3.3442000000000007E+01
             4.4340000000000002E+00    7.3890000000000011E+00    3.3442000000000007E+01
             7.1919999999999993E+00    1.4780000000000004E+00    3.3442000000000007E+01
             7.1919999999999993E+00    4.4330000000000016E+00    3.3442000000000007E+01
             7.1919999999999993E+00    7.3890000000000011E+00    3.3442000000000007E+01
             1.0147999999999996E+01    1.4780000000000004E+00    3.3442000000000007E+01
             1.0147999999999996E+01    4.4330000000000016E+00    3.3442000000000007E+01
             1.0147999999999996E+01    7.3890000000000011E+00    3.3442000000000007E+01
             1.3103999999999996E+01    1.4780000000000004E+00    3.3442000000000007E+01
             1.3103999999999996E+01    4.4330000000000016E+00    3.3442000000000007E+01
             1.3103999999999996E+01    7.3890000000000011E+00    3.3442000000000007E+01
       &END COORD
       &VELOCITY
             0.0000000000000000E+00    0.0000000000000000E+00    0.0000000000000000E+00
             0.0000000000000000E+00    0.0000000000000000E+00    0.0000000000000000E+00
             0.0000000000000000E+00    0.0000000000000000E+00    0.0000000000000000E+00
             0.0000000000000000E+00    0.0000000000000000E+00    0.0000000000000000E+00
             0.0000000000000000E+00    0.0000000000000000E+00    0.0000000000000000E+00
             0.0000000000000000E+00    0.0000000000000000E+00    0.0000000000000000E+00
             0.0000000000000000E+00    0.0000000000000000E+00    0.0000000000000000E+00
             0.0000000000000000E+00    0.0000000000000000E+00    0.0000000000000000E+00
             0.0000000000000000E+00    0.0000000000000000E+00    0.0000000000000000E+00
             0.0000000000000000E+00    0.0000000000000000E+00    0.0000000000000000E+00
             0.0000000000000000E+00    0.0000000000000000E+00    0.0000000000000000E+00
             0.0000000000000000E+00    0.0000000000000000E+00    0.0000000000000000E+00
             0.0000000000000000E+00    0.0000000000000000E+00    0.0000000000000000E+00
             0.0000000000000000E+00    0.0000000000000000E+00    0.0000000000000000E+00
             0.0000000000000000E+00    0.0000000000000000E+00    0.0000000000000000E+00
             0.0000000000000000E+00    0.0000000000000000E+00    0.0000000000000000E+00
             0.0000000000000000E+00    0.0000000000000000E+00    0.0000000000000000E+00
             0.0000000000000000E+00    0.0000000000000000E+00    0.0000000000000000E+00
             0.0000000000000000E+00    0.0000000000000000E+00    0.0000000000000000E+00
             0.0000000000000000E+00    0.0000000000000000E+00    0.0000000000000000E+00
             0.0000000000000000E+00    0.0000000000000000E+00    0.0000000000000000E+00
             0.0000000000000000E+00    0.0000000000000000E+00    0.0000000000000000E+00
             0.0000000000000000E+00    0.0000000000000000E+00    0.0000000000000000E+00
             0.0000000000000000E+00    0.0000000000000000E+00    0.0000000000000000E+00
             0.0000000000000000E+00    0.0000000000000000E+00    0.0000000000000000E+00
             0.0000000000000000E+00    0.0000000000000000E+00    0.0000000000000000E+00
             0.0000000000000000E+00    0.0000000000000000E+00    0.0000000000000000E+00
             0.0000000000000000E+00    0.0000000000000000E+00    0.0000000000000000E+00
             0.0000000000000000E+00    0.0000000000000000E+00    0.0000000000000000E+00
             0.0000000000000000E+00    0.0000000000000000E+00    0.0000000000000000E+00
             0.0000000000000000E+00    0.0000000000000000E+00    0.0000000000000000E+00
             0.0000000000000000E+00    0.0000000000000000E+00    0.0000000000000000E+00
             0.0000000000000000E+00    0.0000000000000000E+00    0.0000000000000000E+00
             0.0000000000000000E+00    0.0000000000000000E+00    0.0000000000000000E+00
             0.0000000000000000E+00    0.0000000000000000E+00    0.0000000000000000E+00
             0.0000000000000000E+00    0.0000000000000000E+00    0.0000000000000000E+00
             0.0000000000000000E+00    0.0000000000000000E+00    0.0000000000000000E+00
             0.0000000000000000E+00    0.0000000000000000E+00    0.0000000000000000E+00
             0.0000000000000000E+00    0.0000000000000000E+00    0.0000000000000000E+00
             0.0000000000000000E+00    0.0000000000000000E+00    0.0000000000000000E+00
             0.0000000000000000E+00    0.0000000000000000E+00    0.0000000000000000E+00
             0.0000000000000000E+00    0.0000000000000000E+00    0.0000000000000000E+00
             0.0000000000000000E+00    0.0000000000000000E+00    0.0000000000000000E+00
             0.0000000000000000E+00    0.0000000000000000E+00    0.0000000000000000E+00
             0.0000000000000000E+00    0.0000000000000000E+00    0.0000000000000000E+00
             0.0000000000000000E+00    0.0000000000000000E+00    0.0000000000000000E+00
             0.0000000000000000E+00    0.0000000000000000E+00    0.0000000000000000E+00
             0.0000000000000000E+00    0.0000000000000000E+00    0.0000000000000000E+00
             0.0000000000000000E+00    0.0000000000000000E+00    0.0000000000000000E+00
             0.0000000000000000E+00    0.0000000000000000E+00    0.0000000000000000E+00
             0.0000000000000000E+00    0.0000000000000000E+00    0.0000000000000000E+00
             0.0000000000000000E+00    0.0000000000000000E+00    0.0000000000000000E+00
             0.0000000000000000E+00    0.0000000000000000E+00    0.0000000000000000E+00
             0.0000000000000000E+00    0.0000000000000000E+00    0.0000000000000000E+00
             0.0000000000000000E+00    0.0000000000000000E+00    0.0000000000000000E+00
             0.0000000000000000E+00    0.0000000000000000E+00    0.0000000000000000E+00
             0.0000000000000000E+00    0.0000000000000000E+00    0.0000000000000000E+00
             0.0000000000000000E+00    0.0000000000000000E+00    0.0000000000000000E+00
             0.0000000000000000E+00    0.0000000000000000E+00    0.0000000000000000E+00
             0.0000000000000000E+00    0.0000000000000000E+00    0.0000000000000000E+00
             0.0000000000000000E+00    0.0000000000000000E+00    0.0000000000000000E+00
             0.0000000000000000E+00    0.0000000000000000E+00    0.0000000000000000E+00
             0.0000000000000000E+00    0.0000000000000000E+00    0.0000000000000000E+00
             0.0000000000000000E+00    0.0000000000000000E+00    0.0000000000000000E+00
             0.0000000000000000E+00    0.0000000000000000E+00    0.0000000000000000E+00
             0.0000000000000000E+00    0.0000000000000000E+00    0.0000000000000000E+00
             0.0000000000000000E+00    0.0000000000000000E+00    0.0000000000000000E+00
             0.0000000000000000E+00    0.0000000000000000E+00    0.0000000000000000E+00
             0.0000000000000000E+00    0.0000000000000000E+00    0.0000000000000000E+00
             0.0000000000000000E+00    0.0000000000000000E+00    0.0000000000000000E+00
             0.0000000000000000E+00    0.0000000000000000E+00    0.0000000000000000E+00
             0.0000000000000000E+00    0.0000000000000000E+00    0.0000000000000000E+00
             0.0000000000000000E+00    0.0000000000000000E+00    0.0000000000000000E+00
             0.0000000000000000E+00    0.0000000000000000E+00    0.0000000000000000E+00
             0.0000000000000000E+00    0.0000000000000000E+00    0.0000000000000000E+00
             0.0000000000000000E+00    0.0000000000000000E+00    0.0000000000000000E+00
             0.0000000000000000E+00    0.0000000000000000E+00    0.0000000000000000E+00
             0.0000000000000000E+00    0.0000000000000000E+00    0.0000000000000000E+00
             0.0000000000000000E+00    0.0000000000000000E+00    0.0000000000000000E+00
             0.0000000000000000E+00    0.0000000000000000E+00    0.0000000000000000E+00
             0.0000000000000000E+00    0.0000000000000000E+00    0.0000000000000000E+00
             0.0000000000000000E+00    0.0000000000000000E+00    0.0000000000000000E+00
             0.0000000000000000E+00    0.0000000000000000E+00    0.0000000000000000E+00
             0.0000000000000000E+00    0.0000000000000000E+00    0.0000000000000000E+00
             0.0000000000000000E+00    0.0000000000000000E+00    0.0000000000000000E+00
             0.0000000000000000E+00    0.0000000000000000E+00    0.0000000000000000E+00
             0.0000000000000000E+00    0.0000000000000000E+00    0.0000000000000000E+00
             0.0000000000000000E+00    0.0000000000000000E+00    0.0000000000000000E+00
             0.0000000000000000E+00    0.0000000000000000E+00    0.0000000000000000E+00
             0.0000000000000000E+00    0.0000000000000000E+00    0.0000000000000000E+00
             0.0000000000000000E+00    0.0000000000000000E+00    0.0000000000000000E+00
             0.0000000000000000E+00    0.0000000000000000E+00    0.0000000000000000E+00
             0.0000000000000000E+00    0.0000000000000000E+00    0.0000000000000000E+00
             0.0000000000000000E+00    0.0000000000000000E+00    0.0000000000000000E+00
             0.0000000000000000E+00    0.0000000000000000E+00    0.0000000000000000E+00
             0.0000000000000000E+00    0.0000000000000000E+00    0.0000000000000000E+00
             0.0000000000000000E+00    0.0000000000000000E+00    0.0000000000000000E+00
             0.0000000000000000E+00    0.0000000000000000E+00    0.0000000000000000E+00
             0.0000000000000000E+00    0.0000000000000000E+00    0.0000000000000000E+00
             0.0000000000000000E+00    0.0000000000000000E+00    0.0000000000000000E+00
             0.0000000000000000E+00    0.0000000000000000E+00    0.0000000000000000E+00
             0.0000000000000000E+00    0.0000000000000000E+00    0.0000000000000000E+00
             0.0000000000000000E+00    0.0000000000000000E+00    0.0000000000000000E+00
             0.0000000000000000E+00    0.0000000000000000E+00    0.0000000000000000E+00
             0.0000000000000000E+00    0.0000000000000000E+00    0.0000000000000000E+00
             0.0000000000000000E+00    0.0000000000000000E+00    0.0000000000000000E+00
             0.0000000000000000E+00    0.0000000000000000E+00    0.0000000000000000E+00
             0.0000000000000000E+00    0.0000000000000000E+00    0.0000000000000000E+00
             0.0000000000000000E+00    0.0000000000000000E+00    0.0000000000000000E+00
             0.0000000000000000E+00    0.0000000000000000E+00    0.0000000000000000E+00
             0.0000000000000000E+00    0.0000000000000000E+00    0.0000000000000000E+00
             0.0000000000000000E+00    0.0000000000000000E+00    0.0000000000000000E+00
             0.0000000000000000E+00    0.0000000000000000E+00    0.0000000000000000E+00
             0.0000000000000000E+00    0.0000000000000000E+00    0.0000000000000000E+00
             0.0000000000000000E+00    0.0000000000000000E+00    0.0000000000000000E+00
             0.0000000000000000E+00    0.0000000000000000E+00    0.0000000000000000E+00
             0.0000000000000000E+00    0.0000000000000000E+00    0.0000000000000000E+00
             0.0000000000000000E+00    0.0000000000000000E+00    0.0000000000000000E+00
             0.0000000000000000E+00    0.0000000000000000E+00    0.0000000000000000E+00
             0.0000000000000000E+00    0.0000000000000000E+00    0.0000000000000000E+00
             0.0000000000000000E+00    0.0000000000000000E+00    0.0000000000000000E+00
             0.0000000000000000E+00    0.0000000000000000E+00    0.0000000000000000E+00
             0.0000000000000000E+00    0.0000000000000000E+00    0.0000000000000000E+00
             0.0000000000000000E+00    0.0000000000000000E+00    0.0000000000000000E+00
             0.0000000000000000E+00    0.0000000000000000E+00    0.0000000000000000E+00
             0.0000000000000000E+00    0.0000000000000000E+00    0.0000000000000000E+00
             0.0000000000000000E+00    0.0000000000000000E+00    0.0000000000000000E+00
             0.0000000000000000E+00    0.0000000000000000E+00    0.0000000000000000E+00
             0.0000000000000000E+00    0.0000000000000000E+00    0.0000000000000000E+00
             0.0000000000000000E+00    0.0000000000000000E+00    0.0000000000000000E+00
             0.0000000000000000E+00    0.0000000000000000E+00    0.0000000000000000E+00
             0.0000000000000000E+00    0.0000000000000000E+00    0.0000000000000000E+00
             0.0000000000000000E+00    0.0000000000000000E+00    0.0000000000000000E+00
             0.0000000000000000E+00    0.0000000000000000E+00    0.0000000000000000E+00
             0.0000000000000000E+00    0.0000000000000000E+00    0.0000000000000000E+00
             0.0000000000000000E+00    0.0000000000000000E+00    0.0000000000000000E+00
             0.0000000000000000E+00    0.0000000000000000E+00    0.0000000000000000E+00
             0.0000000000000000E+00    0.0000000000000000E+00    0.0000000000000000E+00
             0.0000000000000000E+00    0.0000000000000000E+00    0.0000000000000000E+00
             0.0000000000000000E+00    0.0000000000000000E+00    0.0000000000000000E+00
             0.0000000000000000E+00    0.0000000000000000E+00    0.0000000000000000E+00
             0.0000000000000000E+00    0.0000000000000000E+00    0.0000000000000000E+00
             0.0000000000000000E+00    0.0000000000000000E+00    0.0000000000000000E+00
             0.0000000000000000E+00    0.0000000000000000E+00    0.0000000000000000E+00