ATOMS
H             3.25353201      5.72009504     18.92650888            -0.00526338     -0.00490697     -0.70707017
H             3.25943387      5.72541294     19.67648850             0.00526338      0.00490697      0.70707017
