ATOMS
H             3.25353201      5.72009504     18.92650888            -0.70710635     -0.00077624      0.00001375
H             3.25943387      5.72541294     19.67648850            -0.70710635     -0.00077624      0.00001375
