ATOMS
H             0.00000000      0.00000000     -0.00998254            -0.00096696      0.70710612     -0.00001551
H             0.00000000      0.00000000      0.73998166             0.00096696     -0.70710612      0.00001551
