     116
 i =        1, E =     -3518.3158349929
 Au         0.0000000000        0.0000000000        0.0000000000
 Au         0.0000000000        4.1460000000        0.0000000000
 Au         2.0730000000        2.0730000000        0.0000000000
 Au         2.0730000000        6.2190000000        0.0000000000
 Au         4.1460000000        0.0000000000        0.0000000000
 Au         4.1460000000        4.1460000000        0.0000000000
 Au         6.2190000000        2.0730000000        0.0000000000
 Au         6.2190000000        6.2190000000        0.0000000000
 Au         0.0000000000        2.0730000000        2.0730000000
 Au         0.0000000000        6.2190000000        2.0730000000
 Au         2.0730000000        0.0000000000        2.0730000000
 Au         2.0730000000        4.1460000000        2.0730000000
 Au         4.1460000000        2.0730000000        2.0730000000
 Au         4.1460000000        6.2190000000        2.0730000000
 Au         6.2190000000        0.0000000000        2.0730000000
 Au         6.2190000000        4.1460000000        2.0730000000
 Au         0.0000000000        0.0000000000        4.1460000000
 Au         0.0000000000        4.1460000000        4.1460000000
 Au         2.0730000000        2.0730000000        4.1460000000
 Au         2.0730000000        6.2190000000        4.1460000000
 Au         4.1460000000        0.0000000000        4.1460000000
 Au         4.1460000000        4.1460000000        4.1460000000
 Au         6.2190000000        2.0730000000        4.1460000000
 Au         6.2190000000        6.2190000000        4.1460000000
 Au         0.0000000000        2.0730000000        6.2190000000
 Au         0.0000000000        6.2190000000        6.2190000000
 Au         2.0730000000        0.0000000000        6.2190000000
 Au         2.0730000000        4.1460000000        6.2190000000
 Au         4.1460000000        2.0730000000        6.2190000000
 Au         4.1460000000        6.2190000000        6.2190000000
 Au         6.2190000000        0.0000000000        6.2190000000
 Au         6.2190000000        4.1460000000        6.2190000000
 Au         0.0000000000        0.0000000000        8.2920000000
 Au         0.0000000000        4.1460000000        8.2920000000
 Au         2.0730000000        2.0730000000        8.2920000000
 Au         2.0730000000        6.2190000000        8.2920000000
 Au         4.1460000000        0.0000000000        8.2920000000
 Au         4.1460000000        4.1460000000        8.2920000000
 Au         6.2190000000        2.0730000000        8.2920000000
 Au         6.2190000000        6.2190000000        8.2920000000
 Au        -0.0000040331        2.0729992083       10.3681270204
 Au        -0.0000021555        6.2189941038       10.3642892248
 Au         2.0727148308       -0.0001693503       10.3638309197
 Au         2.0727104881        4.1461771269       10.3638193829
 Au         4.1459990147        2.0729901284       10.3534247900
 Au         4.1459981687        6.2189910534       10.3678942267
 Au         6.2192863430       -0.0001689335       10.3638255835
 Au         6.2192907720        4.1461767571       10.3638138964
 Au         0.0000049109       -0.0002732215       12.4379812870
 Au         0.0000050073        4.1462826446       12.4379959210
 Au         2.0536641975        2.0730149613       12.4361542380
 Au         2.0725611663        6.2189975127       12.4378583866
 Au         4.1459974606       -0.0198184840       12.4349568799
 Au         4.1459976467        4.1657206735       12.4349901628
 Au         6.2382895894        2.0730152491       12.4361753014
 Au         6.2194407332        6.2189976371       12.4378592148
  S         4.1461301178        2.0733546978       13.7660683088
  C         4.1451565191        2.0783881196       15.5126012471
  H         2.0212691557        2.1028963403       15.6745366766
  H         6.2698864017        2.1028875568       15.6799568091
  C         2.9658621753        2.0813327429       16.2366051969
  C         5.3243478712        2.0813536954       16.2387311276
  C         2.9568124631        2.0626648630       17.5961406768
  C         5.3152573478        2.0626813529       17.5979171118
  H         2.0108905817        2.0411122596       18.1542255318
  H         6.2597105801        2.0411079642       18.1604681878
  C         4.1362357864        2.0656794055       18.3219584598
  S         4.1453144990        2.0725989176       20.0686976791
 Au        -0.0000065204       -0.0002824998       21.3960040884
 Au        -0.0000064874        4.1462720439       21.3960206546
 Au         2.0537423748        2.0729883165       21.3978092445
 Au         2.0725545915        6.2189983846       21.3961389316
 Au         4.1460043959       -0.0197454561       21.3990165138
 Au         4.1460045607        4.1658619777       21.3990553510
 Au         6.2384379490        2.0729885526       21.3978862628
 Au         6.2190000000        6.2190000000       21.3960000000
 Au         0.0000000000        2.0730000000       23.4690000000
 Au         0.0000000000        6.2190000000       23.4690000000
 Au         2.0730000000        0.0000000000       23.4690000000
 Au         2.0730000000        4.1460000000       23.4690000000
 Au         4.1460000000        2.0730000000       23.4690000000
 Au         4.1460000000        6.2190000000       23.4690000000
 Au         6.2190000000        0.0000000000       23.4690000000
 Au         6.2190000000        4.1460000000       23.4690000000
 Au         0.0000000000        0.0000000000       25.5420000000
 Au         0.0000000000        4.1460000000       25.5420000000
 Au         2.0730000000        2.0730000000       25.5420000000
 Au         2.0730000000        6.2190000000       25.5420000000
 Au         4.1460000000        0.0000000000       25.5420000000
 Au         4.1460000000        4.1460000000       25.5420000000
 Au         6.2190000000        2.0730000000       25.5420000000
 Au         6.2190000000        6.2190000000       25.5420000000
 Au         0.0000000000        2.0730000000       27.6150000000
 Au         0.0000000000        6.2190000000       27.6150000000
 Au         2.0730000000        0.0000000000       27.6150000000
 Au         2.0730000000        4.1460000000       27.6150000000
 Au         4.1460000000        2.0730000000       27.6150000000
 Au         4.1460000000        6.2190000000       27.6150000000
 Au         6.2190000000        0.0000000000       27.6150000000
 Au         6.2190000000        4.1460000000       27.6150000000
 Au         0.0000000000        0.0000000000       29.6880000000
 Au         0.0000000000        4.1460000000       29.6880000000
 Au         2.0730000000        2.0730000000       29.6880000000
 Au         2.0730000000        6.2190000000       29.6880000000
 Au         4.1460000000        0.0000000000       29.6880000000
 Au         4.1460000000        4.1460000000       29.6880000000
 Au         6.2190000000        2.0730000000       29.6880000000
 Au         6.2190000000        6.2190000000       29.6880000000
 Au         0.0000000000        2.0730000000       31.7610000000
 Au         0.0000000000        6.2190000000       31.7610000000
 Au         2.0730000000        0.0000000000       31.7610000000
 Au         2.0730000000        4.1460000000       31.7610000000
 Au         4.1460000000        2.0730000000       31.7610000000
 Au         4.1460000000        6.2190000000       31.7610000000
 Au         6.2190000000        0.0000000000       31.7610000000
 Au         6.2190000000        4.1460000000       31.7610000000
     116
 i =        2, E =     -3518.3343689968
 Au         0.0000000000        0.0000000000        0.0000000000
 Au         0.0000000000        4.1460000000        0.0000000000
 Au         2.0730000000        2.0730000000        0.0000000000
 Au         2.0730000000        6.2190000000        0.0000000000
 Au         4.1460000000        0.0000000000        0.0000000000
 Au         4.1460000000        4.1460000000        0.0000000000
 Au         6.2190000000        2.0730000000        0.0000000000
 Au         6.2190000000        6.2190000000        0.0000000000
 Au         0.0000000000        2.0730000000        2.0730000000
 Au         0.0000000000        6.2190000000        2.0730000000
 Au         2.0730000000        0.0000000000        2.0730000000
 Au         2.0730000000        4.1460000000        2.0730000000
 Au         4.1460000000        2.0730000000        2.0730000000
 Au         4.1460000000        6.2190000000        2.0730000000
 Au         6.2190000000        0.0000000000        2.0730000000
 Au         6.2190000000        4.1460000000        2.0730000000
 Au         0.0000000000        0.0000000000        4.1460000000
 Au         0.0000000000        4.1460000000        4.1460000000
 Au         2.0730000000        2.0730000000        4.1460000000
 Au         2.0730000000        6.2190000000        4.1460000000
 Au         4.1460000000        0.0000000000        4.1460000000
 Au         4.1460000000        4.1460000000        4.1460000000
 Au         6.2190000000        2.0730000000        4.1460000000
 Au         6.2190000000        6.2190000000        4.1460000000
 Au         0.0000000000        2.0730000000        6.2190000000
 Au         0.0000000000        6.2190000000        6.2190000000
 Au         2.0730000000        0.0000000000        6.2190000000
 Au         2.0730000000        4.1460000000        6.2190000000
 Au         4.1460000000        2.0730000000        6.2190000000
 Au         4.1460000000        6.2190000000        6.2190000000
 Au         6.2190000000        0.0000000000        6.2190000000
 Au         6.2190000000        4.1460000000        6.2190000000
 Au         0.0000000000        0.0000000000        8.2920000000
 Au         0.0000000000        4.1460000000        8.2920000000
 Au         2.0730000000        2.0730000000        8.2920000000
 Au         2.0730000000        6.2190000000        8.2920000000
 Au         4.1460000000        0.0000000000        8.2920000000
 Au         4.1460000000        4.1460000000        8.2920000000
 Au         6.2190000000        2.0730000000        8.2920000000
 Au         6.2190000000        6.2190000000        8.2920000000
 Au        -0.0000040370        2.0729963309       10.3775640988
 Au        -0.0000038506        6.2189723640       10.3619280511
 Au         2.0718740922       -0.0004741208       10.3594884188
 Au         2.0718571217        4.1465135622       10.3594289055
 Au         4.1460068662        2.0729460144       10.3166577141
 Au         4.1459913233        6.2189356594       10.3762234228
 Au         6.2201226892       -0.0004681506       10.3594828845
 Au         6.2201400302        4.1465077624       10.3594229227
 Au         0.0000138123       -0.0032449177       12.4385559963
 Au         0.0000142116        4.1492937447       12.4386316894
 Au         1.9893058104        2.0730506973       12.4314835621
 Au         2.0689065726        6.2189942758       12.4379822626
 Au         4.1459815759       -0.0861581450       12.4251282203
 Au         4.1459821364        4.2317449187       12.4252809225
 Au         6.3026778492        2.0730514208       12.4314874470
 Au         6.2230936675        6.2189946901       12.4379813988
  S         4.1461042995        2.0747906131       13.8356540912
  C         4.1429781280        2.0827511068       15.5390197174
  H         2.0023400721        2.1005330551       15.6686351720
  H         6.2899912842        2.1005252833       15.6749872719
  C         2.9497335037        2.0790022920       16.2161843966
  C         5.3353339729        2.0790197451       16.2206640946
  C         2.9460471172        2.0650278408       17.6139752374
  C         5.3318477739        2.0650228085       17.6177936845
  H         1.9906661999        2.0434862817       18.1595362799
  H         6.2785477976        2.0434884979       18.1661932919
  C         4.1392775163        2.0615539961       18.2963666124
  S         4.1433876094        2.0710005255       19.9978421920
 Au        -0.0000386454       -0.0030302432       21.3953846803
 Au        -0.0000386166        4.1489746955       21.3954693411
 Au         1.9885688212        2.0729701868       21.4020121211
 Au         2.0691356842        6.2189862017       21.3959978250
 Au         4.1460521321       -0.0866813167       21.4082938257
 Au         4.1460527336        4.2331525570       21.4084713675
 Au         6.3039388993        2.0729707087       21.4022483384
 Au         6.2190000000        6.2190000000       21.3960000000
 Au         0.0000000000        2.0730000000       23.4690000000
 Au         0.0000000000        6.2190000000       23.4690000000
 Au         2.0730000000        0.0000000000       23.4690000000
 Au         2.0730000000        4.1460000000       23.4690000000
 Au         4.1460000000        2.0730000000       23.4690000000
 Au         4.1460000000        6.2190000000       23.4690000000
 Au         6.2190000000        0.0000000000       23.4690000000
 Au         6.2190000000        4.1460000000       23.4690000000
 Au         0.0000000000        0.0000000000       25.5420000000
 Au         0.0000000000        4.1460000000       25.5420000000
 Au         2.0730000000        2.0730000000       25.5420000000
 Au         2.0730000000        6.2190000000       25.5420000000
 Au         4.1460000000        0.0000000000       25.5420000000
 Au         4.1460000000        4.1460000000       25.5420000000
 Au         6.2190000000        2.0730000000       25.5420000000
 Au         6.2190000000        6.2190000000       25.5420000000
 Au         0.0000000000        2.0730000000       27.6150000000
 Au         0.0000000000        6.2190000000       27.6150000000
 Au         2.0730000000        0.0000000000       27.6150000000
 Au         2.0730000000        4.1460000000       27.6150000000
 Au         4.1460000000        2.0730000000       27.6150000000
 Au         4.1460000000        6.2190000000       27.6150000000
 Au         6.2190000000        0.0000000000       27.6150000000
 Au         6.2190000000        4.1460000000       27.6150000000
 Au         0.0000000000        0.0000000000       29.6880000000
 Au         0.0000000000        4.1460000000       29.6880000000
 Au         2.0730000000        2.0730000000       29.6880000000
 Au         2.0730000000        6.2190000000       29.6880000000
 Au         4.1460000000        0.0000000000       29.6880000000
 Au         4.1460000000        4.1460000000       29.6880000000
 Au         6.2190000000        2.0730000000       29.6880000000
 Au         6.2190000000        6.2190000000       29.6880000000
 Au         0.0000000000        2.0730000000       31.7610000000
 Au         0.0000000000        6.2190000000       31.7610000000
 Au         2.0730000000        0.0000000000       31.7610000000
 Au         2.0730000000        4.1460000000       31.7610000000
 Au         4.1460000000        2.0730000000       31.7610000000
 Au         4.1460000000        6.2190000000       31.7610000000
 Au         6.2190000000        0.0000000000       31.7610000000
 Au         6.2190000000        4.1460000000       31.7610000000
     116
 i =        3, E =     -3518.3389283935
 Au         0.0000000000        0.0000000000        0.0000000000
 Au         0.0000000000        4.1460000000        0.0000000000
 Au         2.0730000000        2.0730000000        0.0000000000
 Au         2.0730000000        6.2190000000        0.0000000000
 Au         4.1460000000        0.0000000000        0.0000000000
 Au         4.1460000000        4.1460000000        0.0000000000
 Au         6.2190000000        2.0730000000        0.0000000000
 Au         6.2190000000        6.2190000000        0.0000000000
 Au         0.0000000000        2.0730000000        2.0730000000
 Au         0.0000000000        6.2190000000        2.0730000000
 Au         2.0730000000        0.0000000000        2.0730000000
 Au         2.0730000000        4.1460000000        2.0730000000
 Au         4.1460000000        2.0730000000        2.0730000000
 Au         4.1460000000        6.2190000000        2.0730000000
 Au         6.2190000000        0.0000000000        2.0730000000
 Au         6.2190000000        4.1460000000        2.0730000000
 Au         0.0000000000        0.0000000000        4.1460000000
 Au         0.0000000000        4.1460000000        4.1460000000
 Au         2.0730000000        2.0730000000        4.1460000000
 Au         2.0730000000        6.2190000000        4.1460000000
 Au         4.1460000000        0.0000000000        4.1460000000
 Au         4.1460000000        4.1460000000        4.1460000000
 Au         6.2190000000        2.0730000000        4.1460000000
 Au         6.2190000000        6.2190000000        4.1460000000
 Au         0.0000000000        2.0730000000        6.2190000000
 Au         0.0000000000        6.2190000000        6.2190000000
 Au         2.0730000000        0.0000000000        6.2190000000
 Au         2.0730000000        4.1460000000        6.2190000000
 Au         4.1460000000        2.0730000000        6.2190000000
 Au         4.1460000000        6.2190000000        6.2190000000
 Au         6.2190000000        0.0000000000        6.2190000000
 Au         6.2190000000        4.1460000000        6.2190000000
 Au         0.0000000000        0.0000000000        8.2920000000
 Au         0.0000000000        4.1460000000        8.2920000000
 Au         2.0730000000        2.0730000000        8.2920000000
 Au         2.0730000000        6.2190000000        8.2920000000
 Au         4.1460000000        0.0000000000        8.2920000000
 Au         4.1460000000        4.1460000000        8.2920000000
 Au         6.2190000000        2.0730000000        8.2920000000
 Au         6.2190000000        6.2190000000        8.2920000000
 Au         0.0000027750        2.0729958710       10.3776266582
 Au        -0.0000046020        6.2189619822       10.3612581723
 Au         2.0719133173       -0.0000442938       10.3576577710
 Au         2.0718931298        4.1461003715       10.3575690326
 Au         4.1460140919        2.0729170042       10.3075511961
 Au         4.1459894449        6.2188699079       10.3753012372
 Au         6.2200795373       -0.0000367131       10.3576582528
 Au         6.2201003249        4.1460930928       10.3575688849
 Au         0.0000177397       -0.0082480768       12.4398006183
 Au         0.0000182731        4.1543274497       12.4399065998
 Au         1.9690104595        2.0730419849       12.4323790089
 Au         2.0634292933        6.2190006483       12.4390229035
 Au         4.1459758956       -0.1075204252       12.4232239278
 Au         4.1459765476        4.2529834110       12.4234544577
 Au         6.3230309764        2.0730428899       12.4323643422
 Au         6.2285658685        6.2190012016       12.4390160776
  S         4.1460588790        2.0756526298       13.8349726200
  C         4.1436020224        2.0840164517       15.5477243185
  H         1.9997114273        2.0990293124       15.6673459544
  H         6.2901053908        2.0989726719       15.6753743849
  C         2.9275711384        2.0788371644       16.2337746152
  C         5.3575822581        2.0788974554       16.2365444650
  C         2.9242493973        2.0651756109       17.5983053713
  C         5.3540474257        2.0652141005       17.6004276846
  H         1.9908343200        2.0450494466       18.1591163567
  H         6.2813330323        2.0449960633       18.1673696482
  C         4.1382648455        2.0603774632       18.2865674682
  S         4.1426170495        2.0700859805       19.9978984048
 Au        -0.0001048903       -0.0075937609       21.3941162153
 Au        -0.0001051002        4.1535016615       21.3942345078
 Au         1.9668361840        2.0729931891       21.4005037919
 Au         2.0641040319        6.2189729109       21.3948783517
 Au         4.1460354420       -0.1092014520       21.4094377053
 Au         4.1460363164        4.2557909502       21.4097024447
 Au         6.3256600565        2.0729939188       21.4007978951
 Au         6.2190000000        6.2190000000       21.3960000000
 Au         0.0000000000        2.0730000000       23.4690000000
 Au         0.0000000000        6.2190000000       23.4690000000
 Au         2.0730000000        0.0000000000       23.4690000000
 Au         2.0730000000        4.1460000000       23.4690000000
 Au         4.1460000000        2.0730000000       23.4690000000
 Au         4.1460000000        6.2190000000       23.4690000000
 Au         6.2190000000        0.0000000000       23.4690000000
 Au         6.2190000000        4.1460000000       23.4690000000
 Au         0.0000000000        0.0000000000       25.5420000000
 Au         0.0000000000        4.1460000000       25.5420000000
 Au         2.0730000000        2.0730000000       25.5420000000
 Au         2.0730000000        6.2190000000       25.5420000000
 Au         4.1460000000        0.0000000000       25.5420000000
 Au         4.1460000000        4.1460000000       25.5420000000
 Au         6.2190000000        2.0730000000       25.5420000000
 Au         6.2190000000        6.2190000000       25.5420000000
 Au         0.0000000000        2.0730000000       27.6150000000
 Au         0.0000000000        6.2190000000       27.6150000000
 Au         2.0730000000        0.0000000000       27.6150000000
 Au         2.0730000000        4.1460000000       27.6150000000
 Au         4.1460000000        2.0730000000       27.6150000000
 Au         4.1460000000        6.2190000000       27.6150000000
 Au         6.2190000000        0.0000000000       27.6150000000
 Au         6.2190000000        4.1460000000       27.6150000000
 Au         0.0000000000        0.0000000000       29.6880000000
 Au         0.0000000000        4.1460000000       29.6880000000
 Au         2.0730000000        2.0730000000       29.6880000000
 Au         2.0730000000        6.2190000000       29.6880000000
 Au         4.1460000000        0.0000000000       29.6880000000
 Au         4.1460000000        4.1460000000       29.6880000000
 Au         6.2190000000        2.0730000000       29.6880000000
 Au         6.2190000000        6.2190000000       29.6880000000
 Au         0.0000000000        2.0730000000       31.7610000000
 Au         0.0000000000        6.2190000000       31.7610000000
 Au         2.0730000000        0.0000000000       31.7610000000
 Au         2.0730000000        4.1460000000       31.7610000000
 Au         4.1460000000        2.0730000000       31.7610000000
 Au         4.1460000000        6.2190000000       31.7610000000
 Au         6.2190000000        0.0000000000       31.7610000000
 Au         6.2190000000        4.1460000000       31.7610000000
     116
 i =        4, E =     -3518.3408234079
 Au         0.0000000000        0.0000000000        0.0000000000
 Au         0.0000000000        4.1460000000        0.0000000000
 Au         2.0730000000        2.0730000000        0.0000000000
 Au         2.0730000000        6.2190000000        0.0000000000
 Au         4.1460000000        0.0000000000        0.0000000000
 Au         4.1460000000        4.1460000000        0.0000000000
 Au         6.2190000000        2.0730000000        0.0000000000
 Au         6.2190000000        6.2190000000        0.0000000000
 Au         0.0000000000        2.0730000000        2.0730000000
 Au         0.0000000000        6.2190000000        2.0730000000
 Au         2.0730000000        0.0000000000        2.0730000000
 Au         2.0730000000        4.1460000000        2.0730000000
 Au         4.1460000000        2.0730000000        2.0730000000
 Au         4.1460000000        6.2190000000        2.0730000000
 Au         6.2190000000        0.0000000000        2.0730000000
 Au         6.2190000000        4.1460000000        2.0730000000
 Au         0.0000000000        0.0000000000        4.1460000000
 Au         0.0000000000        4.1460000000        4.1460000000
 Au         2.0730000000        2.0730000000        4.1460000000
 Au         2.0730000000        6.2190000000        4.1460000000
 Au         4.1460000000        0.0000000000        4.1460000000
 Au         4.1460000000        4.1460000000        4.1460000000
 Au         6.2190000000        2.0730000000        4.1460000000
 Au         6.2190000000        6.2190000000        4.1460000000
 Au         0.0000000000        2.0730000000        6.2190000000
 Au         0.0000000000        6.2190000000        6.2190000000
 Au         2.0730000000        0.0000000000        6.2190000000
 Au         2.0730000000        4.1460000000        6.2190000000
 Au         4.1460000000        2.0730000000        6.2190000000
 Au         4.1460000000        6.2190000000        6.2190000000
 Au         6.2190000000        0.0000000000        6.2190000000
 Au         6.2190000000        4.1460000000        6.2190000000
 Au         0.0000000000        0.0000000000        8.2920000000
 Au         0.0000000000        4.1460000000        8.2920000000
 Au         2.0730000000        2.0730000000        8.2920000000
 Au         2.0730000000        6.2190000000        8.2920000000
 Au         4.1460000000        0.0000000000        8.2920000000
 Au         4.1460000000        4.1460000000        8.2920000000
 Au         6.2190000000        2.0730000000        8.2920000000
 Au         6.2190000000        6.2190000000        8.2920000000
 Au         0.0000178614        2.0729983034       10.3722957847
 Au        -0.0000064435        6.2189503623       10.3606278163
 Au         2.0725608555        0.0012751891       10.3562238185
 Au         2.0725388584        4.1447949325       10.3560973820
 Au         4.1460238647        2.0728758030       10.3065399955
 Au         4.1459874144        6.2187400707       10.3680494808
 Au         6.2194292624        0.0012825407       10.3562353597
 Au         6.2194522901        4.1447881527       10.3561079920
 Au         0.0000252864       -0.0184143172       12.4424025242
 Au         0.0000261028        4.1645421792       12.4425408784
 Au         1.9563253032        2.0729908570       12.4369241550
 Au         2.0524417353        6.2190201146       12.4413794821
 Au         4.1459723032       -0.1214781993       12.4240811980
 Au         4.1459729435        4.2668809452       12.4244139823
 Au         6.3357948339        2.0729918293       12.4368754170
 Au         6.2395422264        6.2190209450       12.4413614242
  S         4.1459264579        2.0769260685       13.8140692874
  C         4.1436344887        2.0844884052       15.5675997607
  H         1.9943936117        2.0969942320       15.6639295368
  H         6.2929052939        2.0969035559       15.6731231380
  C         2.9220127773        2.0799395181       16.2285670795
  C         5.3644603672        2.0800231663       16.2302841377
  C         2.9170007190        2.0641183258       17.6039917087
  C         5.3597574409        2.0641841106       17.6057123289
  H         1.9887494907        2.0471351842       18.1611743422
  H         6.2869684104        2.0470297220       18.1707611187
  C         4.1381004030        2.0599688888       18.2657688156
  S         4.1418088951        2.0687604385       20.0178587043
 Au        -0.0003459794       -0.0172138145       21.3913668647
 Au        -0.0003471169        4.1630606557       21.3915219897
 Au         1.9517124907        2.0730679975       21.3947357925
 Au         2.0536964621        6.2189464625       21.3921314438
 Au         4.1457781558       -0.1249351545       21.4069426914
 Au         4.1457791338        4.2715501717       21.4073150687
 Au         6.3406389894        2.0730687994       21.3950802474
 Au         6.2190000000        6.2190000000       21.3960000000
 Au         0.0000000000        2.0730000000       23.4690000000
 Au         0.0000000000        6.2190000000       23.4690000000
 Au         2.0730000000        0.0000000000       23.4690000000
 Au         2.0730000000        4.1460000000       23.4690000000
 Au         4.1460000000        2.0730000000       23.4690000000
 Au         4.1460000000        6.2190000000       23.4690000000
 Au         6.2190000000        0.0000000000       23.4690000000
 Au         6.2190000000        4.1460000000       23.4690000000
 Au         0.0000000000        0.0000000000       25.5420000000
 Au         0.0000000000        4.1460000000       25.5420000000
 Au         2.0730000000        2.0730000000       25.5420000000
 Au         2.0730000000        6.2190000000       25.5420000000
 Au         4.1460000000        0.0000000000       25.5420000000
 Au         4.1460000000        4.1460000000       25.5420000000
 Au         6.2190000000        2.0730000000       25.5420000000
 Au         6.2190000000        6.2190000000       25.5420000000
 Au         0.0000000000        2.0730000000       27.6150000000
 Au         0.0000000000        6.2190000000       27.6150000000
 Au         2.0730000000        0.0000000000       27.6150000000
 Au         2.0730000000        4.1460000000       27.6150000000
 Au         4.1460000000        2.0730000000       27.6150000000
 Au         4.1460000000        6.2190000000       27.6150000000
 Au         6.2190000000        0.0000000000       27.6150000000
 Au         6.2190000000        4.1460000000       27.6150000000
 Au         0.0000000000        0.0000000000       29.6880000000
 Au         0.0000000000        4.1460000000       29.6880000000
 Au         2.0730000000        2.0730000000       29.6880000000
 Au         2.0730000000        6.2190000000       29.6880000000
 Au         4.1460000000        0.0000000000       29.6880000000
 Au         4.1460000000        4.1460000000       29.6880000000
 Au         6.2190000000        2.0730000000       29.6880000000
 Au         6.2190000000        6.2190000000       29.6880000000
 Au         0.0000000000        2.0730000000       31.7610000000
 Au         0.0000000000        6.2190000000       31.7610000000