ATOMS
H             0.00000000      0.00000000     -0.00998254             0.70710668      0.00034976      0.00016593
H             0.00000000      0.00000000      0.73998166            -0.70710668     -0.00034976     -0.00016593
