 DBCSR| CPU Multiplication driver                                           XSMM
 DBCSR| Multrec recursion limit                                              512
 DBCSR| Multiplication stack size                                           1000
 DBCSR| Maximum elements for images                                    UNLIMITED
 DBCSR| Multiplicative factor virtual images                                   1
 DBCSR| Use multiplication densification                                       T
 DBCSR| Multiplication size stacks                                             3
 DBCSR| Use memory pool for CPU allocation                                     F
 DBCSR| Number of 3D layers                                               SINGLE
 DBCSR| Use MPI memory allocation                                              F
 DBCSR| Use RMA algorithm                                                      F
 DBCSR| Use Communication thread                                               T
 DBCSR| Communication thread load                                             87
 DBCSR| MPI: My node id                                                        0
 DBCSR| MPI: Number of nodes                                                 240
 DBCSR| OMP: Current number of threads                                         1
 DBCSR| OMP: Max number of threads                                             1
 DBCSR| Split modifier for TAS multiplication algorithm                  1.0E+00


  **** **** ******  **  PROGRAM STARTED AT               2022-10-20 11:43:47.363
 ***** ** ***  *** **   PROGRAM STARTED ON                 cn1028.scarf.rl.ac.uk
 **    ****   ******    PROGRAM STARTED BY                             scarf1157
 ***** **    ** ** **   PROGRAM PROCESS ID                                 62433
  **** **  *******  **  PROGRAM STARTED IN /work4/scd/scarf1157/work/testing/cp2
                                           k-smeagol/bdt/hollow-site/transport-c
                                           p2k/dzp-li

 CP2K| version string:                 CP2K version 2022.1 (Development Version)
 CP2K| source code revision number:                                  git:ed5398a
 CP2K| cp2kflags: omp fftw3 libxc parallel mpi3 scalapack xsmm spglib           
 CP2K| is freely available from                            https://www.cp2k.org/
 CP2K| Program compiled at                          Tue 18 Oct 09:48:42 BST 2022
 CP2K| Program compiled on                                 cn1108.scarf.rl.ac.uk
 CP2K| Program compiled for                                                local
 CP2K| Data directory path    /home/vol07/scarf1157/code/smeagol/cp2k-smeagol/sc
 CP2K| Input file name                                              1_bulkLR.inp

 GLOBAL| Force Environment number                                              1
 GLOBAL| Basis set file name                                        BASIS_MOLOPT
 GLOBAL| Potential file name                                      GTH_POTENTIALS
 GLOBAL| MM Potential file name                                     MM_POTENTIAL
 GLOBAL| Coordinate file name                                           bulk.xyz
 GLOBAL| Method name                                                        CP2K
 GLOBAL| Project name                                                    dft_wfn
 GLOBAL| Run type                                                         ENERGY
 GLOBAL| FFT library                                                       FFTW3
 GLOBAL| Diagonalization library                                       ScaLAPACK
 GLOBAL| Orthonormality check for eigenvectors                          DISABLED
 GLOBAL| Matrix multiplication library                                 ScaLAPACK
 GLOBAL| All-to-all communication in single precision                          F
 GLOBAL| FFTs using library dependent lengths                                  T
 GLOBAL| Grid backend                                                       AUTO
 GLOBAL| Global print level                                               MEDIUM
 GLOBAL| MPI I/O enabled                                                       T
 GLOBAL| Total number of message passing processes                           240
 GLOBAL| Number of threads for this process                                    1
 GLOBAL| This output is from process                                           0
 GLOBAL| Stack size for threads created by OpenMP (OMP_STACKSIZE)        default
 GLOBAL| CPU model name                         AMD EPYC 7502P 32-Core Processor
 GLOBAL| CPUID                                                              1002

 MEMORY| system memory details [Kb]
 MEMORY|                        rank 0           min           max       average
 MEMORY| MemTotal            263897156     263897156     263897160     263897158
 MEMORY| MemFree             172730112     172730112     240133432     220511508
 MEMORY| Buffers                  2492          2492          2696          2572
 MEMORY| Cached               71266400       8458068      71266400      27112387
 MEMORY| Slab                  1505704       1043668       1505704       1304626
 MEMORY| SReclaimable           892832        543712        892832        738159
 MEMORY| MemLikelyFree       244891836     244891836     249183740     248364626


 *** Fundamental physical constants (SI units) ***

 *** Literature: B. J. Mohr and B. N. Taylor,
 ***             CODATA recommended values of the fundamental physical
 ***             constants: 2006, Web Version 5.1
 ***             http://physics.nist.gov/constants

 Speed of light in vacuum [m/s]                             2.99792458000000E+08
 Magnetic constant or permeability of vacuum [N/A**2]       1.25663706143592E-06
 Electric constant or permittivity of vacuum [F/m]          8.85418781762039E-12
 Planck constant (h) [J*s]                                  6.62606896000000E-34
 Planck constant (h-bar) [J*s]                              1.05457162825177E-34
 Elementary charge [C]                                      1.60217648700000E-19
 Electron mass [kg]                                         9.10938215000000E-31
 Electron g factor [ ]                                     -2.00231930436220E+00
 Proton mass [kg]                                           1.67262163700000E-27
 Fine-structure constant                                    7.29735253760000E-03
 Rydberg constant [1/m]                                     1.09737315685270E+07
 Avogadro constant [1/mol]                                  6.02214179000000E+23
 Boltzmann constant [J/K]                                   1.38065040000000E-23
 Atomic mass unit [kg]                                      1.66053878200000E-27
 Bohr radius [m]                                            5.29177208590000E-11

 *** Conversion factors ***

 [u] -> [a.u.]                                              1.82288848426455E+03
 [Angstrom] -> [Bohr] = [a.u.]                              1.88972613288564E+00
 [a.u.] = [Bohr] -> [Angstrom]                              5.29177208590000E-01
 [a.u.] -> [s]                                              2.41888432650478E-17
 [a.u.] -> [fs]                                             2.41888432650478E-02
 [a.u.] -> [J]                                              4.35974393937059E-18
 [a.u.] -> [N]                                              8.23872205491840E-08
 [a.u.] -> [K]                                              3.15774647902944E+05
 [a.u.] -> [kJ/mol]                                         2.62549961709828E+03
 [a.u.] -> [kcal/mol]                                       6.27509468713739E+02
 [a.u.] -> [Pa]                                             2.94210107994716E+13
 [a.u.] -> [bar]                                            2.94210107994716E+08
 [a.u.] -> [atm]                                            2.90362800883016E+08
 [a.u.] -> [eV]                                             2.72113838565563E+01
 [a.u.] -> [Hz]                                             6.57968392072181E+15
 [a.u.] -> [1/cm] (wave numbers)                            2.19474631370540E+05
 [a.u./Bohr**2] -> [1/cm]                                   5.14048714338585E+03
 

 CELL_TOP| Volume [angstrom^3]:                                      1161.263070
 CELL_TOP| Vector a [angstrom    16.685     0.000     0.000   |a| =    16.685150
 CELL_TOP| Vector b [angstrom     0.000    16.685     0.000   |b| =    16.685150
 CELL_TOP| Vector c [angstrom     0.000     0.000     4.171   |c| =     4.171290
 CELL_TOP| Angle (b,c), alpha [degree]:                                90.000000
 CELL_TOP| Angle (a,c), beta  [degree]:                                90.000000
 CELL_TOP| Angle (a,b), gamma [degree]:                                90.000000
 CELL_TOP| Numerically orthorhombic:                                         YES
 CELL_TOP| Periodicity                                                       XYZ

 GENERATE|  Preliminary Number of Bonds generated:                             0
 GENERATE|  Achieved consistency in connectivity generation.

 CELL| Volume [angstrom^3]:                                          1161.263070
 CELL| Vector a [angstrom]:      16.685     0.000     0.000   |a| =    16.685150
 CELL| Vector b [angstrom]:       0.000    16.685     0.000   |b| =    16.685150
 CELL| Vector c [angstrom]:       0.000     0.000     4.171   |c| =     4.171290
 CELL| Angle (b,c), alpha [degree]:                                    90.000000
 CELL| Angle (a,c), beta  [degree]:                                    90.000000
 CELL| Angle (a,b), gamma [degree]:                                    90.000000
 CELL| Numerically orthorhombic:                                             YES
 CELL| Periodicity                                                           XYZ

 CELL_REF| Volume [angstrom^3]:                                      1161.263070
 CELL_REF| Vector a [angstrom    16.685     0.000     0.000   |a| =    16.685150
 CELL_REF| Vector b [angstrom     0.000    16.685     0.000   |b| =    16.685150
 CELL_REF| Vector c [angstrom     0.000     0.000     4.171   |c| =     4.171290
 CELL_REF| Angle (b,c), alpha [degree]:                                90.000000
 CELL_REF| Angle (a,c), beta  [degree]:                                90.000000
 CELL_REF| Angle (a,b), gamma [degree]:                                90.000000
 CELL_REF| Numerically orthorhombic:                                         YES
 CELL_REF| Periodicity                                                       XYZ

 *******************************************************************************
                                    Kpoints
 *******************************************************************************
 BRILLOUIN| K-point scheme                                        Monkhorst-Pack
 BRILLOUIN| K-Point grid                                             1    1   31
 BRILLOUIN| Accuracy in Symmetry determination                      0.100000E-07
 BRILLOUIN| K-Point point group symmetrization                               OFF
 BRILLOUIN| Wavefunction type                                            COMPLEX
 BRILLOUIN| Use full k-point grid     
 BRILLOUIN| List of Kpoints [2 Pi/Bohr]                                       31
 BRILLOUIN| Number           Weight            X              Y              Z
 BRILLOUIN|     1           0.03226        0.00000        0.00000       -0.48387
 BRILLOUIN|     2           0.03226        0.00000        0.00000       -0.45161
 BRILLOUIN|     3           0.03226        0.00000        0.00000       -0.41935
 BRILLOUIN|     4           0.03226        0.00000        0.00000       -0.38710
 BRILLOUIN|     5           0.03226        0.00000        0.00000       -0.35484
 BRILLOUIN|     6           0.03226        0.00000        0.00000       -0.32258
 BRILLOUIN|     7           0.03226        0.00000        0.00000       -0.29032
 BRILLOUIN|     8           0.03226        0.00000        0.00000       -0.25806
 BRILLOUIN|     9           0.03226        0.00000        0.00000       -0.22581
 BRILLOUIN|    10           0.03226        0.00000        0.00000       -0.19355
 BRILLOUIN|    11           0.03226        0.00000        0.00000       -0.16129
 BRILLOUIN|    12           0.03226        0.00000        0.00000       -0.12903
 BRILLOUIN|    13           0.03226        0.00000        0.00000       -0.09677
 BRILLOUIN|    14           0.03226        0.00000        0.00000       -0.06452
 BRILLOUIN|    15           0.03226        0.00000        0.00000       -0.03226
 BRILLOUIN|    16           0.03226        0.00000        0.00000        0.00000
 BRILLOUIN|    17           0.03226        0.00000        0.00000        0.03226
 BRILLOUIN|    18           0.03226        0.00000        0.00000        0.06452
 BRILLOUIN|    19           0.03226        0.00000        0.00000        0.09677
 BRILLOUIN|    20           0.03226        0.00000        0.00000        0.12903
 BRILLOUIN|    21           0.03226        0.00000        0.00000        0.16129
 BRILLOUIN|    22           0.03226        0.00000        0.00000        0.19355
 BRILLOUIN|    23           0.03226        0.00000        0.00000        0.22581
 BRILLOUIN|    24           0.03226        0.00000        0.00000        0.25806
 BRILLOUIN|    25           0.03226        0.00000        0.00000        0.29032
 BRILLOUIN|    26           0.03226        0.00000        0.00000        0.32258
 BRILLOUIN|    27           0.03226        0.00000        0.00000        0.35484
 BRILLOUIN|    28           0.03226        0.00000        0.00000        0.38710
 BRILLOUIN|    29           0.03226        0.00000        0.00000        0.41935
 BRILLOUIN|    30           0.03226        0.00000        0.00000        0.45161
 BRILLOUIN|    31           0.03226        0.00000        0.00000        0.48387
 *******************************************************************************

 *******************************************************************************
 *******************************************************************************
 **                                                                           **
 **     #####                         ##              ##                      **
 **    ##   ##            ##          ##              ##                      **
 **   ##     ##                       ##            ######                    **
 **   ##     ##  ##   ##  ##   #####  ##  ##   ####   ##    #####    #####    **
 **   ##     ##  ##   ##  ##  ##      ## ##   ##      ##   ##   ##  ##   ##   **
 **   ##  ## ##  ##   ##  ##  ##      ####     ###    ##   ######   ######    **
 **    ##  ###   ##   ##  ##  ##      ## ##      ##   ##   ##       ##        **
 **     #######   #####   ##   #####  ##  ##  ####    ##    #####   ##        **
 **           ##                                                    ##        **
 **                                                                           **
 **                                                ... make the atoms dance   **
 **                                                                           **
 **            Copyright (C) by CP2K developers group (2000-2022)             **
 **                      J. Chem. Phys. 152, 194103 (2020)                    **
 **                                                                           **
 *******************************************************************************

 *** WARNING in qs_environment.F:1468 :: More added MOs requested than     ***
 *** available. The full set of unoccupied MOs will be used. Use           ***
 *** 'ADDED_MOS -1' to always use all available MOs and to get rid of this ***
 *** warning.                                                              ***


 DFT| Spin restricted Kohn-Sham (RKS) calculation                            RKS
 DFT| Multiplicity                                                             1
 DFT| Number of spin states                                                    1
 DFT| Charge                                                                   0
 DFT| Self-interaction correction (SIC)                                       NO
 DFT| Cutoffs: density                                              1.000000E-10
 DFT|          gradient                                             1.000000E-10
 DFT|          tau                                                  1.000000E-10
 DFT|          cutoff_smoothing_range                               0.000000E+00
 DFT| XC density smoothing                                                  NONE
 DFT| XC derivatives                                                          PW

 FUNCTIONAL| PADE:
 FUNCTIONAL| S. Goedecker, M. Teter and J. Hutter, Phys. Rev. B 54, 1703 (1996) 


 QS| Method:                                                                 GPW
 QS| Density plane wave grid type                        NON-SPHERICAL FULLSPACE
 QS| Number of grid levels:                                                    4
 QS| Density cutoff [a.u.]:                                                200.0
 QS| Multi grid cutoff [a.u.]: 1) grid level                               200.0
 QS|                           2) grid level                                66.7
 QS|                           3) grid level                                22.2
 QS|                           4) grid level                                 7.4
 QS| Grid level progression factor:                                          3.0
 QS| Relative density cutoff [a.u.]:                                        20.0
 QS| Interaction thresholds: eps_pgf_orb:                                1.0E-05
 QS|                         eps_filter_matrix:                          0.0E+00
 QS|                         eps_core_charge:                            1.0E-12
 QS|                         eps_rho_gspace:                             1.0E-10
 QS|                         eps_rho_rspace:                             1.0E-10
 QS|                         eps_gvg_rspace:                             1.0E-05
 QS|                         eps_ppl:                                    1.0E-02
 QS|                         eps_ppnl:                                   1.0E-07


 ATOMIC KIND INFORMATION

  1. Atomic kind: Li                                    Number of atoms:      64

     Orbital Basis Set                                         SZV-MOLOPT-SR-GTH

       Number of orbital shell sets:                                           1
       Number of orbital shells:                                               2
       Number of primitive Cartesian functions:                                5
       Number of Cartesian basis functions:                                    2
       Number of spherical basis functions:                                    2
       Norm type:                                                              2

       Normalised Cartesian orbitals:

                        Set   Shell   Orbital            Exponent    Coefficient

                          1       1    2s                7.133128       0.845417
                                                         1.999997       0.491024
                                                         0.612031       0.147779
                                                         0.084367       0.023020
                                                         0.032613       0.006029

                          1       2    3s                7.133128       0.356560
                                                         1.999997       0.274758
                                                         0.612031       0.123518
                                                         0.084367      -0.073250
                                                         0.032613      -0.022874

       Atomic covalent radius [Angstrom]:                                  1.230

       Atomic van der Waals radius [Angstrom]:                             1.820

     GTH Potential information for                                   GTH-PADE-q3

       Description:                       Goedecker-Teter-Hutter pseudopotential
                                           Goedecker et al., PRB 54, 1703 (1996)
                                          Hartwigsen et al., PRB 58, 3641 (1998)
                                                      Krack, TCA 114, 145 (2005)

       Gaussian exponent of the core charge distribution:               3.125000
       Electronic configuration (s p d ...):                                   3

       Parameters of the local part of the GTH pseudopotential:

                          rloc        C1          C2          C3          C4
                        0.400000  -14.034868    9.553476   -1.766488    0.084370


 MOLECULE KIND INFORMATION


 All atoms are their own molecule, skipping detailed information


 TOTAL NUMBERS AND MAXIMUM NUMBERS

  Total number of            - Atomic kinds:                                   1
                             - Atoms:                                         64
                             - Shell sets:                                    64
                             - Shells:                                       128
                             - Primitive Cartesian functions:                320
                             - Cartesian basis functions:                    128
                             - Spherical basis functions:                    128

  Maximum angular momentum of- Orbital basis functions:                        0
                             - Local part of the GTH pseudopotential:          6


 MODULE QUICKSTEP: ATOMIC COORDINATES IN ANGSTROM

   Atom Kind Element         X             Y             Z       Z(eff)     Mass
      1    1 Li    3      1.042821      1.042821      1.042823   3.0000   6.9410
      2    1 Li    3      1.042821      3.128465      3.128467   3.0000   6.9410
      3    1 Li    3      3.128465      1.042821      3.128467   3.0000   6.9410
      4    1 Li    3      3.128465      3.128465      1.042823   3.0000   6.9410
      5    1 Li    3      1.042821      5.214109      1.042823   3.0000   6.9410
      6    1 Li    3      1.042821     13.556685      1.042823   3.0000   6.9410
      7    1 Li    3      5.214109      1.042821      1.042823   3.0000   6.9410
      8    1 Li    3     13.556685      1.042821      1.042823   3.0000   6.9410
      9    1 Li    3      1.042821      7.299753      3.128467   3.0000   6.9410
     10    1 Li    3      1.042821     15.642329      3.128467   3.0000   6.9410
     11    1 Li    3      5.214109      3.128465      3.128467   3.0000   6.9410
     12    1 Li    3     13.556685      3.128465      3.128467   3.0000   6.9410
     13    1 Li    3      3.128465      5.214109      3.128467   3.0000   6.9410
     14    1 Li    3      3.128465     13.556685      3.128467   3.0000   6.9410
     15    1 Li    3      7.299753      1.042821      3.128467   3.0000   6.9410
     16    1 Li    3     15.642329      1.042821      3.128467   3.0000   6.9410
     17    1 Li    3      3.128465      7.299753      1.042823   3.0000   6.9410
     18    1 Li    3      3.128465     15.642329      1.042823   3.0000   6.9410
     19    1 Li    3      7.299753      3.128465      1.042823   3.0000   6.9410
     20    1 Li    3     15.642329      3.128465      1.042823   3.0000   6.9410
     21    1 Li    3      1.042821      9.385397      1.042823   3.0000   6.9410
     22    1 Li    3      9.385397      1.042821      1.042823   3.0000   6.9410
     23    1 Li    3      1.042821     11.471041      3.128467   3.0000   6.9410
     24    1 Li    3      9.385397      3.128465      3.128467   3.0000   6.9410
     25    1 Li    3      3.128465      9.385397      3.128467   3.0000   6.9410
     26    1 Li    3     11.471041      1.042821      3.128467   3.0000   6.9410
     27    1 Li    3      3.128465     11.471041      1.042823   3.0000   6.9410
     28    1 Li    3     11.471041      3.128465      1.042823   3.0000   6.9410
     29    1 Li    3      5.214109      5.214109      1.042823   3.0000   6.9410
     30    1 Li    3     13.556685     13.556685      1.042823   3.0000   6.9410
     31    1 Li    3     13.556685      5.214109      1.042823   3.0000   6.9410
     32    1 Li    3      5.214109     13.556685      1.042823   3.0000   6.9410
     33    1 Li    3      5.214109      7.299753      3.128467   3.0000   6.9410
     34    1 Li    3     13.556685     15.642329      3.128467   3.0000   6.9410
     35    1 Li    3     13.556685      7.299753      3.128467   3.0000   6.9410
     36    1 Li    3      5.214109     15.642329      3.128467   3.0000   6.9410
     37    1 Li    3      7.299753      5.214109      3.128467   3.0000   6.9410
     38    1 Li    3     15.642329     13.556685      3.128467   3.0000   6.9410
     39    1 Li    3     15.642329      5.214109      3.128467   3.0000   6.9410
     40    1 Li    3      7.299753     13.556685      3.128467   3.0000   6.9410
     41    1 Li    3      7.299753      7.299753      1.042823   3.0000   6.9410
     42    1 Li    3     15.642329     15.642329      1.042823   3.0000   6.9410
     43    1 Li    3     15.642329      7.299753      1.042823   3.0000   6.9410
     44    1 Li    3      7.299753     15.642329      1.042823   3.0000   6.9410
     45    1 Li    3      5.214109      9.385397      1.042823   3.0000   6.9410
     46    1 Li    3     13.556685      9.385397      1.042823   3.0000   6.9410
     47    1 Li    3      9.385397      5.214109      1.042823   3.0000   6.9410
     48    1 Li    3      9.385397     13.556685      1.042823   3.0000   6.9410
     49    1 Li    3      5.214109     11.471041      3.128467   3.0000   6.9410
     50    1 Li    3     13.556685     11.471041      3.128467   3.0000   6.9410
     51    1 Li    3      9.385397      7.299753      3.128467   3.0000   6.9410
     52    1 Li    3      9.385397     15.642329      3.128467   3.0000   6.9410
     53    1 Li    3      7.299753      9.385397      3.128467   3.0000   6.9410
     54    1 Li    3     15.642329      9.385397      3.128467   3.0000   6.9410
     55    1 Li    3     11.471041      5.214109      3.128467   3.0000   6.9410
     56    1 Li    3     11.471041     13.556685      3.128467   3.0000   6.9410
     57    1 Li    3      7.299753     11.471041      1.042823   3.0000   6.9410
     58    1 Li    3     15.642329     11.471041      1.042823   3.0000   6.9410
     59    1 Li    3     11.471041      7.299753      1.042823   3.0000   6.9410
     60    1 Li    3     11.471041     15.642329      1.042823   3.0000   6.9410
     61    1 Li    3      9.385397      9.385397      1.042823   3.0000   6.9410
     62    1 Li    3      9.385397     11.471041      3.128467   3.0000   6.9410
     63    1 Li    3     11.471041      9.385397      3.128467   3.0000   6.9410
     64    1 Li    3     11.471041     11.471041      1.042823   3.0000   6.9410



 SCF PARAMETERS         Density guess:                                    ATOMIC
                        --------------------------------------------------------
                        max_scf:                                             100
                        max_scf_history:                                       0
                        max_diis:                                              4
                        --------------------------------------------------------
                        eps_scf:                                        1.00E-07
                        eps_scf_history:                                0.00E+00
                        eps_diis:                                       1.00E-01
                        eps_eigval:                                     1.00E-05
                        --------------------------------------------------------
                        level_shift [a.u.]:                             0.000000
                        added MOs                                        32    0
                        --------------------------------------------------------
                        Mixing method:                            BROYDEN_MIXING
                                                charge density mixing in g-space
                        --------------------------------------------------------
                        Smear method:                                FERMI_DIRAC
                        Electronic temperature [K]:                        293.0
                        Electronic temperature [a.u.]:                  9.28E-04
                        Accuracy threshold:                             1.00E-10
                        --------------------------------------------------------
                        No outer SCF

 PW_GRID| Information for grid number                                          1
 PW_GRID| Grid distributed over                                   240 processors
 PW_GRID| Real space group dimensions                                    12   20
 PW_GRID| the grid is blocked:                                               YES
 PW_GRID| Cutoff [a.u.]                                                    200.0
 PW_GRID| spherical cutoff:                                                   NO
 PW_GRID|   Bounds   1           -105     104                Points:         210
 PW_GRID|   Bounds   2           -105     104                Points:         210
 PW_GRID|   Bounds   3            -27      26                Points:          54
 PW_GRID| Volume element (a.u.^3)  0.3291E-02     Volume (a.u.^3)      7836.5917
 PW_GRID| Grid span                                                    FULLSPACE
 PW_GRID|   Distribution                         Average         Max         Min
 PW_GRID|   G-Vectors                             9922.5       11340        7140
 PW_GRID|   G-Rays                                  47.2          54          34
 PW_GRID|   Real Space Points                     9922.5       11340        7140

 PW_GRID| Information for grid number                                          2
 PW_GRID| Number of the reference grid                                         1
 PW_GRID| Grid distributed over                                   240 processors
 PW_GRID| Real space group dimensions                                    12   20
 PW_GRID| the grid is blocked:                                                NO
 PW_GRID| Cutoff [a.u.]                                                     66.7
 PW_GRID| spherical cutoff:                                                   NO
 PW_GRID|   Bounds   1            -60      59                Points:         120
 PW_GRID|   Bounds   2            -60      59                Points:         120
 PW_GRID|   Bounds   3            -15      14                Points:          30
 PW_GRID| Volume element (a.u.^3)  0.1814E-01     Volume (a.u.^3)      7836.5917
 PW_GRID| Grid span                                                    FULLSPACE
 PW_GRID|   Distribution                         Average         Max         Min
 PW_GRID|   G-Vectors                             1800.0        6480           0
 PW_GRID|   G-Rays                                  15.0          54           0
 PW_GRID|   Real Space Points                     1800.0        1800        1800

 PW_GRID| Information for grid number                                          3
 PW_GRID| Number of the reference grid                                         1
 PW_GRID| Grid distributed over                                   240 processors
 PW_GRID| Real space group dimensions                                    12   20
 PW_GRID| the grid is blocked:                                                NO
 PW_GRID| Cutoff [a.u.]                                                     22.2
 PW_GRID| spherical cutoff:                                                   NO
 PW_GRID|   Bounds   1            -35      34                Points:          70
 PW_GRID|   Bounds   2            -35      34                Points:          70
 PW_GRID|   Bounds   3             -9       8                Points:          18
 PW_GRID| Volume element (a.u.^3)  0.8885E-01     Volume (a.u.^3)      7836.5917
 PW_GRID| Grid span                                                    FULLSPACE
 PW_GRID|   Distribution                         Average         Max         Min
 PW_GRID|   G-Vectors                              367.5        3780           0
 PW_GRID|   G-Rays                                   5.2          54           0
 PW_GRID|   Real Space Points                      367.5         432         270

 PW_GRID| Information for grid number                                          4
 PW_GRID| Number of the reference grid                                         1
 PW_GRID| Grid distributed over                                   240 processors
 PW_GRID| Real space group dimensions                                    12   20
 PW_GRID| the grid is blocked:                                                NO
 PW_GRID| Cutoff [a.u.]                                                      7.4
 PW_GRID| spherical cutoff:                                                   NO
 PW_GRID|   Bounds   1            -20      19                Points:          40
 PW_GRID|   Bounds   2            -20      19                Points:          40
 PW_GRID|   Bounds   3             -4       4                Points:           9
 PW_GRID| Volume element (a.u.^3)  0.5442         Volume (a.u.^3)      7836.5917
 PW_GRID| Grid span                                                    FULLSPACE
 PW_GRID|   Distribution                         Average         Max         Min
 PW_GRID|   G-Vectors                               60.0        2160           0
 PW_GRID|   G-Rays                                   1.5          54           0
 PW_GRID|   Real Space Points                       60.0          72          54

 POISSON| Solver                                                        PERIODIC
 POISSON| Periodicity                                                        XYZ

 RS_GRID| Information for grid number                                          1
 RS_GRID|   Bounds   1           -105     104                Points:         210
 RS_GRID|   Bounds   2           -105     104                Points:         210
 RS_GRID|   Bounds   3            -27      26                Points:          54
 RS_GRID| Real space distribution over                                 15 groups
 RS_GRID| Real space distribution along direction                              1
 RS_GRID| Border size                                                         21
 RS_GRID| Real space distribution over                                 16 groups
 RS_GRID| Real space distribution along direction                              2
 RS_GRID| Border size                                                         21
 RS_GRID|   Distribution                         Average         Max         Min
 RS_GRID|   Planes                                  56.0          56          56
 RS_GRID|   Distribution                         Average         Max         Min
 RS_GRID|   Planes                                  55.1          56          55

 RS_GRID| Information for grid number                                          2
 RS_GRID|   Bounds   1            -60      59                Points:         120
 RS_GRID|   Bounds   2            -60      59                Points:         120
 RS_GRID|   Bounds   3            -15      14                Points:          30
 RS_GRID| Real space distribution over                                 15 groups
 RS_GRID| Real space distribution along direction                              1
 RS_GRID| Border size                                                         19
 RS_GRID| Real space distribution over                                 16 groups
 RS_GRID| Real space distribution along direction                              2
 RS_GRID| Border size                                                         19
 RS_GRID|   Distribution                         Average         Max         Min
 RS_GRID|   Planes                                  46.0          46          46
 RS_GRID|   Distribution                         Average         Max         Min
 RS_GRID|   Planes                                  45.5          46          45

 RS_GRID| Information for grid number                                          3
 RS_GRID|   Bounds   1            -35      34                Points:          70
 RS_GRID|   Bounds   2            -35      34                Points:          70
 RS_GRID|   Bounds   3             -9       8                Points:          18
 RS_GRID| Real space fully replicated
 RS_GRID| Group size                                                           1

 RS_GRID| Information for grid number                                          4
 RS_GRID|   Bounds   1            -20      19                Points:          40
 RS_GRID|   Bounds   2            -20      19                Points:          40
 RS_GRID|   Bounds   3             -4       4                Points:           9
 RS_GRID| Real space fully replicated
 RS_GRID| Group size                                                           1

 KPOINTS| Number of kpoint groups                                              1
 KPOINTS| Size of each kpoint group                                          240
 KPOINTS| Number of kpoints per group                                         31

 Number of electrons:                                                        192
 Number of occupied orbitals:                                                 96
 Number of molecular orbitals:                                               128

 Number of orbital functions:                                                128
 Number of independent orbital functions:                                    128

 Extrapolation method: initial_guess

 Atomic guess: The first density matrix is obtained in terms of atomic orbitals
               and electronic configurations assigned to each atomic kind

 Guess for atomic kind: Li

 Electronic structure
    Total number of core electrons                                          0.00
    Total number of valence electrons                                       3.00
    Total number of electrons                                               3.00
    Multiplicity                                                   not specified
    S      2.00  1.00


 *******************************************************************************
                  Iteration          Convergence                     Energy [au]
 *******************************************************************************
                          1        0.103174E-01                  -7.254114102182
                          2        0.192553E-03                  -7.254173031998
                          3        0.719334E-07                  -7.254173052563

 Energy components [Hartree]           Total Energy ::           -7.254173052563
                                        Band Energy ::           -3.719293921686
                                     Kinetic Energy ::            6.658310805860
                                   Potential Energy ::          -13.912483858423
                                      Virial (-V/T) ::            2.089491503788
                                        Core Energy ::           -9.654998472048
                                          XC Energy ::           -1.652518814120
                                     Coulomb Energy ::            4.053344233605
                       Total Pseudopotential Energy ::          -16.345361026747
                       Local Pseudopotential Energy ::          -16.345361026747
                    Nonlocal Pseudopotential Energy ::            0.000000000000
                                        Confinement ::            0.320517488397

 Orbital energies  State     L     Occupation   Energy[a.u.]          Energy[eV]

                       1     0          2.000      -1.829945          -49.795341
                       2     0          1.000      -0.059404           -1.616453


 Total Electron Density at R=0:                                         5.602304
 Re-scaling the density matrix to get the right number of electrons
                  # Electrons              Trace(P)               Scaling factor
                          192               192.000                        1.000


 SCF WAVEFUNCTION OPTIMIZATION

  Step     Update method      Time    Convergence         Total energy    Change
  ------------------------------------------------------------------------------
     1 NoMix/Diag. 0.30E+00    1.5     0.27733554      -475.3500981971 -4.75E+02
     2 Broy./Diag. 0.30E+00    1.6     0.00008296      -469.4965356719  5.85E+00
     3 Broy./Diag. 0.30E+00    1.5     0.00020614      -469.3889369791  1.08E-01
     4 Broy./Diag. 0.30E+00    1.6     0.00001952      -469.3806278342  8.31E-03
     5 Broy./Diag. 0.30E+00    1.6     0.00004937      -469.3601638751  2.05E-02
     6 Broy./Diag. 0.30E+00    1.5     0.00000060      -469.3592567604  9.07E-04
     7 Broy./Diag. 0.30E+00    1.7     0.00000042      -469.3593116606 -5.49E-05
     8 Broy./Diag. 0.30E+00    1.5     0.00000003      -469.3593159544 -4.29E-06

  *** SCF run converged in     8 steps ***


  Electronic density on regular grids:       -191.9999999984        0.0000000016
  Core density on regular grids:              191.9999999646       -0.0000000354
  Total charge density on r-space grids:       -0.0000000338
  Total charge density g-space grids:          -0.0000000338

  Overlap energy of the core charge distribution:               0.00000000000000
  Self energy of the core charge distribution:               -406.21650015438456
  Core Hamiltonian energy:                                     23.22277601144323
  Hartree energy:                                              24.71743161488147
  Exchange-correlation energy:                               -111.08144287371604
  Electronic entropic energy:                                  -0.00158055214952
  Fermi energy:                                                 0.09242751067054

  Total energy:                                              -469.35931595438279

 BULKTRANSP| E_FERMI [a.u.] =                                   9.2427510671E-02
 BULKTRANSP| HartreeLeadsBottom [a.u.] =                       -6.9024002795E-02

 ENERGY| Total FORCE_EVAL ( QS ) energy [a.u.]:             -469.359315954382794

 -------------------------------------------------------------------------------
 -                                                                             -
 -                                DBCSR STATISTICS                             -
 -                                                                             -
 -------------------------------------------------------------------------------
 COUNTER                                    TOTAL       BLAS       SMM       ACC
 flops inhomo. stacks                           0       0.0%      0.0%      0.0%
 flops total                         0.000000E+00       0.0%      0.0%      0.0%
 flops max/rank                      0.000000E+00       0.0%      0.0%      0.0%
 matmuls inhomo. stacks                         0       0.0%      0.0%      0.0%
 matmuls total                                  0       0.0%      0.0%      0.0%
 number of processed stacks                     0       0.0%      0.0%      0.0%
 average stack size                                     0.0       0.0       0.0
 marketing flops                     0.000000E+00
 -------------------------------------------------------------------------------
 -                                                                             -
 -                      DBCSR MESSAGE PASSING PERFORMANCE                      -
 -                                                                             -
 -------------------------------------------------------------------------------
 ROUTINE             CALLS      AVE VOLUME [Bytes]
 MP_Bcast                1                     12.
 MP_Allreduce         1300                      8.
 MP_Alltoall         21730                 157046.
 -------------------------------------------------------------------------------

 -------------------------------------------------------------------------------
 -                                                                             -
 -                                DBM STATISTICS                               -
 -                                                                             -
 -------------------------------------------------------------------------------
    M  x    N  x    K                                          COUNT     PERCENT
 -------------------------------------------------------------------------------

 -------------------------------------------------------------------------------
 -                                                                             -
 -                                GRID STATISTICS                              -
 -                                                                             -
 -------------------------------------------------------------------------------
 LP    KERNEL             BACKEND                              COUNT     PERCENT
 0     collocate ortho    REF                                1153728      52.57%
 0     integrate ortho    REF                                1025536      46.73%
 0     collocate general  REF                                  15360       0.70%
 -------------------------------------------------------------------------------

 MEMORY| Estimated peak process memory [MiB]                                 285

 -------------------------------------------------------------------------------
 ----                             MULTIGRID INFO                            ----
 -------------------------------------------------------------------------------
 count for grid        1:          53760          cutoff [a.u.]          200.00
 count for grid        2:          45760          cutoff [a.u.]           66.67
 count for grid        3:          37760          cutoff [a.u.]           22.22
 count for grid        4:          96512          cutoff [a.u.]            7.41
 total gridlevel count  :         233792

 -------------------------------------------------------------------------------
 -                                                                             -
 -                         MESSAGE PASSING PERFORMANCE                         -
 -                                                                             -
 -------------------------------------------------------------------------------

 ROUTINE             CALLS      AVE VOLUME [Bytes]
 MP_Group                5
 MP_Bcast            10538                  14544.
 MP_Allreduce         1147                    676.
 MP_Sync               106
 MP_Alltoall           169              176099778.
 MP_ISendRecv         8126                   2016.
 MP_Wait             16605
 MP_ISend            12110                   3214.
 MP_IRecv            12194                   3207.
 MP_Recv              1440                   7168.
 -------------------------------------------------------------------------------


 -------------------------------------------------------------------------------
 -                                                                             -
 -                           R E F E R E N C E S                               -
 -                                                                             -
 -------------------------------------------------------------------------------
 
 CP2K version 2022.1 (Development Version), the CP2K developers group (2022).
 CP2K is freely available from https://www.cp2k.org/ .

 Kuehne,Thomas D.; Iannuzzi,Marcella; Del Ben,Mauro;
 Rybkin,Vladimir V.; Seewald,Patrick; Stein,Frederick; Laino,Teodoro;
 Khaliullin,Rustam Z.; Schuett,Ole; Schiffmann,Florian; Golze,Dorothea;
 Wilhelm,Jan; Chulkov,Sergey; Bani-Hashemian,Mohammad Hossein;
 Weber,Valery; Borstnik,Urban; Taillefumier,Mathieu;
 Jakobovits,Alice Shoshana; Lazzaro,Alfio; Pabst,Hans; Mueller,Tiziano;
 Schade,Robert; Guidon,Manuel; Andermatt,Samuel; Holmberg,Nico;
 Schenter,Gregory K.; Hehn,Anna; Bussy,Augustin; Belleflamme,Fabian;
 Tabacchi,Gloria; Gloess,Andreas; Lass,Michael; Bethune,Iain;
 Mundy,Christopher J.; Plessl,Christian; Watkins,Matt;
 VandeVondele,Joost; Krack,Matthias; Hutter,Juerg. 
 The Journal of Chemical Physics, 152 (19), (2020). 
 CP2K: An electronic structure and molecular dynamics software package -
 Quickstep: Efficient and accurate electronic structure calculations.
 https://doi.org/10.1063/5.0007045

 Togo, Atsushi; Tanaka, Isao. arXiv, 1808.01590 (2018). 
 Spglib : a software library for crystal symmetry search.
 https://doi.org/xxx

 Schuett, Ole; Messmer, Peter; Hutter, Juerg; VandeVondele, Joost. 
 Electronic Structure Calculations on Graphics Processing Units, John
 Wiley & Sons, Ltd, 173-190 (2016). 
 GPU-Accelerated Sparse Matrix-Matrix Multiplication for
 Linear Scaling Density Functional Theory.
 https://doi.org/10.1002/9781118670712.ch8

 Heinecke, A; Henry, G; Hutchinson, M; Pabst, H. 
 Proceedings of Intl. Supercomputing Conference, 981-991 (2016). 
 LIBXSMM: Accelerating Small Matrix Multiplications
 by Runtime Code Generation.
 https://doi.org/10.1109/SC.2016.83

 Borstnik, U; VandeVondele, J; Weber, V; Hutter, J. 
 PARALLEL COMPUTING, 40 (5-6), 47-58 (2014). 
 Sparse matrix multiplication: The distributed block-compressed sparse
 row library.
 https://doi.org/10.1016/j.parco.2014.03.012

 Hutter, J; Iannuzzi, M; Schiffmann, F; VandeVondele, J. 
 WIREs Comput Mol Sci., 4 (1), 15-25 (2014). 
 CP2K: atomistic simulations of condensed matter systems.
 https://doi.org/10.1002/wcms.1159

 VandeVondele, J; Hutter, J. 
 JOURNAL OF CHEMICAL PHYSICS, 127 (11), 114105 (2007). 
 Gaussian basis sets for accurate calculations on molecular systems in
 gas and condensed phases.
 https://doi.org/10.1063/1.2770708

 Krack, M. 
 THEORETICAL CHEMISTRY ACCOUNTS, 114 (1-3), 145-152 (2005). 
 Pseudopotentials for H to Kr optimized for gradient-corrected
 exchange-correlation functionals.
 https://doi.org/10.1007/s00214-005-0655-y

 VandeVondele, J; Krack, M; Mohamed, F; Parrinello, M; Chassaing, T;
 Hutter, J. COMPUTER PHYSICS COMMUNICATIONS, 167 (2), 103-128 (2005). 
 QUICKSTEP: Fast and accurate density functional calculations using a
 mixed Gaussian and plane waves approach.
 https://doi.org/10.1016/j.cpc.2004.12.014

 Frigo, M; Johnson, SG. 
 PROCEEDINGS OF THE IEEE, 93 (2), 216-231 (2005). 
 The design and implementation of FFTW3.
 https://doi.org/10.1109/JPROC.2004.840301

 Hartwigsen, C; Goedecker, S; Hutter, J. 
 PHYSICAL REVIEW B, 58 (7), 3641-3662 (1998). 
 Relativistic separable dual-space Gaussian pseudopotentials from H to Rn.
 https://doi.org/10.1103/PhysRevB.58.3641

 Lippert, G; Hutter, J; Parrinello, M. 
 MOLECULAR PHYSICS, 92 (3), 477-487 (1997). 
 A hybrid Gaussian and plane wave density functional scheme.
 https://doi.org/10.1080/002689797170220

 Goedecker, S; Teter, M; Hutter, J. 
 PHYSICAL REVIEW B, 54 (3), 1703-1710 (1996). 
 Separable dual-space Gaussian pseudopotentials.
 https://doi.org/10.1103/PhysRevB.54.1703


 -------------------------------------------------------------------------------
 -                                                                             -
 -                                T I M I N G                                  -
 -                                                                             -
 -------------------------------------------------------------------------------
 SUBROUTINE                       CALLS  ASD         SELF TIME        TOTAL TIME
                                MAXIMUM       AVERAGE  MAXIMUM  AVERAGE  MAXIMUM
 CP2K                                 1  1.0    0.050    0.058   16.153   16.156
 qs_energies                          1  2.0    0.001    0.001   15.860   15.948
 scf_env_do_scf                       1  3.0    0.000    0.000   12.894   12.904
 scf_env_do_scf_inner_loop            8  4.0    0.003    0.097   12.894   12.904
 qs_scf_new_mos_kp                    8  5.0    0.000    0.000   11.496   11.497
 do_general_diag_kp                   8  6.0    0.006    0.006   11.496   11.497
 cp_cfm_geeig                       248  7.0    0.002    0.003    5.234    5.237
 cp_cfm_heevd                       248  8.0    4.768    4.807    4.768    4.807
 copy_dbcsr_to_fm                  1072  6.9    0.009    0.009    3.716    3.778
 dbcsr_complete_redistribute       1630  8.2    0.051    0.057    3.046    3.115
 mp_alltoall_d11v                 11099  9.4    2.510    3.052    2.510    3.052
 dbcsr_desymmetrize_deep           2064  7.5    0.032    0.036    2.981    3.033
 run_smeagol_bulktrans                1  3.0    0.010    2.408    2.792    2.870
 mp_alltoall_i11v                  6954  9.0    2.300    2.664    2.300    2.664
 convert_dbcsr_to_replsiesta          4  4.0    0.045    0.048    2.571    2.582
 mp_sum_iv                           26  5.5    2.316    2.332    2.316    2.332
 hybrid_alltoall_any               2064  8.5    0.008    0.009    1.444    1.753
 mp_alltoall_i22                   3694  8.8    0.754    1.463    0.754    1.463
 kpoint_density_transform             9  6.8    0.002    0.002    1.003    1.005
 copy_fm_to_dbcsr                   558  7.8    0.001    0.001    0.929    0.935
 rs_pw_transfer                      69  9.4    0.001    0.001    0.736    0.745
 qs_ks_update_qs_env                  8  5.0    0.000    0.000    0.583    0.584
 mp_waitany                         488 11.3    0.450    0.547    0.450    0.547
 qs_rho_update_rho_low                9  5.0    0.000    0.000    0.504    0.505
 calculate_rho_elec                   9  6.0    0.000    0.001    0.504    0.505
 rebuild_ks_matrix                    8  6.0    0.000    0.000    0.462    0.462
 qs_ks_build_kohn_sham_matrix         8  7.0    0.002    0.002    0.462    0.462
 density_rs2pw                        9  7.0    0.000    0.000    0.429    0.437
 sum_up_and_integrate                 8  8.0    0.000    0.000    0.434    0.435
 integrate_v_rspace                   8  9.0    0.000    0.000    0.434    0.435
 potential_pw2rs                      8 10.0    0.000    0.000    0.394    0.394
 write_kpoints_restart                8  5.0    0.000    0.013    0.333    0.342
 -------------------------------------------------------------------------------

 The number of warnings for this run is : 1
 
 -------------------------------------------------------------------------------
  **** **** ******  **  PROGRAM ENDED AT                 2022-10-20 11:44:05.471
 ***** ** ***  *** **   PROGRAM RAN ON                     cn1028.scarf.rl.ac.uk
 **    ****   ******    PROGRAM RAN BY                                 scarf1157
 ***** **    ** ** **   PROGRAM PROCESS ID                                 62433
  **** **  *******  **  PROGRAM STOPPED IN /work4/scd/scarf1157/work/testing/cp2
                                           k-smeagol/bdt/hollow-site/transport-c
                                           p2k/dzp-li
