ATOMS
H             0.00000000      0.00000000     -0.00998254            -0.00001142     -0.60445193      0.36693033
H             0.00000000      0.00000000      0.73998166            -0.00001142     -0.60445193      0.36693033
