ATOMS
H             0.00000000      0.00000000     -0.00998254             0.70709981      0.00313743      0.00011021
H             0.00000000      0.00000000      0.73998166            -0.70709981     -0.00313743     -0.00011021
