ATOMS
H             0.00000000      0.00000000     -0.00998254             0.00006095      0.36693033      0.60445193
H             0.00000000      0.00000000      0.73998166             0.00006095      0.36693033      0.60445193
