 DBCSR| CPU Multiplication driver                                           BLAS
 DBCSR| Multrec recursion limit                                              512
 DBCSR| Multiplication stack size                                           1000
 DBCSR| Maximum elements for images                                    UNLIMITED
 DBCSR| Multiplicative factor virtual images                                   1
 DBCSR| Use multiplication densification                                       T
 DBCSR| Multiplication size stacks                                             3
 DBCSR| Use memory pool for CPU allocation                                     F
 DBCSR| Number of 3D layers                                               SINGLE
 DBCSR| Use MPI memory allocation                                              F
 DBCSR| Use RMA algorithm                                                      F
 DBCSR| Use Communication thread                                               T
 DBCSR| Communication thread load                                             83
 DBCSR| MPI: My node id                                                        0
 DBCSR| MPI: Number of nodes                                                  64
 DBCSR| OMP: Current number of threads                                         2
 DBCSR| OMP: Max number of threads                                             2
 DBCSR| Split modifier for TAS multiplication algorithm                  1.0E+00


  **** **** ******  **  PROGRAM STARTED AT               2023-09-13 03:46:24.870
 ***** ** ***  *** **   PROGRAM STARTED ON                             nid004848
 **    ****   ******    PROGRAM STARTED BY                                cahart
 ***** **    ** ** **   PROGRAM PROCESS ID                                138926
  **** **  *******  **  PROGRAM STARTED IN /mnt/lustre/a2fs-work2/work/e05/e05/c
                                           ahart/postdoc/transport/AuH2/cp2k-sme
                                           agol/archer_pbe/geo_opt/NEnergReal-64
                                           _kpoints-3-3-20_omp-2_ParallelOverKNu
                                           m-1/1.7

 CP2K| version string:                 CP2K version 2022.1 (Development Version)
 CP2K| source code revision number:                                  git:5518aa6
 CP2K| cp2kflags: omp libint fftw3 libxc elpa parallel mpi3 scalapack mkl       
 CP2K| is freely available from                            https://www.cp2k.org/
 CP2K| Program compiled at                          Tue 12 Sep 09:20:02 BST 2023
 CP2K| Program compiled on                                                  ln01
 CP2K| Program compiled for                                                local
 CP2K| Data directory path    /work/e05/e05/cahart/smeagol/smgl/cp2k-private-ser
 CP2K| Input file name                                                   4_V.inp

 GLOBAL| Force Environment number                                              1
 GLOBAL| Basis set file name                                        BASIS_MOLOPT
 GLOBAL| Potential file name                                      GTH_POTENTIALS
 GLOBAL| MM Potential file name                                     MM_POTENTIAL
 GLOBAL| Coordinate file name                                             em.xyz
 GLOBAL| Method name                                                        CP2K
 GLOBAL| Project name                                                          V
 GLOBAL| Run type                                                        GEO_OPT
 GLOBAL| FFT library                                                       FFTW3
 GLOBAL| Diagonalization library                                            ELPA
 GLOBAL| Minimum number of eigenvectors for ELPA usage                        16
 GLOBAL| Orthonormality check for eigenvectors                          DISABLED
 GLOBAL| Matrix multiplication library                                 ScaLAPACK
 GLOBAL| All-to-all communication in single precision                          F
 GLOBAL| FFTs using library dependent lengths                                  T
 GLOBAL| Grid backend                                                       AUTO
 GLOBAL| Global print level                                               MEDIUM
 GLOBAL| MPI I/O enabled                                                       T
 GLOBAL| Total number of message passing processes                            64
 GLOBAL| Number of threads for this process                                    2
 GLOBAL| This output is from process                                           0
 GLOBAL| Stack size for threads created by OpenMP (OMP_STACKSIZE)        default
 GLOBAL| CPU model name                          AMD EPYC 7742 64-Core Processor
 GLOBAL| CPUID                                                              1002

 MEMORY| system memory details [Kb]
 MEMORY|                        rank 0           min           max       average
 MEMORY| MemTotal            263341976     263341976     263341976     263341976
 MEMORY| MemFree             241942640     241942640     241942888     241942884
 MEMORY| Buffers                     0             0             0             0
 MEMORY| Cached                4675032       4675032       4675032       4675032
 MEMORY| Slab                  3223384       3223348       3223384       3223348
 MEMORY| SReclaimable           127648        127648        127648        127648
 MEMORY| MemLikelyFree       246745320     246745320     246745568     246745564


 *** Fundamental physical constants (SI units) ***

 *** Literature: B. J. Mohr and B. N. Taylor,
 ***             CODATA recommended values of the fundamental physical
 ***             constants: 2006, Web Version 5.1
 ***             http://physics.nist.gov/constants

 Speed of light in vacuum [m/s]                             2.99792458000000E+08
 Magnetic constant or permeability of vacuum [N/A**2]       1.25663706143592E-06
 Electric constant or permittivity of vacuum [F/m]          8.85418781762039E-12
 Planck constant (h) [J*s]                                  6.62606896000000E-34
 Planck constant (h-bar) [J*s]                              1.05457162825177E-34
 Elementary charge [C]                                      1.60217648700000E-19
 Electron mass [kg]                                         9.10938215000000E-31
 Electron g factor [ ]                                     -2.00231930436220E+00
 Proton mass [kg]                                           1.67262163700000E-27
 Fine-structure constant                                    7.29735253760000E-03
 Rydberg constant [1/m]                                     1.09737315685270E+07
 Avogadro constant [1/mol]                                  6.02214179000000E+23
 Boltzmann constant [J/K]                                   1.38065040000000E-23
 Atomic mass unit [kg]                                      1.66053878200000E-27
 Bohr radius [m]                                            5.29177208590000E-11

 *** Conversion factors ***

 [u] -> [a.u.]                                              1.82288848426455E+03
 [Angstrom] -> [Bohr] = [a.u.]                              1.88972613288564E+00
 [a.u.] = [Bohr] -> [Angstrom]                              5.29177208590000E-01
 [a.u.] -> [s]                                              2.41888432650478E-17
 [a.u.] -> [fs]                                             2.41888432650478E-02
 [a.u.] -> [J]                                              4.35974393937059E-18
 [a.u.] -> [N]                                              8.23872205491840E-08
 [a.u.] -> [K]                                              3.15774647902944E+05
 [a.u.] -> [kJ/mol]                                         2.62549961709828E+03
 [a.u.] -> [kcal/mol]                                       6.27509468713739E+02
 [a.u.] -> [Pa]                                             2.94210107994716E+13
 [a.u.] -> [bar]                                            2.94210107994716E+08
 [a.u.] -> [atm]                                            2.90362800883016E+08
 [a.u.] -> [eV]                                             2.72113838565563E+01
 [a.u.] -> [Hz]                                             6.57968392072181E+15
 [a.u.] -> [1/cm] (wave numbers)                            2.19474631370540E+05
 [a.u./Bohr**2] -> [1/cm]                                   5.14048714338585E+03
 

 CELL_TOP| Volume [angstrom^3]:                                      3044.391638
 CELL_TOP| Vector a [angstrom     8.867     0.000     0.000   |a| =     8.867120
 CELL_TOP| Vector b [angstrom     0.000     8.867     0.000   |b| =     8.867120
 CELL_TOP| Vector c [angstrom     0.000     0.000    38.720   |c| =    38.720000
 CELL_TOP| Angle (b,c), alpha [degree]:                                90.000000
 CELL_TOP| Angle (a,c), beta  [degree]:                                90.000000
 CELL_TOP| Angle (a,b), gamma [degree]:                                90.000000
 CELL_TOP| Numerically orthorhombic:                                         YES
 CELL_TOP| Periodicity                                                       XYZ

 GENERATE|  Preliminary Number of Bonds generated:                             0
 GENERATE|  Achieved consistency in connectivity generation.

 CELL| Volume [angstrom^3]:                                          3044.391638
 CELL| Vector a [angstrom]:       8.867     0.000     0.000   |a| =     8.867120
 CELL| Vector b [angstrom]:       0.000     8.867     0.000   |b| =     8.867120
 CELL| Vector c [angstrom]:       0.000     0.000    38.720   |c| =    38.720000
 CELL| Angle (b,c), alpha [degree]:                                    90.000000
 CELL| Angle (a,c), beta  [degree]:                                    90.000000
 CELL| Angle (a,b), gamma [degree]:                                    90.000000
 CELL| Numerically orthorhombic:                                             YES
 CELL| Periodicity                                                           XYZ

 CELL_REF| Volume [angstrom^3]:                                      3044.391638
 CELL_REF| Vector a [angstrom     8.867     0.000     0.000   |a| =     8.867120
 CELL_REF| Vector b [angstrom     0.000     8.867     0.000   |b| =     8.867120
 CELL_REF| Vector c [angstrom     0.000     0.000    38.720   |c| =    38.720000
 CELL_REF| Angle (b,c), alpha [degree]:                                90.000000
 CELL_REF| Angle (a,c), beta  [degree]:                                90.000000
 CELL_REF| Angle (a,b), gamma [degree]:                                90.000000
 CELL_REF| Numerically orthorhombic:                                         YES
 CELL_REF| Periodicity                                                       XYZ

 *** WARNING in cryssym.F:165 :: Symmetry library SPGLIB not available ***


 *******************************************************************************
                                    Kpoints
 *******************************************************************************
 BRILLOUIN| K-point scheme                                        Monkhorst-Pack
 BRILLOUIN| K-Point grid                                             3    3    1
 BRILLOUIN| Accuracy in Symmetry determination                      0.100000E-07
 BRILLOUIN| K-Point point group symmetrization                               OFF
 BRILLOUIN| Wavefunction type                                            COMPLEX
 BRILLOUIN| Use full k-point grid     
 BRILLOUIN| List of Kpoints [2 Pi/Bohr]                                        9
 BRILLOUIN| Number           Weight            X              Y              Z
 BRILLOUIN|     1           0.11111       -0.33333       -0.33333        0.00000
 BRILLOUIN|     2           0.11111       -0.33333        0.00000        0.00000
 BRILLOUIN|     3           0.11111       -0.33333        0.33333        0.00000
 BRILLOUIN|     4           0.11111        0.00000       -0.33333        0.00000
 BRILLOUIN|     5           0.11111        0.00000        0.00000        0.00000
 BRILLOUIN|     6           0.11111        0.00000        0.33333        0.00000
 BRILLOUIN|     7           0.11111        0.33333       -0.33333        0.00000
 BRILLOUIN|     8           0.11111        0.33333        0.00000        0.00000
 BRILLOUIN|     9           0.11111        0.33333        0.33333        0.00000
 *******************************************************************************

 *******************************************************************************
 *******************************************************************************
 **                                                                           **
 **     #####                         ##              ##                      **
 **    ##   ##            ##          ##              ##                      **
 **   ##     ##                       ##            ######                    **
 **   ##     ##  ##   ##  ##   #####  ##  ##   ####   ##    #####    #####    **
 **   ##     ##  ##   ##  ##  ##      ## ##   ##      ##   ##   ##  ##   ##   **
 **   ##  ## ##  ##   ##  ##  ##      ####     ###    ##   ######   ######    **
 **    ##  ###   ##   ##  ##  ##      ## ##      ##   ##   ##       ##        **
 **     #######   #####   ##   #####  ##  ##  ####    ##    #####   ##        **
 **           ##                                                    ##        **
 **                                                                           **
 **                                                ... make the atoms dance   **
 **                                                                           **
 **            Copyright (C) by CP2K developers group (2000-2022)             **
 **                      J. Chem. Phys. 152, 194103 (2020)                    **
 **                                                                           **
 *******************************************************************************

 DFT| Spin restricted Kohn-Sham (RKS) calculation                            RKS
 DFT| Multiplicity                                                             2
 DFT| Number of spin states                                                    1
 DFT| Charge                                                                   0
 DFT| Self-interaction correction (SIC)                                       NO
 DFT| Cutoffs: density                                              1.000000E-10
 DFT|          gradient                                             1.000000E-10
 DFT|          tau                                                  1.000000E-10
 DFT|          cutoff_smoothing_range                               0.000000E+00
 DFT| XC density smoothing                                                  NONE
 DFT| XC derivatives                                                          PW

 FUNCTIONAL| PBE:
 FUNCTIONAL| J.P.Perdew, K.Burke, M.Ernzerhof, Phys. Rev. Letter, vol. 77, n 18,
 FUNCTIONAL|  pp. 3865-3868, (1996){spin unpolarized}                           


 QS| Method:                                                                 GPW
 QS| Density plane wave grid type                        NON-SPHERICAL FULLSPACE
 QS| Number of grid levels:                                                    4
 QS| Density cutoff [a.u.]:                                                300.0
 QS| Multi grid cutoff [a.u.]: 1) grid level                               300.0
 QS|                           2) grid level                               100.0
 QS|                           3) grid level                                33.3
 QS|                           4) grid level                                11.1
 QS| Grid level progression factor:                                          3.0
 QS| Relative density cutoff [a.u.]:                                        30.0
 QS| Interaction thresholds: eps_pgf_orb:                                1.0E-05
 QS|                         eps_filter_matrix:                          0.0E+00
 QS|                         eps_core_charge:                            1.0E-12
 QS|                         eps_rho_gspace:                             1.0E-10
 QS|                         eps_rho_rspace:                             1.0E-10
 QS|                         eps_gvg_rspace:                             1.0E-05
 QS|                         eps_ppl:                                    1.0E-02
 QS|                         eps_ppnl:                                   1.0E-07


 ATOMIC KIND INFORMATION

  1. Atomic kind: Au                                    Number of atoms:     111

     Orbital Basis Set                                         SZV-MOLOPT-SR-GTH

       Number of orbital shell sets:                                           1
       Number of orbital shells:                                               3
       Number of primitive Cartesian functions:                                5
       Number of Cartesian basis functions:                                   10
       Number of spherical basis functions:                                    9
       Norm type:                                                              2

       Normalised Cartesian orbitals:

                        Set   Shell   Orbital            Exponent    Coefficient

                          1       1    2s                2.950008       0.074626
                                                         1.563057      -0.007898
                                                         0.666664      -0.297688
                                                         0.251083       0.136809
                                                         0.081714       0.088198

                          1       2    3px               2.950008       0.148824
                                                         1.563057       0.025430
                                                         0.666664      -0.123003
                                                         0.251083       0.033648
                                                         0.081714       0.059008
                          1       2    3py               2.950008       0.148824
                                                         1.563057       0.025430
                                                         0.666664      -0.123003
                                                         0.251083       0.033648
                                                         0.081714       0.059008
                          1       2    3pz               2.950008       0.148824
                                                         1.563057       0.025430
                                                         0.666664      -0.123003
                                                         0.251083       0.033648
                                                         0.081714       0.059008

                          1       3    4dx2              2.950008      -0.139595
                                                         1.563057       1.319655
                                                         0.666664       0.377081
                                                         0.251083       0.046872
                                                         0.081714       0.001393
                          1       3    4dxy              2.950008      -0.241786
                                                         1.563057       2.285709
                                                         0.666664       0.653124
                                                         0.251083       0.081185
                                                         0.081714       0.002412
                          1       3    4dxz              2.950008      -0.241786
                                                         1.563057       2.285709
                                                         0.666664       0.653124
                                                         0.251083       0.081185
                                                         0.081714       0.002412
                          1       3    4dy2              2.950008      -0.139595
                                                         1.563057       1.319655
                                                         0.666664       0.377081
                                                         0.251083       0.046872
                                                         0.081714       0.001393
                          1       3    4dyz              2.950008      -0.241786
                                                         1.563057       2.285709
                                                         0.666664       0.653124
                                                         0.251083       0.081185
                                                         0.081714       0.002412
                          1       3    4dz2              2.950008      -0.139595
                                                         1.563057       1.319655
                                                         0.666664       0.377081
                                                         0.251083       0.046872
                                                         0.081714       0.001393

       Atomic covalent radius [Angstrom]:                                  1.340

       Atomic van der Waals radius [Angstrom]:                             1.660

     GTH Potential information for                                   GTH-PBE-q11

       Description:                       Goedecker-Teter-Hutter pseudopotential
                                           Goedecker et al., PRB 54, 1703 (1996)
                                          Hartwigsen et al., PRB 58, 3641 (1998)
                                                      Krack, TCA 114, 145 (2005)

       Gaussian exponent of the core charge distribution:               1.436369
       Electronic configuration (s p d ...):                           1   0  10

       Parameters of the local part of the GTH pseudopotential:

                          rloc        C1          C2          C3          C4
                        0.590000   10.517179

       Parameters of the non-local part of the GTH pseudopotential:

                   l      r(l)      h(i,j,l)

                   0    0.543847    5.786811   -2.250680
                                   -2.250680    2.905615
                   1    0.609173    4.284049   -4.071285
                                   -4.071285    4.817210
                   2    0.437309   -7.403281    3.010193
                                    3.010193   -3.413238

  2. Atomic kind: H                                     Number of atoms:       2

     Orbital Basis Set                                        DZVP-MOLOPT-SR-GTH

       Number of orbital shell sets:                                           1
       Number of orbital shells:                                               3
       Number of primitive Cartesian functions:                                5
       Number of Cartesian basis functions:                                    5
       Number of spherical basis functions:                                    5
       Norm type:                                                              2

       Normalised Cartesian orbitals:

                        Set   Shell   Orbital            Exponent    Coefficient

                          1       1    2s               10.068468      -0.133023
                                                         2.680223      -0.177618
                                                         0.791502      -0.258419
                                                         0.239116      -0.107525
                                                         0.082193      -0.014019

                          1       2    3s               10.068468       0.344673
                                                         2.680223       1.819821
                                                         0.791502      -0.999069
                                                         0.239116       0.017430
                                                         0.082193       0.082660

                          1       3    3px              10.068468       0.155326
                                                         2.680223       0.367157
                                                         0.791502       0.311480
                                                         0.239116       0.080105
                                                         0.082193       0.033440
                          1       3    3py              10.068468       0.155326
                                                         2.680223       0.367157
                                                         0.791502       0.311480
                                                         0.239116       0.080105
                                                         0.082193       0.033440
                          1       3    3pz              10.068468       0.155326
                                                         2.680223       0.367157
                                                         0.791502       0.311480
                                                         0.239116       0.080105
                                                         0.082193       0.033440

       Atomic covalent radius [Angstrom]:                                  0.320

       Atomic van der Waals radius [Angstrom]:                             1.090

     GTH Potential information for                                    GTH-PBE-q1

       Description:                       Goedecker-Teter-Hutter pseudopotential
                                           Goedecker et al., PRB 54, 1703 (1996)
                                          Hartwigsen et al., PRB 58, 3641 (1998)
                                                      Krack, TCA 114, 145 (2005)

       Gaussian exponent of the core charge distribution:              12.500000
       Electronic configuration (s p d ...):                                   1

       Parameters of the local part of the GTH pseudopotential:

                          rloc        C1          C2          C3          C4
                        0.200000   -4.178900    0.724463


 MOLECULE KIND INFORMATION


 All atoms are their own molecule, skipping detailed information


 TOTAL NUMBERS AND MAXIMUM NUMBERS

  Total number of            - Atomic kinds:                                   2
                             - Atoms:                                        113
                             - Shell sets:                                   113
                             - Shells:                                       339
                             - Primitive Cartesian functions:                565
                             - Cartesian basis functions:                   1120
                             - Spherical basis functions:                   1009

  Maximum angular momentum of- Orbital basis functions:                        2
                             - Local part of the GTH pseudopotential:          2
                             - Non-local part of the GTH pseudopotential:      4


 MODULE QUICKSTEP: ATOMIC COORDINATES IN ANGSTROM

   Atom Kind Element         X             Y             Z       Z(eff)     Mass
      1    1 Au   79      1.787000      1.281000      0.000000  11.0000 196.9666
      2    1 Au   79      0.309000      2.759000      2.090000  11.0000 196.9666
      3    1 Au   79      1.787000      1.281000      4.180000  11.0000 196.9666
      4    1 Au   79      0.309000      2.759000      6.270000  11.0000 196.9666
      5    1 Au   79      4.743000      1.281000      0.000000  11.0000 196.9666
      6    1 Au   79      3.265000      2.759000      2.090000  11.0000 196.9666
      7    1 Au   79      4.743000      1.281000      4.180000  11.0000 196.9666
      8    1 Au   79      3.265000      2.759000      6.270000  11.0000 196.9666
      9    1 Au   79      7.699000      1.281000      0.000000  11.0000 196.9666
     10    1 Au   79      6.221000      2.759000      2.090000  11.0000 196.9666
     11    1 Au   79      7.699000      1.281000      4.180000  11.0000 196.9666
     12    1 Au   79      6.221000      2.759000      6.270000  11.0000 196.9666
     13    1 Au   79      1.787000      4.236000      0.000000  11.0000 196.9666
     14    1 Au   79      0.309000      5.714000      2.090000  11.0000 196.9666
     15    1 Au   79      1.787000      4.236000      4.180000  11.0000 196.9666
     16    1 Au   79      0.309000      5.714000      6.270000  11.0000 196.9666
     17    1 Au   79      4.743000      4.236000      0.000000  11.0000 196.9666
     18    1 Au   79      3.265000      5.714000      2.090000  11.0000 196.9666
     19    1 Au   79      4.743000      4.236000      4.180000  11.0000 196.9666
     20    1 Au   79      3.265000      5.714000      6.270000  11.0000 196.9666
     21    1 Au   79      7.699000      4.236000      0.000000  11.0000 196.9666
     22    1 Au   79      6.221000      5.714000      2.090000  11.0000 196.9666
     23    1 Au   79      7.699000      4.236000      4.180000  11.0000 196.9666
     24    1 Au   79      6.221000      5.714000      6.270000  11.0000 196.9666
     25    1 Au   79      1.787000      7.192000      0.000000  11.0000 196.9666
     26    1 Au   79      0.309000      8.670000      2.090000  11.0000 196.9666
     27    1 Au   79      1.787000      7.192000      4.180000  11.0000 196.9666
     28    1 Au   79      0.309000      8.670000      6.270000  11.0000 196.9666
     29    1 Au   79      4.743000      7.192000      0.000000  11.0000 196.9666
     30    1 Au   79      3.265000      8.670000      2.090000  11.0000 196.9666
     31    1 Au   79      4.743000      7.192000      4.180000  11.0000 196.9666
     32    1 Au   79      3.265000      8.670000      6.270000  11.0000 196.9666
     33    1 Au   79      7.699000      7.192000      0.000000  11.0000 196.9666
     34    1 Au   79      6.221000      8.670000      2.090000  11.0000 196.9666
     35    1 Au   79      7.699000      7.192000      4.180000  11.0000 196.9666
     36    1 Au   79      6.221000      8.670000      6.270000  11.0000 196.9666
     37    1 Au   79      1.787000      1.281000      8.360000  11.0000 196.9666
     38    1 Au   79      1.787000      4.236000      8.360000  11.0000 196.9666
     39    1 Au   79      1.787000      7.192000      8.360000  11.0000 196.9666
     40    1 Au   79      4.743000      1.281000      8.360000  11.0000 196.9666
     41    1 Au   79      4.743000      4.236000      8.360000  11.0000 196.9666
     42    1 Au   79      4.743000      7.192000      8.360000  11.0000 196.9666
     43    1 Au   79      7.699000      1.281000      8.360000  11.0000 196.9666
     44    1 Au   79      7.699000      4.236000      8.360000  11.0000 196.9666
     45    1 Au   79      7.699000      7.192000      8.360000  11.0000 196.9666
     46    1 Au   79      0.309000      2.759000     10.450000  11.0000 196.9666
     47    1 Au   79      0.309000      5.714000     10.450000  11.0000 196.9666
     48    1 Au   79      0.309000      8.670000     10.450000  11.0000 196.9666
     49    1 Au   79      3.265000      2.759000     10.450000  11.0000 196.9666
     50    1 Au   79      3.265000      5.714000     10.450000  11.0000 196.9666
     51    1 Au   79      3.265000      8.670000     10.450000  11.0000 196.9666
     52    1 Au   79      6.221000      2.759000     10.450000  11.0000 196.9666
     53    1 Au   79      6.221000      5.714000     10.450000  11.0000 196.9666
     54    1 Au   79      6.221000      8.670000     10.450000  11.0000 196.9666
     55    1 Au   79      1.767000      4.215000     12.446000  11.0000 196.9666
     56    1 Au   79      1.766000      7.214000     12.446000  11.0000 196.9666
     57    1 Au   79      4.765000      4.213000     12.446000  11.0000 196.9666
     58    1 Au   79      4.767000      7.214000     12.445000  11.0000 196.9666
     59    1 Au   79      3.270932      5.718890     14.451439  11.0000 196.9666
     60    1 Au   79      3.492865      5.932516     17.135471  11.0000 196.9666
     61    2 H     1      3.209250      5.659807     18.925096   1.0000   1.0079
     62    2 H     1      3.325638      5.772092     19.795115   1.0000   1.0079
     63    1 Au   79      3.042494      5.498844     21.584734  11.0000 196.9666
     64    1 Au   79      3.261206      5.710306     24.269238  11.0000 196.9666
     65    1 Au   79      1.765000      4.213000     26.275000  11.0000 196.9666
     66    1 Au   79      1.765000      7.214000     26.274000  11.0000 196.9666
     67    1 Au   79      4.765000      4.214000     26.274000  11.0000 196.9666
     68    1 Au   79      4.765000      7.214000     26.275000  11.0000 196.9666
     69    1 Au   79      0.309000      2.759000     28.270000  11.0000 196.9666
     70    1 Au   79      0.309000      5.714000     28.270000  11.0000 196.9666
     71    1 Au   79      0.309000      8.670000     28.270000  11.0000 196.9666
     72    1 Au   79      3.265000      2.759000     28.270000  11.0000 196.9666
     73    1 Au   79      3.265000      5.714000     28.270000  11.0000 196.9666
     74    1 Au   79      3.265000      8.670000     28.270000  11.0000 196.9666
     75    1 Au   79      6.221000      2.759000     28.270000  11.0000 196.9666
     76    1 Au   79      6.221000      5.714000     28.270000  11.0000 196.9666
     77    1 Au   79      6.221000      8.670000     28.270000  11.0000 196.9666
     78    1 Au   79      1.787000      1.281000     30.360000  11.0000 196.9666
     79    1 Au   79      0.309000      2.759000     32.450000  11.0000 196.9666
     80    1 Au   79      1.787000      1.281000     34.540000  11.0000 196.9666
     81    1 Au   79      0.309000      2.759000     36.630000  11.0000 196.9666
     82    1 Au   79      4.743000      1.281000     30.360000  11.0000 196.9666
     83    1 Au   79      3.265000      2.759000     32.450000  11.0000 196.9666
     84    1 Au   79      4.743000      1.281000     34.540000  11.0000 196.9666
     85    1 Au   79      3.265000      2.759000     36.630000  11.0000 196.9666
     86    1 Au   79      7.699000      1.281000     30.360000  11.0000 196.9666
     87    1 Au   79      6.221000      2.759000     32.450000  11.0000 196.9666
     88    1 Au   79      7.699000      1.281000     34.540000  11.0000 196.9666
     89    1 Au   79      6.221000      2.759000     36.630000  11.0000 196.9666
     90    1 Au   79      1.787000      4.236000     30.360000  11.0000 196.9666
     91    1 Au   79      0.309000      5.714000     32.450000  11.0000 196.9666
     92    1 Au   79      1.787000      4.236000     34.540000  11.0000 196.9666
     93    1 Au   79      0.309000      5.714000     36.630000  11.0000 196.9666
     94    1 Au   79      4.743000      4.236000     30.360000  11.0000 196.9666
     95    1 Au   79      3.265000      5.714000     32.450000  11.0000 196.9666
     96    1 Au   79      4.743000      4.236000     34.540000  11.0000 196.9666
     97    1 Au   79      3.265000      5.714000     36.630000  11.0000 196.9666
     98    1 Au   79      7.699000      4.236000     30.360000  11.0000 196.9666
     99    1 Au   79      6.221000      5.714000     32.450000  11.0000 196.9666
    100    1 Au   79      7.699000      4.236000     34.540000  11.0000 196.9666
    101    1 Au   79      6.221000      5.714000     36.630000  11.0000 196.9666
    102    1 Au   79      1.787000      7.192000     30.360000  11.0000 196.9666
    103    1 Au   79      0.309000      8.670000     32.450000  11.0000 196.9666
    104    1 Au   79      1.787000      7.192000     34.540000  11.0000 196.9666
    105    1 Au   79      0.309000      8.670000     36.630000  11.0000 196.9666
    106    1 Au   79      4.743000      7.192000     30.360000  11.0000 196.9666
    107    1 Au   79      3.265000      8.670000     32.450000  11.0000 196.9666
    108    1 Au   79      4.743000      7.192000     34.540000  11.0000 196.9666
    109    1 Au   79      3.265000      8.670000     36.630000  11.0000 196.9666
    110    1 Au   79      7.699000      7.192000     30.360000  11.0000 196.9666
    111    1 Au   79      6.221000      8.670000     32.450000  11.0000 196.9666
    112    1 Au   79      7.699000      7.192000     34.540000  11.0000 196.9666
    113    1 Au   79      6.221000      8.670000     36.630000  11.0000 196.9666



 SCF PARAMETERS         Density guess:                                   RESTART
                        --------------------------------------------------------
                        max_scf:                                             500
                        max_scf_history:                                       0
                        max_diis:                                              4
                        --------------------------------------------------------
                        eps_scf:                                        1.00E-08
                        eps_scf_history:                                0.00E+00
                        eps_diis:                                       1.00E-01
                        eps_eigval:                                     1.00E-05
                        --------------------------------------------------------
                        level_shift [a.u.]:                             0.000000
                        added MOs                                       100    0
                        --------------------------------------------------------
                        Mixing method:                            BROYDEN_MIXING
                                                charge density mixing in g-space
                        --------------------------------------------------------
                        Smear method:                                FERMI_DIRAC
                        Electronic temperature [K]:                        300.0
                        Electronic temperature [a.u.]:                  9.50E-04
                        Accuracy threshold:                             1.00E-10
                        --------------------------------------------------------
                        No outer SCF

 PW_GRID| Information for grid number                                          1
 PW_GRID| Grid distributed over                                    64 processors
 PW_GRID| Real space group dimensions                                    64    1
 PW_GRID| the grid is blocked:                                                NO
 PW_GRID| Cutoff [a.u.]                                                    300.0
 PW_GRID| spherical cutoff:                                                   NO
 PW_GRID|   Bounds   1            -66      65                Points:         132
 PW_GRID|   Bounds   2            -66      65                Points:         132
 PW_GRID|   Bounds   3           -288     287                Points:         576
 PW_GRID| Volume element (a.u.^3)  0.2047E-02     Volume (a.u.^3)     20544.5734
 PW_GRID| Grid span                                                    FULLSPACE
 PW_GRID|   Distribution                         Average         Max         Min
 PW_GRID|   G-Vectors                           156816.0      156816      156816
 PW_GRID|   G-Rays                                1188.0        1188        1188
 PW_GRID|   Real Space Points                   156816.0      228096      152064

 PW_GRID| Information for grid number                                          2
 PW_GRID| Number of the reference grid                                         1
 PW_GRID| Grid distributed over                                    64 processors
 PW_GRID| Real space group dimensions                                    64    1
 PW_GRID| the grid is blocked:                                                NO
 PW_GRID| Cutoff [a.u.]                                                    100.0
 PW_GRID| spherical cutoff:                                                   NO
 PW_GRID|   Bounds   1            -37      37                Points:          75
 PW_GRID|   Bounds   2            -37      37                Points:          75
 PW_GRID|   Bounds   3           -165     164                Points:         330
 PW_GRID| Volume element (a.u.^3)  0.1107E-01     Volume (a.u.^3)     20544.5734
 PW_GRID| Grid span                                                    FULLSPACE
 PW_GRID|   Distribution                         Average         Max         Min
 PW_GRID|   G-Vectors                            29003.9       30300       27525
 PW_GRID|   G-Rays                                 386.7         404         367
 PW_GRID|   Real Space Points                    29003.9       49500       24750

 PW_GRID| Information for grid number                                          3
 PW_GRID| Number of the reference grid                                         1
 PW_GRID| Grid distributed over                                    64 processors
 PW_GRID| Real space group dimensions                                     8    8
 PW_GRID| the grid is blocked:                                                NO
 PW_GRID| Cutoff [a.u.]                                                     33.3
 PW_GRID| spherical cutoff:                                                   NO
 PW_GRID|   Bounds   1            -22      21                Points:          44
 PW_GRID|   Bounds   2            -22      21                Points:          44
 PW_GRID|   Bounds   3            -96      95                Points:         192
 PW_GRID| Volume element (a.u.^3)  0.5527E-01     Volume (a.u.^3)     20544.5734
 PW_GRID| Grid span                                                    FULLSPACE
 PW_GRID|   Distribution                         Average         Max         Min
 PW_GRID|   G-Vectors                             5808.0        6292        5456
 PW_GRID|   G-Rays                                 132.0         143         124
 PW_GRID|   Real Space Points                     5808.0        6912        4800

 PW_GRID| Information for grid number                                          4
 PW_GRID| Number of the reference grid                                         1
 PW_GRID| Grid distributed over                                    64 processors
 PW_GRID| Real space group dimensions                                     8    8
 PW_GRID| the grid is blocked:                                                NO
 PW_GRID| Cutoff [a.u.]                                                     11.1
 PW_GRID| spherical cutoff:                                                   NO
 PW_GRID|   Bounds   1            -12      12                Points:          25
 PW_GRID|   Bounds   2            -12      12                Points:          25
 PW_GRID|   Bounds   3            -55      54                Points:         110
 PW_GRID| Volume element (a.u.^3)  0.2988         Volume (a.u.^3)     20544.5734
 PW_GRID| Grid span                                                    FULLSPACE
 PW_GRID|   Distribution                         Average         Max         Min
 PW_GRID|   G-Vectors                             1074.2        1400         725
 PW_GRID|   G-Rays                                  43.0          56          29
 PW_GRID|   Real Space Points                     1074.2        1760         990

 POISSON| Solver                                                        PERIODIC
 POISSON| Periodicity                                                        XYZ

 RS_GRID| Information for grid number                                          1
 RS_GRID|   Bounds   1            -66      65                Points:         132
 RS_GRID|   Bounds   2            -66      65                Points:         132
 RS_GRID|   Bounds   3           -288     287                Points:         576
 RS_GRID| Real space distribution over                                 64 groups
 RS_GRID| Real space distribution along direction                              3
 RS_GRID| Border size                                                         35
 RS_GRID|   Distribution                         Average         Max         Min
 RS_GRID|   Planes                                  79.0          79          79

 RS_GRID| Information for grid number                                          2
 RS_GRID|   Bounds   1            -37      37                Points:          75
 RS_GRID|   Bounds   2            -37      37                Points:          75
 RS_GRID|   Bounds   3           -165     164                Points:         330
 RS_GRID| Real space distribution over                                 64 groups
 RS_GRID| Real space distribution along direction                              3
 RS_GRID| Border size                                                         24
 RS_GRID|   Distribution                         Average         Max         Min
 RS_GRID|   Planes                                  53.2          54          53

 RS_GRID| Information for grid number                                          3
 RS_GRID|   Bounds   1            -22      21                Points:          44
 RS_GRID|   Bounds   2            -22      21                Points:          44
 RS_GRID|   Bounds   3            -96      95                Points:         192
 RS_GRID| Real space fully replicated
 RS_GRID| Group size                                                           1

 RS_GRID| Information for grid number                                          4
 RS_GRID|   Bounds   1            -12      12                Points:          25
 RS_GRID|   Bounds   2            -12      12                Points:          25
 RS_GRID|   Bounds   3            -55      54                Points:         110
 RS_GRID| Real space fully replicated
 RS_GRID| Group size                                                           1

 KPOINTS| Number of kpoint groups                                              1
 KPOINTS| Size of each kpoint group                                           64
 KPOINTS| Number of kpoints per group                                          9

 BFGS| Use rational function optimization for step estimation:                NO
 BFGS| Use model Hessian for initial guess:                                  YES
 BFGS| Restart Hessian:                                                       NO
 BFGS| Trust radius:                                                       0.472

 *******************************************************************************
 ***                     STARTING GEOMETRY OPTIMIZATION                      ***
 ***                                   BFGS                                  ***
 *******************************************************************************

 Number of electrons:                                                       1223
 Number of occupied orbitals:                                                612
 Number of molecular orbitals:                                               712

 Number of orbital functions:                                               1009
 Number of independent orbital functions:                                   1009

 Extrapolation method: initial_guess


 SCF WAVEFUNCTION OPTIMIZATION

  Step     Update method      Time    Convergence         Total energy    Change
  ------------------------------------------------------------------------------
 SMEAGOL DEBUG| Number of electrons in the unit cell =      1222.9673689821
     1 NoMix/SMGL  0.30E+00   90.6     1.68655714     -3690.6560969546 -3.69E+03
 SMEAGOL DEBUG| Number of electrons in the unit cell =      1223.6320748574
     2 Broy./SMGL  0.30E+00   18.5     8.23029304     -3687.3645302840  3.29E+00
 SMEAGOL DEBUG| Number of electrons in the unit cell =      1221.8892932730
     3 Broy./SMGL  0.30E+00   18.2     8.22474816     -3794.0877724197 -1.07E+02
 SMEAGOL DEBUG| Number of electrons in the unit cell =      1222.5139005432
     4 Broy./SMGL  0.30E+00   18.2     0.42000412     -3698.3886171385  9.57E+01
 SMEAGOL DEBUG| Number of electrons in the unit cell =      1223.1675081006
     5 Broy./SMGL  0.30E+00   18.2     0.10976737     -3682.8812266532  1.55E+01
 SMEAGOL DEBUG| Number of electrons in the unit cell =      1222.8152570061
     6 Broy./SMGL  0.30E+00   18.3     0.03870773     -3687.0816729387 -4.20E+00
 SMEAGOL DEBUG| Number of electrons in the unit cell =      1222.9092593473
     7 Broy./SMGL  0.30E+00   18.2     0.01800636     -3686.2201241115  8.62E-01
 SMEAGOL DEBUG| Number of electrons in the unit cell =      1223.0948567518
     8 Broy./SMGL  0.30E+00   18.2     0.02235934     -3687.1811519585 -9.61E-01
 SMEAGOL DEBUG| Number of electrons in the unit cell =      1223.1143697951
     9 Broy./SMGL  0.30E+00   18.2     0.04867438     -3688.2146478866 -1.03E+00
 SMEAGOL DEBUG| Number of electrons in the unit cell =      1223.1473786919
    10 Broy./SMGL  0.30E+00   18.2     0.01396375     -3689.5738981838 -1.36E+00
 SMEAGOL DEBUG| Number of electrons in the unit cell =      1223.1499680866
    11 Broy./SMGL  0.30E+00   18.2     0.01852323     -3690.4798304224 -9.06E-01
 SMEAGOL DEBUG| Number of electrons in the unit cell =      1223.3491610786
    12 Broy./SMGL  0.30E+00   18.2     0.07407925     -3689.6411479446  8.39E-01
 SMEAGOL DEBUG| Number of electrons in the unit cell =      1223.1801288546
    13 Broy./SMGL  0.30E+00   18.2     0.08146114     -3694.8370051713 -5.20E+00
 SMEAGOL DEBUG| Number of electrons in the unit cell =      1223.1976598729
    14 Broy./SMGL  0.30E+00   18.3     0.02251475     -3689.8293332946  5.01E+00
 SMEAGOL DEBUG| Number of electrons in the unit cell =      1223.1342211734
    15 Broy./SMGL  0.30E+00   18.2     0.03645115     -3691.4022808270 -1.57E+00
 SMEAGOL DEBUG| Number of electrons in the unit cell =      1223.0997232334
    16 Broy./SMGL  0.30E+00   18.2     0.01590816     -3689.5610733657  1.84E+00
 SMEAGOL DEBUG| Number of electrons in the unit cell =      1223.0806155396
    17 Broy./SMGL  0.30E+00   18.2     0.03059046     -3690.6263730736 -1.07E+00
 SMEAGOL DEBUG| Number of electrons in the unit cell =      1223.0554571124
    18 Broy./SMGL  0.30E+00   18.2     0.01669701     -3691.5482240654 -9.22E-01
 SMEAGOL DEBUG| Number of electrons in the unit cell =      1223.0483389291
    19 Broy./SMGL  0.30E+00   18.2     0.00964967     -3690.7047684098  8.43E-01
 SMEAGOL DEBUG| Number of electrons in the unit cell =      1223.0500839569
    20 Broy./SMGL  0.30E+00   18.2     0.00369841     -3690.8890628678 -1.84E-01
 SMEAGOL DEBUG| Number of electrons in the unit cell =      1223.0284649368
    21 Broy./SMGL  0.30E+00   18.2     0.03777539     -3690.9518294238 -6.28E-02
 SMEAGOL DEBUG| Number of electrons in the unit cell =      1223.0173166637
    22 Broy./SMGL  0.30E+00   18.2     0.03467234     -3690.0759757520  8.76E-01
 SMEAGOL DEBUG| Number of electrons in the unit cell =      1223.0128206612
    23 Broy./SMGL  0.30E+00   18.2     0.00549414     -3690.7686620697 -6.93E-01
 SMEAGOL DEBUG| Number of electrons in the unit cell =      1223.0083086925
    24 Broy./SMGL  0.30E+00   18.2     0.00700611     -3690.7357465620  3.29E-02
 SMEAGOL DEBUG| Number of electrons in the unit cell =      1223.0070006348
    25 Broy./SMGL  0.30E+00   18.2     0.00602373     -3690.5560848609  1.80E-01
 SMEAGOL DEBUG| Number of electrons in the unit cell =      1222.9884747869
    26 Broy./SMGL  0.30E+00   18.2     0.02869703     -3690.6827883542 -1.27E-01
 SMEAGOL DEBUG| Number of electrons in the unit cell =      1222.9891657141
    27 Broy./SMGL  0.30E+00   18.2     0.00392793     -3690.0991566800  5.84E-01
 SMEAGOL DEBUG| Number of electrons in the unit cell =      1222.9781436462
    28 Broy./SMGL  0.30E+00   18.2     0.00457692     -3690.1088601439 -9.70E-03
 SMEAGOL DEBUG| Number of electrons in the unit cell =      1222.9688939334
    29 Broy./SMGL  0.30E+00   18.2     0.00521556     -3690.1845174526 -7.57E-02
 SMEAGOL DEBUG| Number of electrons in the unit cell =      1222.9656758255
    30 Broy./SMGL  0.30E+00   18.2     0.00935812     -3690.0687183466  1.16E-01
 SMEAGOL DEBUG| Number of electrons in the unit cell =      1222.9672404354
    31 Broy./SMGL  0.30E+00   18.1     0.00616071     -3690.3646627614 -2.96E-01
 SMEAGOL DEBUG| Number of electrons in the unit cell =      1222.9667535284
    32 Broy./SMGL  0.30E+00   18.2     0.00564853     -3690.2343399385  1.30E-01
 SMEAGOL DEBUG| Number of electrons in the unit cell =      1222.9683151951
    33 Broy./SMGL  0.30E+00   18.2     0.00155300     -3690.3904598935 -1.56E-01
 SMEAGOL DEBUG| Number of electrons in the unit cell =      1222.9677654756
    34 Broy./SMGL  0.30E+00   18.2     0.00173169     -3690.3459811598  4.45E-02
 SMEAGOL DEBUG| Number of electrons in the unit cell =      1222.9696445004
    35 Broy./SMGL  0.30E+00   18.2     0.01162583     -3690.2692740179  7.67E-02
 SMEAGOL DEBUG| Number of electrons in the unit cell =      1222.9758752984
    36 Broy./SMGL  0.30E+00   18.2     0.01715739     -3689.8741684615  3.95E-01
 SMEAGOL DEBUG| Number of electrons in the unit cell =      1222.9672985719
    37 Broy./SMGL  0.30E+00   18.2     0.00422428     -3690.3711472847 -4.97E-01
 SMEAGOL DEBUG| Number of electrons in the unit cell =      1222.9660478047
    38 Broy./SMGL  0.30E+00   18.2     0.01281052     -3690.4195847345 -4.84E-02
 SMEAGOL DEBUG| Number of electrons in the unit cell =      1222.9640664879
    39 Broy./SMGL  0.30E+00   18.2     0.00128848     -3690.7597951115 -3.40E-01
 SMEAGOL DEBUG| Number of electrons in the unit cell =      1222.9641368690
    40 Broy./SMGL  0.30E+00   18.2     0.00545764     -3690.7331339148  2.67E-02
 SMEAGOL DEBUG| Number of electrons in the unit cell =      1222.9634767597
    41 Broy./SMGL  0.30E+00   18.2     0.01042152     -3690.6062256484  1.27E-01
 SMEAGOL DEBUG| Number of electrons in the unit cell =      1222.9655587538
    42 Broy./SMGL  0.30E+00   18.2     0.01960899     -3690.4039755674  2.02E-01
 SMEAGOL DEBUG| Number of electrons in the unit cell =      1222.9700822432
    43 Broy./SMGL  0.30E+00   18.2     0.00687213     -3690.6185519138 -2.15E-01
 SMEAGOL DEBUG| Number of electrons in the unit cell =      1222.9706016897
    44 Broy./SMGL  0.30E+00   18.2     0.00185312     -3690.4202637228  1.98E-01
 SMEAGOL DEBUG| Number of electrons in the unit cell =      1222.9652337589
    45 Broy./SMGL  0.30E+00   18.2     0.02234987     -3690.3548759811  6.54E-02
 SMEAGOL DEBUG| Number of electrons in the unit cell =      1222.9616549059
    46 Broy./SMGL  0.30E+00   18.2     0.02633704     -3690.1142732080  2.41E-01
 SMEAGOL DEBUG| Number of electrons in the unit cell =      1222.9659962672
    47 Broy./SMGL  0.30E+00   18.2     0.02768900     -3690.5712697091 -4.57E-01
 SMEAGOL DEBUG| Number of electrons in the unit cell =      1222.9635885668
    48 Broy./SMGL  0.30E+00   18.3     0.02281302     -3690.1221204212  4.49E-01
 SMEAGOL DEBUG| Number of electrons in the unit cell =      1222.9619943052
    49 Broy./SMGL  0.30E+00   18.2     0.01364161     -3690.5244293999 -4.02E-01
 SMEAGOL DEBUG| Number of electrons in the unit cell =      1222.9622092409
    50 Broy./SMGL  0.30E+00   18.2     0.00713056     -3690.3518353525  1.73E-01
 SMEAGOL DEBUG| Number of electrons in the unit cell =      1222.9613845997
    51 Broy./SMGL  0.30E+00   18.2     0.00472694     -3690.4712977205 -1.19E-01
 SMEAGOL DEBUG| Number of electrons in the unit cell =      1222.9612082880
    52 Broy./SMGL  0.30E+00   18.2     0.00070267     -3690.5887165581 -1.17E-01
 SMEAGOL DEBUG| Number of electrons in the unit cell =      1222.9601722679
    53 Broy./SMGL  0.30E+00   18.1     0.00201780     -3690.6136631787 -2.49E-02
 SMEAGOL DEBUG| Number of electrons in the unit cell =      1222.9602055303
    54 Broy./SMGL  0.30E+00   18.2     0.00346689     -3690.5795847319  3.41E-02
 SMEAGOL DEBUG| Number of electrons in the unit cell =      1222.9605659662
    55 Broy./SMGL  0.30E+00   18.2     0.01042616     -3690.4993056238  8.03E-02
 SMEAGOL DEBUG| Number of electrons in the unit cell =      1222.9603743973
    56 Broy./SMGL  0.30E+00   18.2     0.00398724     -3690.7332883664 -2.34E-01
 SMEAGOL DEBUG| Number of electrons in the unit cell =      1222.9604851616
    57 Broy./SMGL  0.30E+00   18.2     0.00178511     -3690.6529093912  8.04E-02
 SMEAGOL DEBUG| Number of electrons in the unit cell =      1222.9597255158
    58 Broy./SMGL  0.30E+00   18.2     0.00149245     -3690.6088259785  4.41E-02
 SMEAGOL DEBUG| Number of electrons in the unit cell =      1222.9601086720
    59 Broy./SMGL  0.30E+00   18.2     0.00112110     -3690.5765572905  3.23E-02
 SMEAGOL DEBUG| Number of electrons in the unit cell =      1222.9598675526
    60 Broy./SMGL  0.30E+00   18.2     0.00053336     -3690.6069674501 -3.04E-02
 SMEAGOL DEBUG| Number of electrons in the unit cell =      1222.9598694172
    61 Broy./SMGL  0.30E+00   18.2     0.00046935     -3690.6145631252 -7.60E-03
 SMEAGOL DEBUG| Number of electrons in the unit cell =      1222.9597354694
    62 Broy./SMGL  0.30E+00   18.2     0.00127365     -3690.6035294234  1.10E-02
 SMEAGOL DEBUG| Number of electrons in the unit cell =      1222.9596934682
    63 Broy./SMGL  0.30E+00   18.2     0.00007867     -3690.5727931067  3.07E-02
 SMEAGOL DEBUG| Number of electrons in the unit cell =      1222.9598950151
    64 Broy./SMGL  0.30E+00   18.2     0.00160138     -3690.5740494671 -1.26E-03
 SMEAGOL DEBUG| Number of electrons in the unit cell =      1222.9599498144
    65 Broy./SMGL  0.30E+00   18.2     0.00034363     -3690.6083814279 -3.43E-02
 SMEAGOL DEBUG| Number of electrons in the unit cell =      1222.9599170634
    66 Broy./SMGL  0.30E+00   18.2     0.00017788     -3690.5979036742  1.05E-02
 SMEAGOL DEBUG| Number of electrons in the unit cell =      1222.9600204541
    67 Broy./SMGL  0.30E+00   18.2     0.00078253     -3690.5920584800  5.85E-03
 SMEAGOL DEBUG| Number of electrons in the unit cell =      1222.9601576836
    68 Broy./SMGL  0.30E+00   18.2     0.00019784     -3690.5708247492  2.12E-02
 SMEAGOL DEBUG| Number of electrons in the unit cell =      1222.9601458787
    69 Broy./SMGL  0.30E+00   18.2     0.00027247     -3690.5744506362 -3.63E-03
 SMEAGOL DEBUG| Number of electrons in the unit cell =      1222.9602877822
    70 Broy./SMGL  0.30E+00   18.2     0.00013469     -3690.5804033357 -5.95E-03
 SMEAGOL DEBUG| Number of electrons in the unit cell =      1222.9603552239
    71 Broy./SMGL  0.30E+00   18.2     0.00003313     -3690.5771044792  3.30E-03
 SMEAGOL DEBUG| Number of electrons in the unit cell =      1222.9604861704
    72 Broy./SMGL  0.30E+00   18.2     0.00015511     -3690.5778256473 -7.21E-04
 SMEAGOL DEBUG| Number of electrons in the unit cell =      1222.9605694732
    73 Broy./SMGL  0.30E+00   18.2     0.00001548     -3690.5817399511 -3.91E-03
 SMEAGOL DEBUG| Number of electrons in the unit cell =      1222.9606438708
    74 Broy./SMGL  0.30E+00   18.2     0.00000626     -3690.5818517929 -1.12E-04
 SMEAGOL DEBUG| Number of electrons in the unit cell =      1222.9606882551
    75 Broy./SMGL  0.30E+00   18.2     0.00001517     -3690.5817698135  8.20E-05
 SMEAGOL DEBUG| Number of electrons in the unit cell =      1222.9607460968
    76 Broy./SMGL  0.30E+00   18.2     0.00005616     -3690.5814051662  3.65E-04
 SMEAGOL DEBUG| Number of electrons in the unit cell =      1222.9607412059
    77 Broy./SMGL  0.30E+00   18.2     0.00002529     -3690.5828023922 -1.40E-03
 SMEAGOL DEBUG| Number of electrons in the unit cell =      1222.9607170203
    78 Broy./SMGL  0.30E+00   18.2     0.00001803     -3690.5819432113  8.59E-04
 SMEAGOL DEBUG| Number of electrons in the unit cell =      1222.9607108889
    79 Broy./SMGL  0.30E+00   18.2     0.00005097     -3690.5819492909 -6.08E-06
 SMEAGOL DEBUG| Number of electrons in the unit cell =      1222.9606977538
    80 Broy./SMGL  0.30E+00   18.2     0.00004204     -3690.5809506377  9.99E-04
 SMEAGOL DEBUG| Number of electrons in the unit cell =      1222.9607453304
    81 Broy./SMGL  0.30E+00   18.2     0.00001340     -3690.5800337595  9.17E-04
 SMEAGOL DEBUG| Number of electrons in the unit cell =      1222.9607952400
    82 Broy./SMGL  0.30E+00   18.2     0.00001306     -3690.5803972026 -3.63E-04
 SMEAGOL DEBUG| Number of electrons in the unit cell =      1222.9607878116
    83 Broy./SMGL  0.30E+00   18.2     0.00006780     -3690.5802313421  1.66E-04
 SMEAGOL DEBUG| Number of electrons in the unit cell =      1222.9607875681
    84 Broy./SMGL  0.30E+00   18.2     0.00000590     -3690.5786081377  1.62E-03
 SMEAGOL DEBUG| Number of electrons in the unit cell =      1222.9607822019
    85 Broy./SMGL  0.30E+00   18.2     0.00001647     -3690.5786622446 -5.41E-05
 SMEAGOL DEBUG| Number of electrons in the unit cell =      1222.9607744023
    86 Broy./SMGL  0.30E+00   18.2     0.00001791     -3690.5790440916 -3.82E-04
 SMEAGOL DEBUG| Number of electrons in the unit cell =      1222.9607719063
    87 Broy./SMGL  0.30E+00   18.2     0.00000099     -3690.5786161349  4.28E-04
 SMEAGOL DEBUG| Number of electrons in the unit cell =      1222.9607685176
    88 Broy./SMGL  0.30E+00   18.2     0.00000623     -3690.5786369922 -2.09E-05
 SMEAGOL DEBUG| Number of electrons in the unit cell =      1222.9607721588
    89 Broy./SMGL  0.30E+00   18.2     0.00000309     -3690.5784889138  1.48E-04
 SMEAGOL DEBUG| Number of electrons in the unit cell =      1222.9607735625
    90 Broy./SMGL  0.30E+00   18.2     0.00000359     -3690.5785682295 -7.93E-05
 SMEAGOL DEBUG| Number of electrons in the unit cell =      1222.9607767068
    91 Broy./SMGL  0.30E+00   18.1     0.00000432     -3690.5786470143 -7.88E-05
 SMEAGOL DEBUG| Number of electrons in the unit cell =      1222.9607787744
    92 Broy./SMGL  0.30E+00   18.2     0.00000050     -3690.5785491818  9.78E-05
 SMEAGOL DEBUG| Number of electrons in the unit cell =      1222.9607819431
    93 Broy./SMGL  0.30E+00   18.2     0.00000182     -3690.5785605546 -1.14E-05
 SMEAGOL DEBUG| Number of electrons in the unit cell =      1222.9607832813
    94 Broy./SMGL  0.30E+00   18.2     0.00000013     -3690.5785187303  4.18E-05
 SMEAGOL DEBUG| Number of electrons in the unit cell =      1222.9607835125
    95 Broy./SMGL  0.30E+00   18.2     0.00000103     -3690.5785225704 -3.84E-06
 SMEAGOL DEBUG| Number of electrons in the unit cell =      1222.9607840860
    96 Broy./SMGL  0.30E+00   18.2     0.00000049     -3690.5784977319  2.48E-05
 SMEAGOL DEBUG| Number of electrons in the unit cell =      1222.9607841007
    97 Broy./SMGL  0.30E+00   18.2     0.00000014     -3690.5785114033 -1.37E-05
 SMEAGOL DEBUG| Number of electrons in the unit cell =      1222.9607837802
    98 Broy./SMGL  0.30E+00   18.2     0.00000011     -3690.5785105041  8.99E-07
 SMEAGOL DEBUG| Number of electrons in the unit cell =      1222.9607840351
    99 Broy./SMGL  0.30E+00   18.2     0.00000048     -3690.5785138134 -3.31E-06
 SMEAGOL DEBUG| Number of electrons in the unit cell =      1222.9607840623
   100 Broy./SMGL  0.30E+00   18.2     0.00000022     -3690.5785240697 -1.03E-05
 SMEAGOL DEBUG| Number of electrons in the unit cell =      1222.9607839335
   101 Broy./SMGL  0.30E+00   18.2     0.00000004     -3690.5785186152  5.45E-06
 SMEAGOL DEBUG| Number of electrons in the unit cell =      1222.9607841074
   102 Broy./SMGL  0.30E+00   18.2     0.00000010     -3690.5785175822  1.03E-06
 SMEAGOL DEBUG| Number of electrons in the unit cell =      1222.9607841378
   103 Broy./SMGL  0.30E+00   18.2     0.00000006     -3690.5785150766  2.51E-06
 SMEAGOL DEBUG| Number of electrons in the unit cell =      1222.9607839799
   104 Broy./SMGL  0.30E+00   18.2     0.00000011     -3690.5785135365  1.54E-06
 SMEAGOL DEBUG| Number of electrons in the unit cell =      1222.9607840000
   105 Broy./SMGL  0.30E+00   18.2     0.00000006     -3690.5785159642 -2.43E-06
 SMEAGOL DEBUG| Number of electrons in the unit cell =      1222.9607840634
   106 Broy./SMGL  0.30E+00   18.2     0.00000046     -3690.5785145853  1.38E-06
 SMEAGOL DEBUG| Number of electrons in the unit cell =      1222.9607845110
   107 Broy./SMGL  0.30E+00   18.2     0.00000065     -3690.5785238569 -9.27E-06
 SMEAGOL DEBUG| Number of electrons in the unit cell =      1222.9607846246
   108 Broy./SMGL  0.30E+00   18.2     0.00000016     -3690.5785370899 -1.32E-05
 SMEAGOL DEBUG| Number of electrons in the unit cell =      1222.9607846808
   109 Broy./SMGL  0.30E+00   18.2     0.00000007     -3690.5785401715 -3.08E-06
 SMEAGOL DEBUG| Number of electrons in the unit cell =      1222.9607844805
   110 Broy./SMGL  0.30E+00   18.2     0.00000034     -3690.5785413801 -1.21E-06
 SMEAGOL DEBUG| Number of electrons in the unit cell =      1222.9607843820
   111 Broy./SMGL  0.30E+00   18.2     0.00000015     -3690.5785340237  7.36E-06
 SMEAGOL DEBUG| Number of electrons in the unit cell =      1222.9607842689
   112 Broy./SMGL  0.30E+00   18.2     0.00000018     -3690.5785373969 -3.37E-06
 SMEAGOL DEBUG| Number of electrons in the unit cell =      1222.9607841282
   113 Broy./SMGL  0.30E+00   18.2     9.1834E-09     -3690.5785333917  4.01E-06

  *** SCF run converged in   113 steps ***


  Electronic density on regular grids:      -1222.9607841282        0.0392158718
  Core density on regular grids:             1222.9999997993       -0.0000002007
  Total charge density on r-space grids:        0.0392156712
  Total charge density g-space grids:           0.0392156712

  Overlap energy of the core charge distribution:               0.00000053410942
  Self energy of the core charge distribution:              -6424.54153828207382
  Core Hamiltonian energy:                                   2052.66222817787411
  Hartree energy:                                            1264.70767115615490
  Exchange-correlation energy:                               -583.40689497778033
  Electronic entropic energy:                                   0.00000000000000
  Fermi energy:                                                 0.00000000000000

  Total energy:                                             -3690.57853339171470

 The electron density is written in cube file format to the file:

 V-ELECTRON_DENSITY-1_0.cube

 !-----------------------------------------------------------------------------!
                     Mulliken Population Analysis

 #  Atom  Element  Kind  Atomic population                           Net charge
       1     Au       1         11.000099                             -0.000099
       2     Au       1         10.999265                              0.000735
       3     Au       1         10.987834                              0.012166
       4     Au       1         10.988376                              0.011624
       5     Au       1         11.000161                             -0.000161
       6     Au       1         10.999489                              0.000511
       7     Au       1         10.987669                              0.012331
       8     Au       1         10.981127                              0.018873
       9     Au       1         10.999915                              0.000085
      10     Au       1         10.999457                              0.000543
      11     Au       1         10.989528                              0.010472
      12     Au       1         10.988076                              0.011924
      13     Au       1         10.999859                              0.000141
      14     Au       1         10.999441                              0.000559
      15     Au       1         10.987654                              0.012346
      16     Au       1         10.981101                              0.018899
      17     Au       1         10.999920                              0.000080
      18     Au       1         10.999776                              0.000224
      19     Au       1         10.987627                              0.012373
      20     Au       1         10.976922                              0.023078
      21     Au       1         10.999675                              0.000325
      22     Au       1         10.999635                              0.000365
      23     Au       1         10.987409                              0.012591
      24     Au       1         10.981453                              0.018547
      25     Au       1         11.000144                             -0.000144
      26     Au       1         10.999576                              0.000424
      27     Au       1         10.987848                              0.012152
      28     Au       1         10.988233                              0.011767
      29     Au       1         11.000205                             -0.000205
      30     Au       1         10.999801                              0.000199
      31     Au       1         10.987864                              0.012136
      32     Au       1         10.981670                              0.018330
      33     Au       1         10.999960                              0.000040
      34     Au       1         10.999771                              0.000229
      35     Au       1         10.987471                              0.012529
      36     Au       1         10.988417                              0.011583
      37     Au       1         10.986149                              0.013851
      38     Au       1         10.947426                              0.052574
      39     Au       1         10.947399                              0.052601
      40     Au       1         10.987096                              0.012904
      41     Au       1         10.947124                              0.052876
      42     Au       1         10.947687                              0.052313
      43     Au       1         11.016277                             -0.016277
      44     Au       1         10.985702                              0.014298
      45     Au       1         10.986801                              0.013199
      46     Au       1         11.083921                             -0.083921
      47     Au       1         11.029090                             -0.029090
      48     Au       1         11.084185                             -0.084185
      49     Au       1         11.029219                             -0.029219
      50     Au       1         10.884179                              0.115821
      51     Au       1         11.030846                             -0.030846
      52     Au       1         11.084113                             -0.084113
      53     Au       1         11.030491                             -0.030491
      54     Au       1         11.083956                             -0.083956
      55     Au       1         11.024549                             -0.024549
      56     Au       1         11.020190                             -0.020190
      57     Au       1         11.019814                             -0.019814
      58     Au       1         11.014844                             -0.014844
      59     Au       1         11.107119                             -0.107119
      60     Au       1         11.049348                             -0.049348
      61     H        2          0.953442                              0.046558
      62     H        2          0.959276                              0.040724
      63     Au       1         11.070385                             -0.070385
      64     Au       1         11.168586                             -0.168586
      65     Au       1         11.006584                             -0.006584
      66     Au       1         11.007843                             -0.007843
      67     Au       1         11.007886                             -0.007886
      68     Au       1         11.010729                             -0.010729
      69     Au       1         11.026409                             -0.026409
      70     Au       1         10.986778                              0.013222
      71     Au       1         11.027279                             -0.027279
      72     Au       1         10.986992                              0.013008
      73     Au       1         10.871985                              0.128015
      74     Au       1         10.988956                              0.011044
      75     Au       1         11.027177                             -0.027177
      76     Au       1         10.988594                              0.011406
      77     Au       1         11.027983                             -0.027983
      78     Au       1         10.999830                              0.000170
      79     Au       1         10.987526                              0.012474
      80     Au       1         10.999969                              0.000031
      81     Au       1         10.999680                              0.000320
      82     Au       1         10.999698                              0.000302
      83     Au       1         10.987281                              0.012719
      84     Au       1         11.000053                             -0.000053
      85     Au       1         10.999927                              0.000073
      86     Au       1         11.023175                             -0.023175
      87     Au       1         10.987028                              0.012972
      88     Au       1         10.999937                              0.000063
      89     Au       1         10.999865                              0.000135
      90     Au       1         10.966352                              0.033648
      91     Au       1         10.987226                              0.012774
      92     Au       1         10.999681                              0.000319
      93     Au       1         10.999879                              0.000121
      94     Au       1         10.965930                              0.034070
      95     Au       1         10.991835                              0.008165
      96     Au       1         10.999749                              0.000251
      97     Au       1         11.000127                             -0.000127
      98     Au       1         10.999408                              0.000592
      99     Au       1         10.987252                              0.012748
     100     Au       1         10.999544                              0.000456
     101     Au       1         11.000063                             -0.000063
     102     Au       1         10.966200                              0.033800
     103     Au       1         10.987176                              0.012824
     104     Au       1         10.999972                              0.000028
     105     Au       1         10.999984                              0.000016
     106     Au       1         10.965786                              0.034214
     107     Au       1         10.987430                              0.012570
     108     Au       1         11.000040                             -0.000040
     109     Au       1         11.000230                             -0.000230
     110     Au       1         10.999513                              0.000487
     111     Au       1         10.986583                              0.013417
     112     Au       1         10.999852                              0.000148
     113     Au       1         11.000168                             -0.000168
 # Total charge                           1222.960785                  0.039215

 !-----------------------------------------------------------------------------!

 !-----------------------------------------------------------------------------!
                           Hirshfeld Charges

  #Atom  Element  Kind  Ref Charge     Population                    Net charge
      1       Au     1      11.000         11.000                        -0.000
      2       Au     1      11.000         11.000                         0.000
      3       Au     1      11.000         10.999                         0.001
      4       Au     1      11.000         10.993                         0.007
      5       Au     1      11.000         11.000                        -0.000
      6       Au     1      11.000         11.000                         0.000
      7       Au     1      11.000         10.999                         0.001
      8       Au     1      11.000         10.996                         0.004
      9       Au     1      11.000         11.000                         0.000
     10       Au     1      11.000         11.000                         0.000
     11       Au     1      11.000         11.000                         0.000
     12       Au     1      11.000         10.992                         0.008
     13       Au     1      11.000         11.000                         0.000
     14       Au     1      11.000         11.000                         0.000
     15       Au     1      11.000         10.999                         0.001
     16       Au     1      11.000         10.996                         0.004
     17       Au     1      11.000         11.000                         0.000
     18       Au     1      11.000         11.000                        -0.000
     19       Au     1      11.000         10.999                         0.001
     20       Au     1      11.000         10.993                         0.007
     21       Au     1      11.000         11.000                         0.000
     22       Au     1      11.000         11.000                        -0.000
     23       Au     1      11.000         10.999                         0.001
     24       Au     1      11.000         10.996                         0.004
     25       Au     1      11.000         11.000                        -0.000
     26       Au     1      11.000         11.000                         0.000
     27       Au     1      11.000         10.999                         0.001
     28       Au     1      11.000         10.992                         0.008
     29       Au     1      11.000         11.000                        -0.000
     30       Au     1      11.000         11.000                        -0.000
     31       Au     1      11.000         10.999                         0.001
     32       Au     1      11.000         10.996                         0.004
     33       Au     1      11.000         11.000                         0.000
     34       Au     1      11.000         11.000                        -0.000
     35       Au     1      11.000         10.999                         0.001
     36       Au     1      11.000         10.992                         0.008
     37       Au     1      11.000         10.992                         0.008
     38       Au     1      11.000         10.995                         0.005
     39       Au     1      11.000         10.997                         0.003
     40       Au     1      11.000         10.994                         0.006
     41       Au     1      11.000         10.997                         0.003
     42       Au     1      11.000         10.996                         0.004
     43       Au     1      11.000         10.991                         0.009
     44       Au     1      11.000         10.992                         0.008
     45       Au     1      11.000         10.994                         0.006
     46       Au     1      11.000         11.032                        -0.032
     47       Au     1      11.000         11.012                        -0.012
     48       Au     1      11.000         11.034                        -0.034
[...]
    82 Broy./SMGL  0.30E+00   18.2     0.01802941     -3689.6007868110 -1.87E-01
 SMEAGOL DEBUG| Number of electrons in the unit cell =      1222.9622065439
    83 Broy./SMGL  0.30E+00   18.2     0.00319021     -3689.3013171223  2.99E-01
 SMEAGOL DEBUG| Number of electrons in the unit cell =      1222.9619254414
    84 Broy./SMGL  0.30E+00   18.3     0.00241309     -3689.2525067166  4.88E-02
 SMEAGOL DEBUG| Number of electrons in the unit cell =      1222.9619908718
    85 Broy./SMGL  0.30E+00   18.2     0.00239810     -3689.3053769076 -5.29E-02
 SMEAGOL DEBUG| Number of electrons in the unit cell =      1222.9647801263
    86 Broy./SMGL  0.30E+00   18.3     0.01181797     -3689.2765917789  2.88E-02
 SMEAGOL DEBUG| Number of electrons in the unit cell =      1222.9693426228
    87 Broy./SMGL  0.30E+00   18.2     0.01612078     -3689.4868197860 -2.10E-01
 SMEAGOL DEBUG| Number of electrons in the unit cell =      1222.9728276965
    88 Broy./SMGL  0.30E+00   18.2     0.03326082     -3689.3774457294  1.09E-01
 SMEAGOL DEBUG| Number of electrons in the unit cell =      1222.9748290728
    89 Broy./SMGL  0.30E+00   18.2     0.03903252     -3690.0088717917 -6.31E-01
 SMEAGOL DEBUG| Number of electrons in the unit cell =      1222.9634139725
    90 Broy./SMGL  0.30E+00   18.2     0.01823387     -3690.9049922819 -8.96E-01
 SMEAGOL DEBUG| Number of electrons in the unit cell =      1222.9638601399
    91 Broy./SMGL  0.30E+00   18.2     0.00905788     -3690.2862307629  6.19E-01
 SMEAGOL DEBUG| Number of electrons in the unit cell =      1222.9630645075
    92 Broy./SMGL  0.30E+00   18.3     0.06845105     -3690.6239344980 -3.38E-01
 SMEAGOL DEBUG| Number of electrons in the unit cell =      1222.9634391256
    93 Broy./SMGL  0.30E+00   18.2     0.08706494     -3688.9048123771  1.72E+00
 SMEAGOL DEBUG| Number of electrons in the unit cell =      1222.9578467049
    94 Broy./SMGL  0.30E+00   18.2     0.07876844     -3689.7955873384 -8.91E-01
 SMEAGOL DEBUG| Number of electrons in the unit cell =      1222.9657565406
    95 Broy./SMGL  0.30E+00   18.3     0.02472034     -3688.2162387263  1.58E+00
 SMEAGOL DEBUG| Number of electrons in the unit cell =      1222.9630902187
    96 Broy./SMGL  0.30E+00   18.2     0.07561080     -3689.0783036170 -8.62E-01
 SMEAGOL DEBUG| Number of electrons in the unit cell =      1222.9577521796
    97 Broy./SMGL  0.30E+00   18.3     0.01509383     -3690.8994624123 -1.82E+00
 SMEAGOL DEBUG| Number of electrons in the unit cell =      1222.9586446636
    98 Broy./SMGL  0.30E+00   18.2     0.00178738     -3690.5294848113  3.70E-01
 SMEAGOL DEBUG| Number of electrons in the unit cell =      1222.9576530825
    99 Broy./SMGL  0.30E+00   18.2     0.00106516     -3690.4527410623  7.67E-02
 SMEAGOL DEBUG| Number of electrons in the unit cell =      1222.9594444075
   100 Broy./SMGL  0.30E+00   18.2     0.00421561     -3690.4393005844  1.34E-02
 SMEAGOL DEBUG| Number of electrons in the unit cell =      1222.9590869075
   101 Broy./SMGL  0.30E+00   18.2     0.00154681     -3690.2262865386  2.13E-01
 SMEAGOL DEBUG| Number of electrons in the unit cell =      1222.9584527200
   102 Broy./SMGL  0.30E+00   18.2     0.00903265     -3690.2746877220 -4.84E-02
 SMEAGOL DEBUG| Number of electrons in the unit cell =      1222.9583153741
   103 Broy./SMGL  0.30E+00   18.3     0.00411462     -3690.2006406319  7.40E-02
 SMEAGOL DEBUG| Number of electrons in the unit cell =      1222.9569397145
   104 Broy./SMGL  0.30E+00   18.2     0.00996668     -3690.1301900568  7.05E-02
 SMEAGOL DEBUG| Number of electrons in the unit cell =      1222.9565997926
   105 Broy./SMGL  0.30E+00   18.2     0.00409141     -3689.9590988144  1.71E-01
 SMEAGOL DEBUG| Number of electrons in the unit cell =      1222.9569677325
   106 Broy./SMGL  0.30E+00   18.2     0.00672187     -3690.0644966904 -1.05E-01
 SMEAGOL DEBUG| Number of electrons in the unit cell =      1222.9572487852
   107 Broy./SMGL  0.30E+00   18.3     0.00148041     -3689.8889099919  1.76E-01
 SMEAGOL DEBUG| Number of electrons in the unit cell =      1222.9571647805
   108 Broy./SMGL  0.30E+00   18.3     0.00057500     -3689.9338511124 -4.49E-02
 SMEAGOL DEBUG| Number of electrons in the unit cell =      1222.9561703844
   109 Broy./SMGL  0.30E+00   18.3     0.00602913     -3689.9546323324 -2.08E-02
 SMEAGOL DEBUG| Number of electrons in the unit cell =      1222.9567822891
   110 Broy./SMGL  0.30E+00   18.2     0.00632575     -3689.7735129889  1.81E-01
 SMEAGOL DEBUG| Number of electrons in the unit cell =      1222.9563685471
   111 Broy./SMGL  0.30E+00   18.3     0.01568267     -3689.4765309215  2.97E-01
 SMEAGOL DEBUG| Number of electrons in the unit cell =      1222.9554807169
   112 Broy./SMGL  0.30E+00   18.3     0.00161733     -3690.1059674343 -6.29E-01
 SMEAGOL DEBUG| Number of electrons in the unit cell =      1222.9553446007
   113 Broy./SMGL  0.30E+00   18.3     0.00153289     -3690.0757890280  3.02E-02
 SMEAGOL DEBUG| Number of electrons in the unit cell =      1222.9562423552
   114 Broy./SMGL  0.30E+00   18.3     0.00231361     -3690.0902327185 -1.44E-02
 SMEAGOL DEBUG| Number of electrons in the unit cell =      1222.9564467525
   115 Broy./SMGL  0.30E+00   18.2     0.00138549     -3690.1130615426 -2.28E-02
 SMEAGOL DEBUG| Number of electrons in the unit cell =      1222.9559672475
   116 Broy./SMGL  0.30E+00   18.2     0.00732050     -3690.1136993866 -6.38E-04
 SMEAGOL DEBUG| Number of electrons in the unit cell =      1222.9569515022
   117 Broy./SMGL  0.30E+00   18.3     0.00092024     -3690.3260085251 -2.12E-01
 SMEAGOL DEBUG| Number of electrons in the unit cell =      1222.9565358405
   118 Broy./SMGL  0.30E+00   18.2     0.00160950     -3690.3545101159 -2.85E-02
 SMEAGOL DEBUG| Number of electrons in the unit cell =      1222.9569807255
   119 Broy./SMGL  0.30E+00   18.3     0.00646940     -3690.4163495617 -6.18E-02
 SMEAGOL DEBUG| Number of electrons in the unit cell =      1222.9572523026
   120 Broy./SMGL  0.30E+00   18.3     0.00594871     -3690.2902866080  1.26E-01
 SMEAGOL DEBUG| Number of electrons in the unit cell =      1222.9574766053
   121 Broy./SMGL  0.30E+00   18.2     0.00727027     -3690.3776427758 -8.74E-02
 SMEAGOL DEBUG| Number of electrons in the unit cell =      1222.9579504546
   122 Broy./SMGL  0.30E+00   18.2     0.02324363     -3689.9444544644  4.33E-01
 SMEAGOL DEBUG| Number of electrons in the unit cell =      1222.9578966079
   123 Broy./SMGL  0.30E+00   18.2     0.01216744     -3688.8982601005  1.05E+00
 SMEAGOL DEBUG| Number of electrons in the unit cell =      1222.9576370676
   124 Broy./SMGL  0.30E+00   18.2     0.00828063     -3689.3167223675 -4.18E-01
 SMEAGOL DEBUG| Number of electrons in the unit cell =      1222.9575942355
   125 Broy./SMGL  0.30E+00   18.3     0.00241464     -3689.4775913713 -1.61E-01
 SMEAGOL DEBUG| Number of electrons in the unit cell =      1222.9563000039
   126 Broy./SMGL  0.30E+00   18.3     0.00275429     -3689.4580248406  1.96E-02
 SMEAGOL DEBUG| Number of electrons in the unit cell =      1222.9557648940
   127 Broy./SMGL  0.30E+00   18.2     0.00424609     -3689.5591776750 -1.01E-01
 SMEAGOL DEBUG| Number of electrons in the unit cell =      1222.9570179773
   128 Broy./SMGL  0.30E+00   18.2     0.00718976     -3689.6324483566 -7.33E-02
 SMEAGOL DEBUG| Number of electrons in the unit cell =      1222.9583292065
   129 Broy./SMGL  0.30E+00   18.2     0.01592695     -3689.4331490628  1.99E-01
 SMEAGOL DEBUG| Number of electrons in the unit cell =      1222.9572997032
   130 Broy./SMGL  0.30E+00   18.2     0.00319660     -3690.3344965860 -9.01E-01
 SMEAGOL DEBUG| Number of electrons in the unit cell =      1222.9589955450
   131 Broy./SMGL  0.30E+00   18.2     0.01179229     -3690.1714348982  1.63E-01
 SMEAGOL DEBUG| Number of electrons in the unit cell =      1222.9583390350
   132 Broy./SMGL  0.30E+00   18.2     0.01209810     -3689.5196419886  6.52E-01
 SMEAGOL DEBUG| Number of electrons in the unit cell =      1222.9595140109
   133 Broy./SMGL  0.30E+00   18.2     0.00282522     -3690.1382735239 -6.19E-01
 SMEAGOL DEBUG| Number of electrons in the unit cell =      1222.9590011545
   134 Broy./SMGL  0.30E+00   18.3     0.00467323     -3690.2248217519 -8.65E-02
 SMEAGOL DEBUG| Number of electrons in the unit cell =      1222.9593367881
   135 Broy./SMGL  0.30E+00   18.2     0.00535561     -3690.0183345778  2.06E-01
 SMEAGOL DEBUG| Number of electrons in the unit cell =      1222.9593736312
   136 Broy./SMGL  0.30E+00   18.2     0.01117110     -3689.8928954175  1.25E-01
 SMEAGOL DEBUG| Number of electrons in the unit cell =      1222.9595295636
   137 Broy./SMGL  0.30E+00   18.3     0.00419214     -3689.5191202153  3.74E-01
 SMEAGOL DEBUG| Number of electrons in the unit cell =      1222.9579567458
   138 Broy./SMGL  0.30E+00   18.3     0.01831352     -3689.3720206822  1.47E-01
 SMEAGOL DEBUG| Number of electrons in the unit cell =      1222.9577640572
   139 Broy./SMGL  0.30E+00   18.2     0.00552999     -3690.3148129973 -9.43E-01
 SMEAGOL DEBUG| Number of electrons in the unit cell =      1222.9571410980
   140 Broy./SMGL  0.30E+00   18.2     0.00757013     -3690.2487071310  6.61E-02
 SMEAGOL DEBUG| Number of electrons in the unit cell =      1222.9566006959
   141 Broy./SMGL  0.30E+00   18.1     0.00107982     -3690.4215741956 -1.73E-01
 SMEAGOL DEBUG| Number of electrons in the unit cell =      1222.9565810596
   142 Broy./SMGL  0.30E+00   18.2     0.00006284     -3690.4174707269  4.10E-03
 SMEAGOL DEBUG| Number of electrons in the unit cell =      1222.9575661716
   143 Broy./SMGL  0.30E+00   18.2     0.00142692     -3690.4200235902 -2.55E-03
 SMEAGOL DEBUG| Number of electrons in the unit cell =      1222.9573288447
   144 Broy./SMGL  0.30E+00   18.2     0.00295476     -3690.5103700059 -9.03E-02
 SMEAGOL DEBUG| Number of electrons in the unit cell =      1222.9586638561
   145 Broy./SMGL  0.30E+00   18.2     0.00812137     -3690.4307247964  7.96E-02
 SMEAGOL DEBUG| Number of electrons in the unit cell =      1222.9586465275
   146 Broy./SMGL  0.30E+00   18.2     0.00134417     -3690.0989762837  3.32E-01
 SMEAGOL DEBUG| Number of electrons in the unit cell =      1222.9588782231
   147 Broy./SMGL  0.30E+00   18.1     0.00387933     -3690.0802469593  1.87E-02
 SMEAGOL DEBUG| Number of electrons in the unit cell =      1222.9586515553
   148 Broy./SMGL  0.30E+00   18.1     0.00460928     -3690.2311711317 -1.51E-01
 SMEAGOL DEBUG| Number of electrons in the unit cell =      1222.9584316764
   149 Broy./SMGL  0.30E+00   18.2     0.00087080     -3690.3879060131 -1.57E-01
 SMEAGOL DEBUG| Number of electrons in the unit cell =      1222.9584299721
   150 Broy./SMGL  0.30E+00   18.2     0.00073559     -3690.3541051557  3.38E-02
 SMEAGOL DEBUG| Number of electrons in the unit cell =      1222.9584763720
   151 Broy./SMGL  0.30E+00   18.1     0.00280157     -3690.3390324188  1.51E-02
 SMEAGOL DEBUG| Number of electrons in the unit cell =      1222.9587603132
   152 Broy./SMGL  0.30E+00   18.1     0.00229009     -3690.3243734539  1.47E-02
 SMEAGOL DEBUG| Number of electrons in the unit cell =      1222.9589496359
   153 Broy./SMGL  0.30E+00   18.1     0.00327382     -3690.3118196834  1.26E-02
 SMEAGOL DEBUG| Number of electrons in the unit cell =      1222.9590370960
   154 Broy./SMGL  0.30E+00   18.1     0.00303908     -3690.2785363391  3.33E-02
 SMEAGOL DEBUG| Number of electrons in the unit cell =      1222.9595457884
   155 Broy./SMGL  0.30E+00   18.1     0.00170319     -3690.3553454932 -7.68E-02
 SMEAGOL DEBUG| Number of electrons in the unit cell =      1222.9588585814
   156 Broy./SMGL  0.30E+00   18.1     0.00788618     -3690.3122671595  4.31E-02
 SMEAGOL DEBUG| Number of electrons in the unit cell =      1222.9588663941
   157 Broy./SMGL  0.30E+00   18.1     0.00141241     -3690.1482123813  1.64E-01
 SMEAGOL DEBUG| Number of electrons in the unit cell =      1222.9594782503
   158 Broy./SMGL  0.30E+00   18.1     0.00350642     -3690.1520051266 -3.79E-03
 SMEAGOL DEBUG| Number of electrons in the unit cell =      1222.9609109497
   159 Broy./SMGL  0.30E+00   18.2     0.00584831     -3690.1745624326 -2.26E-02
 SMEAGOL DEBUG| Number of electrons in the unit cell =      1222.9604363052
   160 Broy./SMGL  0.30E+00   18.1     0.00261632     -3689.8746498988  3.00E-01
 SMEAGOL DEBUG| Number of electrons in the unit cell =      1222.9589271677
   161 Broy./SMGL  0.30E+00   18.2     0.00490176     -3690.0155377768 -1.41E-01
 SMEAGOL DEBUG| Number of electrons in the unit cell =      1222.9594351591
   162 Broy./SMGL  0.30E+00   18.2     0.00215427     -3690.2213771639 -2.06E-01
 SMEAGOL DEBUG| Number of electrons in the unit cell =      1222.9589664294
   163 Broy./SMGL  0.30E+00   18.1     0.00182016     -3690.1493524184  7.20E-02
 SMEAGOL DEBUG| Number of electrons in the unit cell =      1222.9591602871
   164 Broy./SMGL  0.30E+00   18.1     0.00135369     -3690.2073636201 -5.80E-02
 SMEAGOL DEBUG| Number of electrons in the unit cell =      1222.9589469684
   165 Broy./SMGL  0.30E+00   18.2     0.00082664     -3690.2405332663 -3.32E-02
 SMEAGOL DEBUG| Number of electrons in the unit cell =      1222.9587071391
   166 Broy./SMGL  0.30E+00   18.1     0.00358553     -3690.2410673990 -5.34E-04
 SMEAGOL DEBUG| Number of electrons in the unit cell =      1222.9594602102
   167 Broy./SMGL  0.30E+00   18.2     0.00412300     -3690.3108174168 -6.98E-02
 SMEAGOL DEBUG| Number of electrons in the unit cell =      1222.9595578013
   168 Broy./SMGL  0.30E+00   18.2     0.00153562     -3690.1724595473  1.38E-01
 SMEAGOL DEBUG| Number of electrons in the unit cell =      1222.9598061775
   169 Broy./SMGL  0.30E+00   18.2     0.00110693     -3690.1031161921  6.93E-02
 SMEAGOL DEBUG| Number of electrons in the unit cell =      1222.9604021422
   170 Broy./SMGL  0.30E+00   18.2     0.00251897     -3690.1447487187 -4.16E-02
 SMEAGOL DEBUG| Number of electrons in the unit cell =      1222.9606900198
   171 Broy./SMGL  0.30E+00   18.1     0.00479474     -3690.2294154044 -8.47E-02
 SMEAGOL DEBUG| Number of electrons in the unit cell =      1222.9610009637
   172 Broy./SMGL  0.30E+00   18.2     0.00213434     -3690.2220390051  7.38E-03
 SMEAGOL DEBUG| Number of electrons in the unit cell =      1222.9618652390
   173 Broy./SMGL  0.30E+00   18.2     0.00423119     -3690.2144829773  7.56E-03
 SMEAGOL DEBUG| Number of electrons in the unit cell =      1222.9619968007
   174 Broy./SMGL  0.30E+00   18.2     0.00962362     -3690.0295854687  1.85E-01
 SMEAGOL DEBUG| Number of electrons in the unit cell =      1222.9622560607
   175 Broy./SMGL  0.30E+00   18.1     0.00294594     -3689.8829334321  1.47E-01
 SMEAGOL DEBUG| Number of electrons in the unit cell =      1222.9621919858
   176 Broy./SMGL  0.30E+00   18.2     0.00822296     -3690.0408809309 -1.58E-01
 SMEAGOL DEBUG| Number of electrons in the unit cell =      1222.9631434568
   177 Broy./SMGL  0.30E+00   18.2     0.00167354     -3690.2170469410 -1.76E-01
 SMEAGOL DEBUG| Number of electrons in the unit cell =      1222.9624109980
   178 Broy./SMGL  0.30E+00   18.2     0.00065882     -3690.1872403299  2.98E-02
 SMEAGOL DEBUG| Number of electrons in the unit cell =      1222.9615042111
   179 Broy./SMGL  0.30E+00   18.1     0.00209322     -3690.2092463154 -2.20E-02
 SMEAGOL DEBUG| Number of electrons in the unit cell =      1222.9607680667
   180 Broy./SMGL  0.30E+00   18.2     0.00137737     -3690.2782392142 -6.90E-02
 SMEAGOL DEBUG| Number of electrons in the unit cell =      1222.9608389622
   181 Broy./SMGL  0.30E+00   18.1     0.00017443     -3690.3125888123 -3.43E-02
 SMEAGOL DEBUG| Number of electrons in the unit cell =      1222.9614379333
   182 Broy./SMGL  0.30E+00   18.2     0.00344843     -3690.3084633113  4.13E-03
 SMEAGOL DEBUG| Number of electrons in the unit cell =      1222.9619730853
   183 Broy./SMGL  0.30E+00   18.1     0.00131468     -3690.4015673362 -9.31E-02
 SMEAGOL DEBUG| Number of electrons in the unit cell =      1222.9643408315
   184 Broy./SMGL  0.30E+00   18.1     0.01452560     -3690.4543645764 -5.28E-02
 SMEAGOL DEBUG| Number of electrons in the unit cell =      1222.9623002015
   185 Broy./SMGL  0.30E+00   18.1     0.01419790     -3689.9320030175  5.22E-01
 SMEAGOL DEBUG| Number of electrons in the unit cell =      1222.9631626315
   186 Broy./SMGL  0.30E+00   18.2     0.00138878     -3690.2479688594 -3.16E-01
 SMEAGOL DEBUG| Number of electrons in the unit cell =      1222.9643407237
   187 Broy./SMGL  0.30E+00   18.1     0.00814395     -3690.2525205720 -4.55E-03
 SMEAGOL DEBUG| Number of electrons in the unit cell =      1222.9687296828
   188 Broy./SMGL  0.30E+00   18.1     0.01977550     -3690.4150368455 -1.63E-01
 SMEAGOL DEBUG| Number of electrons in the unit cell =      1222.9695513984
   189 Broy./SMGL  0.30E+00   18.2     0.00512721     -3689.9693084848  4.46E-01
 SMEAGOL DEBUG| Number of electrons in the unit cell =      1222.9678020619
   190 Broy./SMGL  0.30E+00   18.2     0.00405814     -3689.7731609690  1.96E-01
 SMEAGOL DEBUG| Number of electrons in the unit cell =      1222.9662103241
   191 Broy./SMGL  0.30E+00   18.1     0.00280970     -3689.9118453209 -1.39E-01
 SMEAGOL DEBUG| Number of electrons in the unit cell =      1222.9641173541
   192 Broy./SMGL  0.30E+00   18.1     0.00148051     -3690.0382460396 -1.26E-01
 SMEAGOL DEBUG| Number of electrons in the unit cell =      1222.9638294801
   193 Broy./SMGL  0.30E+00   18.2     0.00150189     -3690.0225907409  1.57E-02
 SMEAGOL DEBUG| Number of electrons in the unit cell =      1222.9612662428
   194 Broy./SMGL  0.30E+00   18.1     0.01154910     -3690.0738960832 -5.13E-02
 SMEAGOL DEBUG| Number of electrons in the unit cell =      1222.9626827739
   195 Broy./SMGL  0.30E+00   18.2     0.00432886     -3690.0118086240  6.21E-02
 SMEAGOL DEBUG| Number of electrons in the unit cell =      1222.9616025921
   196 Broy./SMGL  0.30E+00   18.1     0.00309895     -3690.1119638607 -1.00E-01
 SMEAGOL DEBUG| Number of electrons in the unit cell =      1222.9620931570
   197 Broy./SMGL  0.30E+00   18.1     0.00252367     -3690.2320092621 -1.20E-01
 SMEAGOL DEBUG| Number of electrons in the unit cell =      1222.9619848900
   198 Broy./SMGL  0.30E+00   18.1     0.00108856     -3690.2014170830  3.06E-02
 SMEAGOL DEBUG| Number of electrons in the unit cell =      1222.9615142084
   199 Broy./SMGL  0.30E+00   18.2     0.00566065     -3690.2106450938 -9.23E-03
 SMEAGOL DEBUG| Number of electrons in the unit cell =      1222.9629550216
   200 Broy./SMGL  0.30E+00   18.1     0.00736222     -3690.1056789769  1.05E-01
 SMEAGOL DEBUG| Number of electrons in the unit cell =      1222.9640204085
   201 Broy./SMGL  0.30E+00   18.1     0.00267777     -3690.1009837108  4.70E-03
 SMEAGOL DEBUG| Number of electrons in the unit cell =      1222.9640085404
   202 Broy./SMGL  0.30E+00   18.1     0.00521410     -3690.0101221659  9.09E-02
 SMEAGOL DEBUG| Number of electrons in the unit cell =      1222.9640167346
   203 Broy./SMGL  0.30E+00   18.1     0.00127084     -3689.7533446053  2.57E-01
 SMEAGOL DEBUG| Number of electrons in the unit cell =      1222.9628181306
   204 Broy./SMGL  0.30E+00   18.1     0.00225726     -3689.8162480873 -6.29E-02
 SMEAGOL DEBUG| Number of electrons in the unit cell =      1222.9623898824
   205 Broy./SMGL  0.30E+00   18.1     0.01184787     -3689.8807688473 -6.45E-02
 SMEAGOL DEBUG| Number of electrons in the unit cell =      1222.9630009572
   206 Broy./SMGL  0.30E+00   18.2     0.00481265     -3689.4421118648  4.39E-01
 SMEAGOL DEBUG| Number of electrons in the unit cell =      1222.9625766984
   207 Broy./SMGL  0.30E+00   18.1     0.00319344     -3689.2233617639  2.19E-01
 SMEAGOL DEBUG| Number of electrons in the unit cell =      1222.9631528639
   208 Broy./SMGL  0.30E+00   18.2     0.00599201     -3689.3740851776 -1.51E-01
 SMEAGOL DEBUG| Number of electrons in the unit cell =      1222.9583223662
