 DBCSR| CPU Multiplication driver                                           XSMM
 DBCSR| Multrec recursion limit                                              512
 DBCSR| Multiplication stack size                                           1000
 DBCSR| Maximum elements for images                                    UNLIMITED
 DBCSR| Multiplicative factor virtual images                                   1
 DBCSR| Use multiplication densification                                       T
 DBCSR| Multiplication size stacks                                             3
 DBCSR| Use memory pool for CPU allocation                                     F
 DBCSR| Number of 3D layers                                               SINGLE
 DBCSR| Use MPI memory allocation                                              F
 DBCSR| Use RMA algorithm                                                      F
 DBCSR| Use Communication thread                                               T
 DBCSR| Communication thread load                                             83
 DBCSR| MPI: My node id                                                        0
 DBCSR| MPI: Number of nodes                                                 256
 DBCSR| OMP: Current number of threads                                         2
 DBCSR| OMP: Max number of threads                                             2
 DBCSR| Split modifier for TAS multiplication algorithm                  1.0E+00


  **** **** ******  **  PROGRAM STARTED AT               2024-01-16 12:11:32.321
 ***** ** ***  *** **   PROGRAM STARTED ON                           hx1-c04-7-1
 **    ****   ******    PROGRAM STARTED BY                                cahart
 ***** **    ** ** **   PROGRAM PROCESS ID                               3280265
  **** **  *******  **  PROGRAM STARTED IN /gpfs/home/cahart/transport/melamine/
                                           au_from-h2/iv-curve/single-point/ts2-
                                           guess-7A/iv_curve/V_2.0

 CP2K| version string:                 CP2K version 2022.1 (Development Version)
 CP2K| source code revision number:                                  git:5518aa6
 CP2K| cp2kflags: omp libint fftw3 libxc parallel mpi3 scalapack xsmm plumed2   
 CP2K| is freely available from                            https://www.cp2k.org/
 CP2K| Program compiled at                          Thu 21 Sep 19:20:17 BST 2023
 CP2K| Program compiled on                                       hx1-c12-login-1
 CP2K| Program compiled for                                                local
 CP2K| Data directory path    /gpfs/easybuild/prod/software/CP2K/2022.1-foss-202
 CP2K| Input file name                                                4_2.0V.inp

 GLOBAL| Force Environment number                                              1
 GLOBAL| Basis set file name                                        BASIS_MOLOPT
 GLOBAL| Potential file name                                      GTH_POTENTIALS
 GLOBAL| MM Potential file name                                     MM_POTENTIAL
 GLOBAL| Coordinate file name                                             em.xyz
 GLOBAL| Method name                                                        CP2K
 GLOBAL| Project name                                                       2.0V
 GLOBAL| Run type                                                         ENERGY
 GLOBAL| FFT library                                                       FFTW3
 GLOBAL| Diagonalization library                                       ScaLAPACK
 GLOBAL| Orthonormality check for eigenvectors                          DISABLED
 GLOBAL| Matrix multiplication library                                 ScaLAPACK
 GLOBAL| All-to-all communication in single precision                          F
 GLOBAL| FFTs using library dependent lengths                                  T
 GLOBAL| Grid backend                                                       AUTO
 GLOBAL| Global print level                                               MEDIUM
 GLOBAL| MPI I/O enabled                                                       T
 GLOBAL| Total number of message passing processes                           256
 GLOBAL| Number of threads for this process                                    2
 GLOBAL| This output is from process                                           0
 GLOBAL| Stack size for threads created by OpenMP (OMP_STACKSIZE)        default
 GLOBAL| CPU model name             Intel(R) Xeon(R) Platinum 8358 CPU @ 2.60GHz
 GLOBAL| CPUID                                                              1003

 MEMORY| system memory details [Kb]
 MEMORY|                        rank 0           min           max       average
 MEMORY| MemTotal            527652792     527652792     527739640     527663648
 MEMORY| MemFree             512279692     508390312     514300880     512323082
 MEMORY| Buffers                  5492          5388          5492          5477
 MEMORY| Cached                2056084       1281884       2310400       1931128
 MEMORY| Slab                  1599816       1120448       1617328       1535633
 MEMORY| SReclaimable           682360        312488        708724        640419
 MEMORY| MemLikelyFree       515023628     511414928     515900640     514900107


 *** Fundamental physical constants (SI units) ***

 *** Literature: B. J. Mohr and B. N. Taylor,
 ***             CODATA recommended values of the fundamental physical
 ***             constants: 2006, Web Version 5.1
 ***             http://physics.nist.gov/constants

 Speed of light in vacuum [m/s]                             2.99792458000000E+08
 Magnetic constant or permeability of vacuum [N/A**2]       1.25663706143592E-06
 Electric constant or permittivity of vacuum [F/m]          8.85418781762039E-12
 Planck constant (h) [J*s]                                  6.62606896000000E-34
 Planck constant (h-bar) [J*s]                              1.05457162825177E-34
 Elementary charge [C]                                      1.60217648700000E-19
 Electron mass [kg]                                         9.10938215000000E-31
 Electron g factor [ ]                                     -2.00231930436220E+00
 Proton mass [kg]                                           1.67262163700000E-27
 Fine-structure constant                                    7.29735253760000E-03
 Rydberg constant [1/m]                                     1.09737315685270E+07
 Avogadro constant [1/mol]                                  6.02214179000000E+23
 Boltzmann constant [J/K]                                   1.38065040000000E-23
 Atomic mass unit [kg]                                      1.66053878200000E-27
 Bohr radius [m]                                            5.29177208590000E-11

 *** Conversion factors ***

 [u] -> [a.u.]                                              1.82288848426455E+03
 [Angstrom] -> [Bohr] = [a.u.]                              1.88972613288564E+00
 [a.u.] = [Bohr] -> [Angstrom]                              5.29177208590000E-01
 [a.u.] -> [s]                                              2.41888432650478E-17
 [a.u.] -> [fs]                                             2.41888432650478E-02
 [a.u.] -> [J]                                              4.35974393937059E-18
 [a.u.] -> [N]                                              8.23872205491840E-08
 [a.u.] -> [K]                                              3.15774647902944E+05
 [a.u.] -> [kJ/mol]                                         2.62549961709828E+03
 [a.u.] -> [kcal/mol]                                       6.27509468713739E+02
 [a.u.] -> [Pa]                                             2.94210107994716E+13
 [a.u.] -> [bar]                                            2.94210107994716E+08
 [a.u.] -> [atm]                                            2.90362800883016E+08
 [a.u.] -> [eV]                                             2.72113838565563E+01
 [a.u.] -> [Hz]                                             6.57968392072181E+15
 [a.u.] -> [1/cm] (wave numbers)                            2.19474631370540E+05
 [a.u./Bohr**2] -> [1/cm]                                   5.14048714338585E+03
 

 CELL_TOP| Volume [angstrom^3]:                                      4852.287538
 CELL_TOP| Vector a [angstrom    14.582     0.000     0.000   |a| =    14.582000
 CELL_TOP| Vector b [angstrom     0.000     8.866     0.000   |b| =     8.866000
 CELL_TOP| Vector c [angstrom     0.000     0.000    37.532   |c| =    37.532000
 CELL_TOP| Angle (b,c), alpha [degree]:                                90.000000
 CELL_TOP| Angle (a,c), beta  [degree]:                                90.000000
 CELL_TOP| Angle (a,b), gamma [degree]:                                90.000000
 CELL_TOP| Numerically orthorhombic:                                         YES
 CELL_TOP| Periodicity                                                       XYZ

 GENERATE|  Preliminary Number of Bonds generated:                             0
 GENERATE|  Achieved consistency in connectivity generation.

 CELL| Volume [angstrom^3]:                                          4852.287538
 CELL| Vector a [angstrom]:      14.582     0.000     0.000   |a| =    14.582000
 CELL| Vector b [angstrom]:       0.000     8.866     0.000   |b| =     8.866000
 CELL| Vector c [angstrom]:       0.000     0.000    37.532   |c| =    37.532000
 CELL| Angle (b,c), alpha [degree]:                                    90.000000
 CELL| Angle (a,c), beta  [degree]:                                    90.000000
 CELL| Angle (a,b), gamma [degree]:                                    90.000000
 CELL| Numerically orthorhombic:                                             YES
 CELL| Periodicity                                                           XYZ

 CELL_REF| Volume [angstrom^3]:                                      4852.287538
 CELL_REF| Vector a [angstrom    14.582     0.000     0.000   |a| =    14.582000
 CELL_REF| Vector b [angstrom     0.000     8.866     0.000   |b| =     8.866000
 CELL_REF| Vector c [angstrom     0.000     0.000    37.532   |c| =    37.532000
 CELL_REF| Angle (b,c), alpha [degree]:                                90.000000
 CELL_REF| Angle (a,c), beta  [degree]:                                90.000000
 CELL_REF| Angle (a,b), gamma [degree]:                                90.000000
 CELL_REF| Numerically orthorhombic:                                         YES
 CELL_REF| Periodicity                                                       XYZ

 *** WARNING in cryssym.F:165 :: Symmetry library SPGLIB not available ***


 *******************************************************************************
                                    Kpoints
 *******************************************************************************
 BRILLOUIN| K-point scheme                                        Monkhorst-Pack
 BRILLOUIN| K-Point grid                                             2    4    1
 BRILLOUIN| Accuracy in Symmetry determination                      0.100000E-07
 BRILLOUIN| K-Point point group symmetrization                               OFF
 BRILLOUIN| Wavefunction type                                            COMPLEX
 BRILLOUIN| Use full k-point grid     
 BRILLOUIN| List of Kpoints [2 Pi/Bohr]                                        8
 BRILLOUIN| Number           Weight            X              Y              Z
 BRILLOUIN|     1           0.12500       -0.25000       -0.37500        0.00000
 BRILLOUIN|     2           0.12500       -0.25000       -0.12500        0.00000
 BRILLOUIN|     3           0.12500       -0.25000        0.12500        0.00000
 BRILLOUIN|     4           0.12500       -0.25000        0.37500        0.00000
 BRILLOUIN|     5           0.12500        0.25000       -0.37500        0.00000
 BRILLOUIN|     6           0.12500        0.25000       -0.12500        0.00000
 BRILLOUIN|     7           0.12500        0.25000        0.12500        0.00000
 BRILLOUIN|     8           0.12500        0.25000        0.37500        0.00000
 *******************************************************************************

 *******************************************************************************
 *******************************************************************************
 **                                                                           **
 **     #####                         ##              ##                      **
 **    ##   ##            ##          ##              ##                      **
 **   ##     ##                       ##            ######                    **
 **   ##     ##  ##   ##  ##   #####  ##  ##   ####   ##    #####    #####    **
 **   ##     ##  ##   ##  ##  ##      ## ##   ##      ##   ##   ##  ##   ##   **
 **   ##  ## ##  ##   ##  ##  ##      ####     ###    ##   ######   ######    **
 **    ##  ###   ##   ##  ##  ##      ## ##      ##   ##   ##       ##        **
 **     #######   #####   ##   #####  ##  ##  ####    ##    #####   ##        **
 **           ##                                                    ##        **
 **                                                                           **
 **                                                ... make the atoms dance   **
 **                                                                           **
 **            Copyright (C) by CP2K developers group (2000-2022)             **
 **                      J. Chem. Phys. 152, 194103 (2020)                    **
 **                                                                           **
 *******************************************************************************

 DFT| Spin restricted Kohn-Sham (RKS) calculation                            RKS
 DFT| Multiplicity                                                             1
 DFT| Number of spin states                                                    1
 DFT| Charge                                                                   0
 DFT| Self-interaction correction (SIC)                                       NO
 DFT| Cutoffs: density                                              1.000000E-10
 DFT|          gradient                                             1.000000E-10
 DFT|          tau                                                  1.000000E-10
 DFT|          cutoff_smoothing_range                               0.000000E+00
 DFT| XC density smoothing                                                  NONE
 DFT| XC derivatives                                                          PW

 FUNCTIONAL| PBE:
 FUNCTIONAL| J.P.Perdew, K.Burke, M.Ernzerhof, Phys. Rev. Letter, vol. 77, n 18,
 FUNCTIONAL|  pp. 3865-3868, (1996){spin unpolarized}                           


 QS| Method:                                                                 GPW
 QS| Density plane wave grid type                        NON-SPHERICAL FULLSPACE
 QS| Number of grid levels:                                                    4
 QS| Density cutoff [a.u.]:                                                300.0
 QS| Multi grid cutoff [a.u.]: 1) grid level                               300.0
 QS|                           2) grid level                               100.0
 QS|                           3) grid level                                33.3
 QS|                           4) grid level                                11.1
 QS| Grid level progression factor:                                          3.0
 QS| Relative density cutoff [a.u.]:                                        30.0
 QS| Interaction thresholds: eps_pgf_orb:                                1.0E-05
 QS|                         eps_filter_matrix:                          0.0E+00
 QS|                         eps_core_charge:                            1.0E-12
 QS|                         eps_rho_gspace:                             1.0E-10
 QS|                         eps_rho_rspace:                             1.0E-10
 QS|                         eps_gvg_rspace:                             1.0E-05
 QS|                         eps_ppl:                                    1.0E-02
 QS|                         eps_ppnl:                                   1.0E-07


 ATOMIC KIND INFORMATION

  1. Atomic kind: Au_bulk                               Number of atoms:     120

     Orbital Basis Set                                     SZV-MOLOPT-SR-GTH-q11

       Number of orbital shell sets:                                           1
       Number of orbital shells:                                               3
       Number of primitive Cartesian functions:                                5
       Number of Cartesian basis functions:                                   10
       Number of spherical basis functions:                                    9
       Norm type:                                                              2

       Normalised Cartesian orbitals:

                        Set   Shell   Orbital            Exponent    Coefficient

                          1       1    2s                2.950008       0.074626
                                                         1.563057      -0.007898
                                                         0.666664      -0.297688
                                                         0.251083       0.136809
                                                         0.081714       0.088198

                          1       2    3px               2.950008       0.148824
                                                         1.563057       0.025430
                                                         0.666664      -0.123003
                                                         0.251083       0.033648
                                                         0.081714       0.059008
                          1       2    3py               2.950008       0.148824
                                                         1.563057       0.025430
                                                         0.666664      -0.123003
                                                         0.251083       0.033648
                                                         0.081714       0.059008
                          1       2    3pz               2.950008       0.148824
                                                         1.563057       0.025430
                                                         0.666664      -0.123003
                                                         0.251083       0.033648
                                                         0.081714       0.059008

                          1       3    4dx2              2.950008      -0.139595
                                                         1.563057       1.319655
                                                         0.666664       0.377081
                                                         0.251083       0.046872
                                                         0.081714       0.001393
                          1       3    4dxy              2.950008      -0.241786
                                                         1.563057       2.285709
                                                         0.666664       0.653124
                                                         0.251083       0.081185
                                                         0.081714       0.002412
                          1       3    4dxz              2.950008      -0.241786
                                                         1.563057       2.285709
                                                         0.666664       0.653124
                                                         0.251083       0.081185
                                                         0.081714       0.002412
                          1       3    4dy2              2.950008      -0.139595
                                                         1.563057       1.319655
                                                         0.666664       0.377081
                                                         0.251083       0.046872
                                                         0.081714       0.001393
                          1       3    4dyz              2.950008      -0.241786
                                                         1.563057       2.285709
                                                         0.666664       0.653124
                                                         0.251083       0.081185
                                                         0.081714       0.002412
                          1       3    4dz2              2.950008      -0.139595
                                                         1.563057       1.319655
                                                         0.666664       0.377081
                                                         0.251083       0.046872
                                                         0.081714       0.001393

       Atomic covalent radius [Angstrom]:                                  1.340

       Atomic van der Waals radius [Angstrom]:                             1.660

     GTH Potential information for                                   GTH-PBE-q11

       Description:                       Goedecker-Teter-Hutter pseudopotential
                                           Goedecker et al., PRB 54, 1703 (1996)
                                          Hartwigsen et al., PRB 58, 3641 (1998)
                                                      Krack, TCA 114, 145 (2005)

       Gaussian exponent of the core charge distribution:               1.436369
       Electronic configuration (s p d ...):                           1   0  10

       Parameters of the local part of the GTH pseudopotential:

                          rloc        C1          C2          C3          C4
                        0.590000   10.517179

       Parameters of the non-local part of the GTH pseudopotential:

                   l      r(l)      h(i,j,l)

                   0    0.543847    5.786811   -2.250680
                                   -2.250680    2.905615
                   1    0.609173    4.284049   -4.071285
                                   -4.071285    4.817210
                   2    0.437309   -7.403281    3.010193
                                    3.010193   -3.413238

  2. Atomic kind: Au                                    Number of atoms:      30

     Orbital Basis Set                                     SZV-MOLOPT-SR-GTH-q11

       Number of orbital shell sets:                                           1
       Number of orbital shells:                                               3
       Number of primitive Cartesian functions:                                5
       Number of Cartesian basis functions:                                   10
       Number of spherical basis functions:                                    9
       Norm type:                                                              2

       Normalised Cartesian orbitals:

                        Set   Shell   Orbital            Exponent    Coefficient

                          1       1    2s                2.950008       0.074626
                                                         1.563057      -0.007898
                                                         0.666664      -0.297688
                                                         0.251083       0.136809
                                                         0.081714       0.088198

                          1       2    3px               2.950008       0.148824
                                                         1.563057       0.025430
                                                         0.666664      -0.123003
                                                         0.251083       0.033648
                                                         0.081714       0.059008
                          1       2    3py               2.950008       0.148824
                                                         1.563057       0.025430
                                                         0.666664      -0.123003
                                                         0.251083       0.033648
                                                         0.081714       0.059008
                          1       2    3pz               2.950008       0.148824
                                                         1.563057       0.025430
                                                         0.666664      -0.123003
                                                         0.251083       0.033648
                                                         0.081714       0.059008

                          1       3    4dx2              2.950008      -0.139595
                                                         1.563057       1.319655
                                                         0.666664       0.377081
                                                         0.251083       0.046872
                                                         0.081714       0.001393
                          1       3    4dxy              2.950008      -0.241786
                                                         1.563057       2.285709
                                                         0.666664       0.653124
                                                         0.251083       0.081185
                                                         0.081714       0.002412
                          1       3    4dxz              2.950008      -0.241786
                                                         1.563057       2.285709
                                                         0.666664       0.653124
                                                         0.251083       0.081185
                                                         0.081714       0.002412
                          1       3    4dy2              2.950008      -0.139595
                                                         1.563057       1.319655
                                                         0.666664       0.377081
                                                         0.251083       0.046872
                                                         0.081714       0.001393
                          1       3    4dyz              2.950008      -0.241786
                                                         1.563057       2.285709
                                                         0.666664       0.653124
                                                         0.251083       0.081185
                                                         0.081714       0.002412
                          1       3    4dz2              2.950008      -0.139595
                                                         1.563057       1.319655
                                                         0.666664       0.377081
                                                         0.251083       0.046872
                                                         0.081714       0.001393

       Atomic covalent radius [Angstrom]:                                  1.340

       Atomic van der Waals radius [Angstrom]:                             1.660

     GTH Potential information for                                   GTH-PBE-q11

       Description:                       Goedecker-Teter-Hutter pseudopotential
                                           Goedecker et al., PRB 54, 1703 (1996)
                                          Hartwigsen et al., PRB 58, 3641 (1998)
                                                      Krack, TCA 114, 145 (2005)

       Gaussian exponent of the core charge distribution:               1.436369
       Electronic configuration (s p d ...):                           1   0  10

       Parameters of the local part of the GTH pseudopotential:

                          rloc        C1          C2          C3          C4
                        0.590000   10.517179

       Parameters of the non-local part of the GTH pseudopotential:

                   l      r(l)      h(i,j,l)

                   0    0.543847    5.786811   -2.250680
                                   -2.250680    2.905615
                   1    0.609173    4.284049   -4.071285
                                   -4.071285    4.817210
                   2    0.437309   -7.403281    3.010193
                                    3.010193   -3.413238

  3. Atomic kind: Au_surf                               Number of atoms:      15

     Orbital Basis Set                                    DZVP-MOLOPT-SR-GTH-q11

       Number of orbital shell sets:                                           1
       Number of orbital shells:                                               7
       Number of primitive Cartesian functions:                                5
       Number of Cartesian basis functions:                                   30
       Number of spherical basis functions:                                   25
       Norm type:                                                              2

       Normalised Cartesian orbitals:

                        Set   Shell   Orbital            Exponent    Coefficient

                          1       1    2s                2.950008       0.074626
                                                         1.563057      -0.007898
                                                         0.666664      -0.297688
                                                         0.251083       0.136809
                                                         0.081714       0.088198

                          1       2    3s                2.950008       0.228793
                                                         1.563057      -0.295041
                                                         0.666664       0.955676
                                                         0.251083      -0.809517
                                                         0.081714       0.207484

                          1       3    3px               2.950008       0.148824
                                                         1.563057       0.025430
                                                         0.666664      -0.123003
                                                         0.251083       0.033648
                                                         0.081714       0.059008
                          1       3    3py               2.950008       0.148824
                                                         1.563057       0.025430
                                                         0.666664      -0.123003
                                                         0.251083       0.033648
                                                         0.081714       0.059008
                          1       3    3pz               2.950008       0.148824
                                                         1.563057       0.025430
                                                         0.666664      -0.123003
                                                         0.251083       0.033648
                                                         0.081714       0.059008

                          1       4    4px               2.950008       0.169603
                                                         1.563057      -0.791540
                                                         0.666664       0.759522
                                                         0.251083      -0.513201
                                                         0.081714       0.071875
                          1       4    4py               2.950008       0.169603
                                                         1.563057      -0.791540
                                                         0.666664       0.759522
                                                         0.251083      -0.513201
                                                         0.081714       0.071875
                          1       4    4pz               2.950008       0.169603
                                                         1.563057      -0.791540
                                                         0.666664       0.759522
                                                         0.251083      -0.513201
                                                         0.081714       0.071875

                          1       5    4dx2              2.950008      -0.139595
                                                         1.563057       1.319655
                                                         0.666664       0.377081
                                                         0.251083       0.046872
                                                         0.081714       0.001393
                          1       5    4dxy              2.950008      -0.241786
                                                         1.563057       2.285709
                                                         0.666664       0.653124
                                                         0.251083       0.081185
                                                         0.081714       0.002412
                          1       5    4dxz              2.950008      -0.241786
                                                         1.563057       2.285709
                                                         0.666664       0.653124
                                                         0.251083       0.081185
                                                         0.081714       0.002412
                          1       5    4dy2              2.950008      -0.139595
                                                         1.563057       1.319655
                                                         0.666664       0.377081
                                                         0.251083       0.046872
                                                         0.081714       0.001393
                          1       5    4dyz              2.950008      -0.241786
                                                         1.563057       2.285709
                                                         0.666664       0.653124
                                                         0.251083       0.081185
                                                         0.081714       0.002412
                          1       5    4dz2              2.950008      -0.139595
                                                         1.563057       1.319655
                                                         0.666664       0.377081
                                                         0.251083       0.046872
                                                         0.081714       0.001393

                          1       6    5dx2              2.950008      -0.047309
                                                         1.563057      -0.613535
                                                         0.666664      -0.083031
                                                         0.251083      -0.023136
                                                         0.081714       0.021870
                          1       6    5dxy              2.950008      -0.081942
                                                         1.563057      -1.062673
                                                         0.666664      -0.143813
                                                         0.251083      -0.040072
                                                         0.081714       0.037880
                          1       6    5dxz              2.950008      -0.081942
                                                         1.563057      -1.062673
                                                         0.666664      -0.143813
                                                         0.251083      -0.040072
                                                         0.081714       0.037880
                          1       6    5dy2              2.950008      -0.047309
                                                         1.563057      -0.613535
                                                         0.666664      -0.083031
                                                         0.251083      -0.023136
                                                         0.081714       0.021870
                          1       6    5dyz              2.950008      -0.081942
                                                         1.563057      -1.062673
                                                         0.666664      -0.143813
                                                         0.251083      -0.040072
                                                         0.081714       0.037880
                          1       6    5dz2              2.950008      -0.047309
                                                         1.563057      -0.613535
                                                         0.666664      -0.083031
                                                         0.251083      -0.023136
                                                         0.081714       0.021870

                          1       7    5fx3              2.950008      -0.072925
                                                         1.563057      -0.623736
                                                         0.666664      -0.068759
                                                         0.251083      -0.019565
                                                         0.081714       0.005642
                          1       7    5fx2y             2.950008      -0.163065
                                                         1.563057      -1.394716
                                                         0.666664      -0.153751
                                                         0.251083      -0.043748
                                                         0.081714       0.012617
                          1       7    5fx2z             2.950008      -0.163065
                                                         1.563057      -1.394716
                                                         0.666664      -0.153751
                                                         0.251083      -0.043748
                                                         0.081714       0.012617
                          1       7    5fxy2             2.950008      -0.163065
                                                         1.563057      -1.394716
                                                         0.666664      -0.153751
                                                         0.251083      -0.043748
                                                         0.081714       0.012617
                          1       7    5fxyz             2.950008      -0.282436
                                                         1.563057      -2.415719
                                                         0.666664      -0.266304
                                                         0.251083      -0.075774
                                                         0.081714       0.021853
                          1       7    5fxz2             2.950008      -0.163065
                                                         1.563057      -1.394716
                                                         0.666664      -0.153751
                                                         0.251083      -0.043748
                                                         0.081714       0.012617
                          1       7    5fy3              2.950008      -0.072925
                                                         1.563057      -0.623736
                                                         0.666664      -0.068759
                                                         0.251083      -0.019565
                                                         0.081714       0.005642
                          1       7    5fy2z             2.950008      -0.163065
                                                         1.563057      -1.394716
                                                         0.666664      -0.153751
                                                         0.251083      -0.043748
                                                         0.081714       0.012617
                          1       7    5fyz2             2.950008      -0.163065
                                                         1.563057      -1.394716
                                                         0.666664      -0.153751
                                                         0.251083      -0.043748
                                                         0.081714       0.012617
                          1       7    5fz3              2.950008      -0.072925
                                                         1.563057      -0.623736
                                                         0.666664      -0.068759
                                                         0.251083      -0.019565
                                                         0.081714       0.005642

       Atomic covalent radius [Angstrom]:                                  1.340

       Atomic van der Waals radius [Angstrom]:                             1.660

     GTH Potential information for                                   GTH-PBE-q11

       Description:                       Goedecker-Teter-Hutter pseudopotential
                                           Goedecker et al., PRB 54, 1703 (1996)
                                          Hartwigsen et al., PRB 58, 3641 (1998)
                                                      Krack, TCA 114, 145 (2005)

       Gaussian exponent of the core charge distribution:               1.436369
       Electronic configuration (s p d ...):                           1   0  10

       Parameters of the local part of the GTH pseudopotential:

                          rloc        C1          C2          C3          C4
                        0.590000   10.517179

       Parameters of the non-local part of the GTH pseudopotential:

                   l      r(l)      h(i,j,l)

                   0    0.543847    5.786811   -2.250680
                                   -2.250680    2.905615
                   1    0.609173    4.284049   -4.071285
                                   -4.071285    4.817210
                   2    0.437309   -7.403281    3.010193
                                    3.010193   -3.413238

  4. Atomic kind: N                                     Number of atoms:       6

     Orbital Basis Set                                        DZVP-MOLOPT-GTH-q5

       Number of orbital shell sets:                                           1
       Number of orbital shells:                                               5
       Number of primitive Cartesian functions:                                7
       Number of Cartesian basis functions:                                   14
       Number of spherical basis functions:                                   13
       Norm type:                                                              2

       Normalised Cartesian orbitals:

                        Set   Shell   Orbital            Exponent    Coefficient

                          1       1    2s                9.042730      -0.237404
                                                         3.882225      -0.265910
                                                         1.512880       0.102064
                                                         0.586631       0.295369
                                                         0.222851       0.088647
                                                         0.084583       0.003860
                                                         0.039194       0.000722

                          1       2    3s                9.042730       0.259152
                                                         3.882225       0.251432
                                                         1.512880      -0.043896
                                                         0.586631      -0.328079
                                                         0.222851       0.175857
                                                         0.084583       0.069169
                                                         0.039194       0.004207

                          1       3    3px               9.042730       0.822162
                                                         3.882225       0.990771
                                                         1.512880       0.665657
                                                         0.586631       0.321705
                                                         0.222851       0.063706
                                                         0.084583       0.004155
                                                         0.039194      -0.000005
                          1       3    3py               9.042730       0.822162
                                                         3.882225       0.990771
                                                         1.512880       0.665657
                                                         0.586631       0.321705
                                                         0.222851       0.063706
                                                         0.084583       0.004155
                                                         0.039194      -0.000005
                          1       3    3pz               9.042730       0.822162
                                                         3.882225       0.990771
                                                         1.512880       0.665657
                                                         0.586631       0.321705
                                                         0.222851       0.063706
                                                         0.084583       0.004155
                                                         0.039194      -0.000005

                          1       4    4px               9.042730      -0.251449
                                                         3.882225      -0.215479
                                                         1.512880      -0.200519
                                                         0.586631      -0.125283
                                                         0.222851       0.136219
                                                         0.084583       0.034362
                                                         0.039194       0.000879
                          1       4    4py               9.042730      -0.251449
                                                         3.882225      -0.215479
                                                         1.512880      -0.200519
                                                         0.586631      -0.125283
                                                         0.222851       0.136219
                                                         0.084583       0.034362
                                                         0.039194       0.000879
                          1       4    4pz               9.042730      -0.251449
                                                         3.882225      -0.215479
                                                         1.512880      -0.200519
                                                         0.586631      -0.125283
                                                         0.222851       0.136219
                                                         0.084583       0.034362
                                                         0.039194       0.000879

                          1       5    4dx2              9.042730       1.099742
                                                         3.882225       0.532064
                                                         1.512880       0.873643
                                                         0.586631       0.456348
                                                         0.222851       0.017840
                                                         0.084583      -0.000857
                                                         0.039194      -0.000086
                          1       5    4dxy              9.042730       1.904809
                                                         3.882225       0.921562
                                                         1.512880       1.513195
                                                         0.586631       0.790419
                                                         0.222851       0.030900
                                                         0.084583      -0.001484
                                                         0.039194      -0.000150
                          1       5    4dxz              9.042730       1.904809
                                                         3.882225       0.921562
                                                         1.512880       1.513195
                                                         0.586631       0.790419
                                                         0.222851       0.030900
                                                         0.084583      -0.001484
                                                         0.039194      -0.000150
                          1       5    4dy2              9.042730       1.099742
                                                         3.882225       0.532064
                                                         1.512880       0.873643
                                                         0.586631       0.456348
                                                         0.222851       0.017840
                                                         0.084583      -0.000857
                                                         0.039194      -0.000086
                          1       5    4dyz              9.042730       1.904809
                                                         3.882225       0.921562
                                                         1.512880       1.513195
                                                         0.586631       0.790419
                                                         0.222851       0.030900
                                                         0.084583      -0.001484
                                                         0.039194      -0.000150
                          1       5    4dz2              9.042730       1.099742
                                                         3.882225       0.532064
                                                         1.512880       0.873643
                                                         0.586631       0.456348
                                                         0.222851       0.017840
                                                         0.084583      -0.000857
                                                         0.039194      -0.000086

       Atomic covalent radius [Angstrom]:                                  0.750

       Atomic van der Waals radius [Angstrom]:                             1.550

     GTH Potential information for                                    GTH-PBE-q5

       Description:                       Goedecker-Teter-Hutter pseudopotential
                                           Goedecker et al., PRB 54, 1703 (1996)
                                          Hartwigsen et al., PRB 58, 3641 (1998)
                                                      Krack, TCA 114, 145 (2005)

       Gaussian exponent of the core charge distribution:               6.208322
       Electronic configuration (s p d ...):                               2   3

       Parameters of the local part of the GTH pseudopotential:

                          rloc        C1          C2          C3          C4
                        0.283791  -12.415226    1.868096

       Parameters of the non-local part of the GTH pseudopotential:

                   l      r(l)      h(i,j,l)

                   0    0.255405   13.630263
                   1    0.245495

  5. Atomic kind: H                                     Number of atoms:       4

     Orbital Basis Set                                        DZVP-MOLOPT-SR-GTH

       Number of orbital shell sets:                                           1
       Number of orbital shells:                                               3
       Number of primitive Cartesian functions:                                5
       Number of Cartesian basis functions:                                    5
       Number of spherical basis functions:                                    5
       Norm type:                                                              2

       Normalised Cartesian orbitals:

                        Set   Shell   Orbital            Exponent    Coefficient

                          1       1    2s               10.068468      -0.133023
                                                         2.680223      -0.177618
                                                         0.791502      -0.258419
                                                         0.239116      -0.107525
                                                         0.082193      -0.014019

                          1       2    3s               10.068468       0.344673
                                                         2.680223       1.819821
                                                         0.791502      -0.999069
                                                         0.239116       0.017430
                                                         0.082193       0.082660

                          1       3    3px              10.068468       0.155326
                                                         2.680223       0.367157
                                                         0.791502       0.311480
                                                         0.239116       0.080105
                                                         0.082193       0.033440
                          1       3    3py              10.068468       0.155326
                                                         2.680223       0.367157
                                                         0.791502       0.311480
                                                         0.239116       0.080105
                                                         0.082193       0.033440
                          1       3    3pz              10.068468       0.155326
                                                         2.680223       0.367157
                                                         0.791502       0.311480
                                                         0.239116       0.080105
                                                         0.082193       0.033440

       Atomic covalent radius [Angstrom]:                                  0.320

       Atomic van der Waals radius [Angstrom]:                             1.090

     GTH Potential information for                                    GTH-PBE-q1

       Description:                       Goedecker-Teter-Hutter pseudopotential
                                           Goedecker et al., PRB 54, 1703 (1996)
                                          Hartwigsen et al., PRB 58, 3641 (1998)
                                                      Krack, TCA 114, 145 (2005)

       Gaussian exponent of the core charge distribution:              12.500000
       Electronic configuration (s p d ...):                                   1

       Parameters of the local part of the GTH pseudopotential:

                          rloc        C1          C2          C3          C4
                        0.200000   -4.178900    0.724463

  6. Atomic kind: C                                     Number of atoms:       3

     Orbital Basis Set                                        DZVP-MOLOPT-GTH-q4

       Number of orbital shell sets:                                           1
       Number of orbital shells:                                               5
       Number of primitive Cartesian functions:                                7
       Number of Cartesian basis functions:                                   14
       Number of spherical basis functions:                                   13
       Norm type:                                                              2

       Normalised Cartesian orbitals:

                        Set   Shell   Orbital            Exponent    Coefficient

                          1       1    2s                6.132625      -0.263661
                                                         2.625196      -0.231112
                                                         1.045457       0.042712
                                                         0.478316       0.306085
                                                         0.178617       0.065483
                                                         0.075145       0.000568
                                                         0.030287       0.000417

                          1       2    3s                6.132625       0.131937
                                                         2.625196       0.414269
                                                         1.045457      -0.593590
                                                         0.478316       0.644922
                                                         0.178617       0.069203
                                                         0.075145      -0.145101
                                                         0.030287       0.008247

                          1       3    3px               6.132625       0.562677
                                                         2.625196       0.633910
                                                         1.045457       0.379157
                                                         0.478316       0.235193
                                                         0.178617       0.052379
                                                         0.075145       0.003677
                                                         0.030287       0.000105
                          1       3    3py               6.132625       0.562677
                                                         2.625196       0.633910
                                                         1.045457       0.379157
                                                         0.478316       0.235193
                                                         0.178617       0.052379
                                                         0.075145       0.003677
                                                         0.030287       0.000105
                          1       3    3pz               6.132625       0.562677
                                                         2.625196       0.633910
                                                         1.045457       0.379157
                                                         0.478316       0.235193
                                                         0.178617       0.052379
                                                         0.075145       0.003677
                                                         0.030287       0.000105

                          1       4    4px               6.132625      -0.472364
                                                         2.625196      -0.221326
                                                         1.045457      -0.481781
                                                         0.478316       0.135466
                                                         0.178617       0.072281
                                                         0.075145       0.024920
                                                         0.030287       0.002706
                          1       4    4py               6.132625      -0.472364
                                                         2.625196      -0.221326
                                                         1.045457      -0.481781
                                                         0.478316       0.135466
                                                         0.178617       0.072281
                                                         0.075145       0.024920
                                                         0.030287       0.002706
                          1       4    4pz               6.132625      -0.472364
                                                         2.625196      -0.221326
                                                         1.045457      -0.481781
                                                         0.478316       0.135466
                                                         0.178617       0.072281
                                                         0.075145       0.024920
                                                         0.030287       0.002706

                          1       5    4dx2              6.132625       0.874783
                                                         2.625196       0.375772
                                                         1.045457       0.653959
                                                         0.478316       0.191007
                                                         0.178617       0.018656
                                                         0.075145       0.003649
                                                         0.030287      -0.000011
                          1       5    4dxy              6.132625       1.515169
                                                         2.625196       0.650856
                                                         1.045457       1.132690
                                                         0.478316       0.330834
                                                         0.178617       0.032314
                                                         0.075145       0.006321
                                                         0.030287      -0.000019
                          1       5    4dxz              6.132625       1.515169
                                                         2.625196       0.650856
                                                         1.045457       1.132690
                                                         0.478316       0.330834
                                                         0.178617       0.032314
                                                         0.075145       0.006321
                                                         0.030287      -0.000019
                          1       5    4dy2              6.132625       0.874783
                                                         2.625196       0.375772
                                                         1.045457       0.653959
                                                         0.478316       0.191007
                                                         0.178617       0.018656
                                                         0.075145       0.003649
                                                         0.030287      -0.000011
                          1       5    4dyz              6.132625       1.515169
                                                         2.625196       0.650856
                                                         1.045457       1.132690
                                                         0.478316       0.330834
                                                         0.178617       0.032314
                                                         0.075145       0.006321
                                                         0.030287      -0.000019
                          1       5    4dz2              6.132625       0.874783
                                                         2.625196       0.375772
                                                         1.045457       0.653959
                                                         0.478316       0.191007
                                                         0.178617       0.018656
                                                         0.075145       0.003649
                                                         0.030287      -0.000011

       Atomic covalent radius [Angstrom]:                                  0.770

       Atomic van der Waals radius [Angstrom]:                             1.700

     GTH Potential information for                                    GTH-PBE-q4

       Description:                       Goedecker-Teter-Hutter pseudopotential
                                           Goedecker et al., PRB 54, 1703 (1996)
                                          Hartwigsen et al., PRB 58, 3641 (1998)
                                                      Krack, TCA 114, 145 (2005)

       Gaussian exponent of the core charge distribution:               4.364419
       Electronic configuration (s p d ...):                               2   2

       Parameters of the local part of the GTH pseudopotential:

                          rloc        C1          C2          C3          C4
                        0.338471   -8.803674    1.339211

       Parameters of the non-local part of the GTH pseudopotential:

                   l      r(l)      h(i,j,l)

                   0    0.302576    9.622487
                   1    0.291507

  7. Atomic kind: Au_tip                                Number of atoms:       5

     Orbital Basis Set                                    DZVP-MOLOPT-SR-GTH-q11

       Number of orbital shell sets:                                           1
       Number of orbital shells:                                               7
       Number of primitive Cartesian functions:                                5
       Number of Cartesian basis functions:                                   30
       Number of spherical basis functions:                                   25
       Norm type:                                                              2

       Normalised Cartesian orbitals:

                        Set   Shell   Orbital            Exponent    Coefficient

                          1       1    2s                2.950008       0.074626
                                                         1.563057      -0.007898
                                                         0.666664      -0.297688
                                                         0.251083       0.136809
                                                         0.081714       0.088198

                          1       2    3s                2.950008       0.228793
                                                         1.563057      -0.295041
                                                         0.666664       0.955676
                                                         0.251083      -0.809517
                                                         0.081714       0.207484

                          1       3    3px               2.950008       0.148824
                                                         1.563057       0.025430
                                                         0.666664      -0.123003
                                                         0.251083       0.033648
                                                         0.081714       0.059008
                          1       3    3py               2.950008       0.148824
                                                         1.563057       0.025430
                                                         0.666664      -0.123003
                                                         0.251083       0.033648
                                                         0.081714       0.059008
                          1       3    3pz               2.950008       0.148824
                                                         1.563057       0.025430
                                                         0.666664      -0.123003
                                                         0.251083       0.033648
                                                         0.081714       0.059008

                          1       4    4px               2.950008       0.169603
                                                         1.563057      -0.791540
                                                         0.666664       0.759522
                                                         0.251083      -0.513201
                                                         0.081714       0.071875
                          1       4    4py               2.950008       0.169603
                                                         1.563057      -0.791540
                                                         0.666664       0.759522
                                                         0.251083      -0.513201
                                                         0.081714       0.071875
                          1       4    4pz               2.950008       0.169603
                                                         1.563057      -0.791540
                                                         0.666664       0.759522
                                                         0.251083      -0.513201
                                                         0.081714       0.071875

                          1       5    4dx2              2.950008      -0.139595
                                                         1.563057       1.319655
                                                         0.666664       0.377081
                                                         0.251083       0.046872
                                                         0.081714       0.001393
                          1       5    4dxy              2.950008      -0.241786
                                                         1.563057       2.285709
                                                         0.666664       0.653124
                                                         0.251083       0.081185
                                                         0.081714       0.002412
                          1       5    4dxz              2.950008      -0.241786
                                                         1.563057       2.285709
                                                         0.666664       0.653124
                                                         0.251083       0.081185
                                                         0.081714       0.002412
                          1       5    4dy2              2.950008      -0.139595
                                                         1.563057       1.319655
                                                         0.666664       0.377081
                                                         0.251083       0.046872
                                                         0.081714       0.001393
                          1       5    4dyz              2.950008      -0.241786
                                                         1.563057       2.285709
                                                         0.666664       0.653124
                                                         0.251083       0.081185
                                                         0.081714       0.002412
                          1       5    4dz2              2.950008      -0.139595
                                                         1.563057       1.319655
                                                         0.666664       0.377081
                                                         0.251083       0.046872
                                                         0.081714       0.001393

                          1       6    5dx2              2.950008      -0.047309
                                                         1.563057      -0.613535
                                                         0.666664      -0.083031
                                                         0.251083      -0.023136
                                                         0.081714       0.021870
                          1       6    5dxy              2.950008      -0.081942
                                                         1.563057      -1.062673
                                                         0.666664      -0.143813
                                                         0.251083      -0.040072
                                                         0.081714       0.037880
                          1       6    5dxz              2.950008      -0.081942
                                                         1.563057      -1.062673
                                                         0.666664      -0.143813
                                                         0.251083      -0.040072
                                                         0.081714       0.037880
                          1       6    5dy2              2.950008      -0.047309
                                                         1.563057      -0.613535
                                                         0.666664      -0.083031
                                                         0.251083      -0.023136
                                                         0.081714       0.021870
                          1       6    5dyz              2.950008      -0.081942
                                                         1.563057      -1.062673
                                                         0.666664      -0.143813
                                                         0.251083      -0.040072
                                                         0.081714       0.037880
                          1       6    5dz2              2.950008      -0.047309
                                                         1.563057      -0.613535
                                                         0.666664      -0.083031
                                                         0.251083      -0.023136
                                                         0.081714       0.021870

                          1       7    5fx3              2.950008      -0.072925
                                                         1.563057      -0.623736
                                                         0.666664      -0.068759
                                                         0.251083      -0.019565
                                                         0.081714       0.005642
                          1       7    5fx2y             2.950008      -0.163065
                                                         1.563057      -1.394716
                                                         0.666664      -0.153751
                                                         0.251083      -0.043748
                                                         0.081714       0.012617
                          1       7    5fx2z             2.950008      -0.163065
                                                         1.563057      -1.394716
                                                         0.666664      -0.153751
                                                         0.251083      -0.043748
                                                         0.081714       0.012617
                          1       7    5fxy2             2.950008      -0.163065
                                                         1.563057      -1.394716
                                                         0.666664      -0.153751
                                                         0.251083      -0.043748
                                                         0.081714       0.012617
                          1       7    5fxyz             2.950008      -0.282436
                                                         1.563057      -2.415719
                                                         0.666664      -0.266304
                                                         0.251083      -0.075774
                                                         0.081714       0.021853
                          1       7    5fxz2             2.950008      -0.163065
                                                         1.563057      -1.394716
                                                         0.666664      -0.153751
                                                         0.251083      -0.043748
                                                         0.081714       0.012617
                          1       7    5fy3              2.950008      -0.072925
                                                         1.563057      -0.623736
                                                         0.666664      -0.068759
                                                         0.251083      -0.019565
                                                         0.081714       0.005642
                          1       7    5fy2z             2.950008      -0.163065
                                                         1.563057      -1.394716
                                                         0.666664      -0.153751
                                                         0.251083      -0.043748
                                                         0.081714       0.012617
                          1       7    5fyz2             2.950008      -0.163065
                                                         1.563057      -1.394716
                                                         0.666664      -0.153751
                                                         0.251083      -0.043748
                                                         0.081714       0.012617
                          1       7    5fz3              2.950008      -0.072925
                                                         1.563057      -0.623736
                                                         0.666664      -0.068759
                                                         0.251083      -0.019565
                                                         0.081714       0.005642

       Atomic covalent radius [Angstrom]:                                  1.340

       Atomic van der Waals radius [Angstrom]:                             1.660

     GTH Potential information for                                   GTH-PBE-q11

       Description:                       Goedecker-Teter-Hutter pseudopotential
                                           Goedecker et al., PRB 54, 1703 (1996)
                                          Hartwigsen et al., PRB 58, 3641 (1998)
                                                      Krack, TCA 114, 145 (2005)

       Gaussian exponent of the core charge distribution:               1.436369
[...]
    31 Broy./SMGL  0.30E+00   37.2     0.00349991     -5729.4935702819  2.08E-01
 SMEAGOL DEBUG| Number of electrons in the unit cell =      1915.9277929397
    32 Broy./SMGL  0.30E+00   37.0     0.00096550     -5729.6199631608 -1.26E-01
 SMEAGOL DEBUG| Number of electrons in the unit cell =      1915.9305454972
    33 Broy./SMGL  0.30E+00   37.0     0.00131397     -5729.5721420223  4.78E-02
 SMEAGOL DEBUG| Number of electrons in the unit cell =      1915.9335312190
    34 Broy./SMGL  0.30E+00   37.0     0.00071993     -5729.5175330422  5.46E-02
 SMEAGOL DEBUG| Number of electrons in the unit cell =      1915.9363655406
    35 Broy./SMGL  0.30E+00   36.9     0.00191452     -5729.4818001872  3.57E-02
 SMEAGOL DEBUG| Number of electrons in the unit cell =      1915.9369315997
    36 Broy./SMGL  0.30E+00   37.0     0.00419314     -5729.5161278576 -3.43E-02
 SMEAGOL DEBUG| Number of electrons in the unit cell =      1915.9442407198
    37 Broy./SMGL  0.30E+00   36.9     0.00386203     -5729.4695791013  4.65E-02
 SMEAGOL DEBUG| Number of electrons in the unit cell =      1915.9463813433
    38 Broy./SMGL  0.30E+00   36.9     0.00082545     -5729.5463825031 -7.68E-02
 SMEAGOL DEBUG| Number of electrons in the unit cell =      1915.9493673893
    39 Broy./SMGL  0.30E+00   37.1     0.00042546     -5729.5075956135  3.88E-02
 SMEAGOL DEBUG| Number of electrons in the unit cell =      1915.9490395896
    40 Broy./SMGL  0.30E+00   37.0     0.00064219     -5729.5094960657 -1.90E-03
 SMEAGOL DEBUG| Number of electrons in the unit cell =      1915.9503002583
    41 Broy./SMGL  0.30E+00   37.0     0.00069412     -5729.4804456762  2.91E-02
 SMEAGOL DEBUG| Number of electrons in the unit cell =      1915.9505370370
    42 Broy./SMGL  0.30E+00   37.0     0.00040781     -5729.5072406325 -2.68E-02
 SMEAGOL DEBUG| Number of electrons in the unit cell =      1915.9505403078
    43 Broy./SMGL  0.30E+00   37.0     0.00007174     -5729.4914487208  1.58E-02
 SMEAGOL DEBUG| Number of electrons in the unit cell =      1915.9506113418
    44 Broy./SMGL  0.30E+00   37.0     0.00003050     -5729.4919518223 -5.03E-04
 SMEAGOL DEBUG| Number of electrons in the unit cell =      1915.9506163582
    45 Broy./SMGL  0.30E+00   37.0     0.00000907     -5729.4915670538  3.85E-04
 SMEAGOL DEBUG| Number of electrons in the unit cell =      1915.9500543705
    46 Broy./SMGL  0.30E+00   37.0     0.00071988     -5729.4912873485  2.80E-04
 SMEAGOL DEBUG| Number of electrons in the unit cell =      1915.9501369776
    47 Broy./SMGL  0.30E+00   37.0     0.00074502     -5729.4970374120 -5.75E-03
 SMEAGOL DEBUG| Number of electrons in the unit cell =      1915.9498020976
    48 Broy./SMGL  0.30E+00   37.1     0.00006162     -5729.4913786842  5.66E-03
 SMEAGOL DEBUG| Number of electrons in the unit cell =      1915.9496918141
    49 Broy./SMGL  0.30E+00   37.0     0.00005655     -5729.4921813758 -8.03E-04
 SMEAGOL DEBUG| Number of electrons in the unit cell =      1915.9497735927
    50 Broy./SMGL  0.30E+00   37.0     0.00009049     -5729.4940952083 -1.91E-03
 SMEAGOL DEBUG| Number of electrons in the unit cell =      1915.9497867006
    51 Broy./SMGL  0.30E+00   37.0     0.00011196     -5729.4936145975  4.81E-04
 SMEAGOL DEBUG| Number of electrons in the unit cell =      1915.9496613013
    52 Broy./SMGL  0.30E+00   36.9     0.00016952     -5729.4931509745  4.64E-04
 SMEAGOL DEBUG| Number of electrons in the unit cell =      1915.9497499158
    53 Broy./SMGL  0.30E+00   37.0     0.00018060     -5729.4864465994  6.70E-03
 SMEAGOL DEBUG| Number of electrons in the unit cell =      1915.9494681837
    54 Broy./SMGL  0.30E+00   37.1     0.00032473     -5729.4944472512 -8.00E-03
 SMEAGOL DEBUG| Number of electrons in the unit cell =      1915.9494415824
    55 Broy./SMGL  0.30E+00   37.0     0.00026895     -5729.4924431027  2.00E-03
 SMEAGOL DEBUG| Number of electrons in the unit cell =      1915.9493945584
    56 Broy./SMGL  0.30E+00   37.0     0.00031141     -5729.4914995846  9.44E-04
 SMEAGOL DEBUG| Number of electrons in the unit cell =      1915.9493748441
    57 Broy./SMGL  0.30E+00   37.0     0.00017558     -5729.4922282128 -7.29E-04
 SMEAGOL DEBUG| Number of electrons in the unit cell =      1915.9495266117
    58 Broy./SMGL  0.30E+00   37.0     0.00068528     -5729.4900308942  2.20E-03
 SMEAGOL DEBUG| Number of electrons in the unit cell =      1915.9499599747
    59 Broy./SMGL  0.30E+00   36.9     0.00063049     -5729.4916804843 -1.65E-03
 SMEAGOL DEBUG| Number of electrons in the unit cell =      1915.9500100822
    60 Broy./SMGL  0.30E+00   37.1     0.00079881     -5729.4918714500 -1.91E-04
 SMEAGOL DEBUG| Number of electrons in the unit cell =      1915.9497832667
    61 Broy./SMGL  0.30E+00   36.9     0.00037950     -5729.5050296031 -1.32E-02
 SMEAGOL DEBUG| Number of electrons in the unit cell =      1915.9496754772
    62 Broy./SMGL  0.30E+00   37.0     0.00064333     -5729.5041261230  9.03E-04
 SMEAGOL DEBUG| Number of electrons in the unit cell =      1915.9501111153
    63 Broy./SMGL  0.30E+00   37.0     0.00096139     -5729.4905670546  1.36E-02
 SMEAGOL DEBUG| Number of electrons in the unit cell =      1915.9500582803
    64 Broy./SMGL  0.30E+00   36.9     0.00013167     -5729.5008550722 -1.03E-02
 SMEAGOL DEBUG| Number of electrons in the unit cell =      1915.9500553822
    65 Broy./SMGL  0.30E+00   36.9     0.00034084     -5729.5011759591 -3.21E-04
 SMEAGOL DEBUG| Number of electrons in the unit cell =      1915.9503735965
    66 Broy./SMGL  0.30E+00   36.9     0.00014603     -5729.4969383738  4.24E-03
 SMEAGOL DEBUG| Number of electrons in the unit cell =      1915.9503822130
    67 Broy./SMGL  0.30E+00   37.1     0.00067090     -5729.4967650830  1.73E-04
 SMEAGOL DEBUG| Number of electrons in the unit cell =      1915.9505085885
    68 Broy./SMGL  0.30E+00   37.0     0.00020975     -5729.4924550443  4.31E-03
 SMEAGOL DEBUG| Number of electrons in the unit cell =      1915.9505438777
    69 Broy./SMGL  0.30E+00   37.0     0.00026709     -5729.4929289751 -4.74E-04
 SMEAGOL DEBUG| Number of electrons in the unit cell =      1915.9506724299
    70 Broy./SMGL  0.30E+00   37.0     0.00022565     -5729.4942287091 -1.30E-03
 SMEAGOL DEBUG| Number of electrons in the unit cell =      1915.9506920741
    71 Broy./SMGL  0.30E+00   36.9     0.00008062     -5729.4916107517  2.62E-03
 SMEAGOL DEBUG| Number of electrons in the unit cell =      1915.9506413882
    72 Broy./SMGL  0.30E+00   37.0     0.00055466     -5729.4900807152  1.53E-03
 SMEAGOL DEBUG| Number of electrons in the unit cell =      1915.9506300297
    73 Broy./SMGL  0.30E+00   37.0     0.00011654     -5729.4918075503 -1.73E-03
 SMEAGOL DEBUG| Number of electrons in the unit cell =      1915.9506558035
    74 Broy./SMGL  0.30E+00   37.0     0.00003016     -5729.4900631205  1.74E-03
 SMEAGOL DEBUG| Number of electrons in the unit cell =      1915.9507247247
    75 Broy./SMGL  0.30E+00   37.1     0.00011743     -5729.4911455703 -1.08E-03
 SMEAGOL DEBUG| Number of electrons in the unit cell =      1915.9507380869
    76 Broy./SMGL  0.30E+00   37.0     0.00026889     -5729.4918620778 -7.17E-04
 SMEAGOL DEBUG| Number of electrons in the unit cell =      1915.9507429758
    77 Broy./SMGL  0.30E+00   36.9     0.00022326     -5729.4928935304 -1.03E-03
 SMEAGOL DEBUG| Number of electrons in the unit cell =      1915.9506891491
    78 Broy./SMGL  0.30E+00   37.1     0.00011691     -5729.4942703133 -1.38E-03
 SMEAGOL DEBUG| Number of electrons in the unit cell =      1915.9507083510
    79 Broy./SMGL  0.30E+00   37.1     0.00002091     -5729.4938982167  3.72E-04
 SMEAGOL DEBUG| Number of electrons in the unit cell =      1915.9505619716
    80 Broy./SMGL  0.30E+00   37.1     0.00106124     -5729.4973879115 -3.49E-03
 SMEAGOL DEBUG| Number of electrons in the unit cell =      1915.9505439952
    81 Broy./SMGL  0.30E+00   37.0     0.00018449     -5729.4928988932  4.49E-03
 SMEAGOL DEBUG| Number of electrons in the unit cell =      1915.9506680628
    82 Broy./SMGL  0.30E+00   37.0     0.00055421     -5729.4917583147  1.14E-03
 SMEAGOL DEBUG| Number of electrons in the unit cell =      1915.9509398097
    83 Broy./SMGL  0.30E+00   36.9     0.00057548     -5729.4889144701  2.84E-03
 SMEAGOL DEBUG| Number of electrons in the unit cell =      1915.9508945180
    84 Broy./SMGL  0.30E+00   37.1     0.00024645     -5729.4972359040 -8.32E-03
 SMEAGOL DEBUG| Number of electrons in the unit cell =      1915.9509483236
    85 Broy./SMGL  0.30E+00   37.0     0.00028567     -5729.4946839270  2.55E-03
 SMEAGOL DEBUG| Number of electrons in the unit cell =      1915.9508831046
    86 Broy./SMGL  0.30E+00   37.0     0.00028739     -5729.4984959538 -3.81E-03
 SMEAGOL DEBUG| Number of electrons in the unit cell =      1915.9508815297
    87 Broy./SMGL  0.30E+00   37.0     0.00010614     -5729.4952285808  3.27E-03
 SMEAGOL DEBUG| Number of electrons in the unit cell =      1915.9508991979
    88 Broy./SMGL  0.30E+00   37.0     0.00005208     -5729.4962876642 -1.06E-03
 SMEAGOL DEBUG| Number of electrons in the unit cell =      1915.9509099612
    89 Broy./SMGL  0.30E+00   36.9     0.00020707     -5729.4970686834 -7.81E-04
 SMEAGOL DEBUG| Number of electrons in the unit cell =      1915.9509945618
    90 Broy./SMGL  0.30E+00   37.1     0.00033582     -5729.4951982151  1.87E-03
 SMEAGOL DEBUG| Number of electrons in the unit cell =      1915.9509295706
    91 Broy./SMGL  0.30E+00   37.0     0.00048494     -5729.4947967902  4.01E-04
 SMEAGOL DEBUG| Number of electrons in the unit cell =      1915.9509548278
    92 Broy./SMGL  0.30E+00   36.9     0.00041118     -5729.4947667721  3.00E-05
 SMEAGOL DEBUG| Number of electrons in the unit cell =      1915.9509723526
    93 Broy./SMGL  0.30E+00   37.0     0.00036083     -5729.4934073621  1.36E-03
 SMEAGOL DEBUG| Number of electrons in the unit cell =      1915.9509393870
    94 Broy./SMGL  0.30E+00   37.1     0.00040500     -5729.4922251015  1.18E-03
 SMEAGOL DEBUG| Number of electrons in the unit cell =      1915.9509180859
    95 Broy./SMGL  0.30E+00   37.0     0.00033440     -5729.4914621174  7.63E-04
 SMEAGOL DEBUG| Number of electrons in the unit cell =      1915.9509015343
    96 Broy./SMGL  0.30E+00   37.0     0.00047127     -5729.4928434710 -1.38E-03
 SMEAGOL DEBUG| Number of electrons in the unit cell =      1915.9508954333
    97 Broy./SMGL  0.30E+00   37.0     0.00036533     -5729.4951058575 -2.26E-03
 SMEAGOL DEBUG| Number of electrons in the unit cell =      1915.9508639480
    98 Broy./SMGL  0.30E+00   36.9     0.00011163     -5729.4991597985 -4.05E-03
 SMEAGOL DEBUG| Number of electrons in the unit cell =      1915.9508809985
    99 Broy./SMGL  0.30E+00   37.1     0.00028103     -5729.4965199758  2.64E-03
 SMEAGOL DEBUG| Number of electrons in the unit cell =      1915.9508943688
   100 Broy./SMGL  0.30E+00   37.0     0.00019826     -5729.4996385916 -3.12E-03
 SMEAGOL DEBUG| Number of electrons in the unit cell =      1915.9508578069
   101 Broy./SMGL  0.30E+00   37.0     0.00038716     -5729.5030522815 -3.41E-03
 SMEAGOL DEBUG| Number of electrons in the unit cell =      1915.9508792417
   102 Broy./SMGL  0.30E+00   37.0     0.00101031     -5729.5026461573  4.06E-04
 SMEAGOL DEBUG| Number of electrons in the unit cell =      1915.9508201143
   103 Broy./SMGL  0.30E+00   37.0     0.00023611     -5729.4944093373  8.24E-03
 SMEAGOL DEBUG| Number of electrons in the unit cell =      1915.9508284181
   104 Broy./SMGL  0.30E+00   37.2     0.00016996     -5729.4926471541  1.76E-03
 SMEAGOL DEBUG| Number of electrons in the unit cell =      1915.9508093622
   105 Broy./SMGL  0.30E+00   37.1     0.00020279     -5729.4935584450 -9.11E-04
 SMEAGOL DEBUG| Number of electrons in the unit cell =      1915.9508088033
   106 Broy./SMGL  0.30E+00   37.0     0.00001497     -5729.4932776727  2.81E-04
 SMEAGOL DEBUG| Number of electrons in the unit cell =      1915.9508119754
   107 Broy./SMGL  0.30E+00   37.0     0.00004733     -5729.4931181712  1.60E-04
 SMEAGOL DEBUG| Number of electrons in the unit cell =      1915.9508120151
   108 Broy./SMGL  0.30E+00   37.0     0.00001517     -5729.4931952783 -7.71E-05
 SMEAGOL DEBUG| Number of electrons in the unit cell =      1915.9508080309
   109 Broy./SMGL  0.30E+00   37.0     0.00007029     -5729.4934202289 -2.25E-04
 SMEAGOL DEBUG| Number of electrons in the unit cell =      1915.9507872195
   110 Broy./SMGL  0.30E+00   37.1     0.00069433     -5729.4912184507  2.20E-03
 SMEAGOL DEBUG| Number of electrons in the unit cell =      1915.9508312962
   111 Broy./SMGL  0.30E+00   37.0     0.00142921     -5729.4901889951  1.03E-03
 SMEAGOL DEBUG| Number of electrons in the unit cell =      1915.9508279332
   112 Broy./SMGL  0.30E+00   37.0     0.00035530     -5729.5007396151 -1.06E-02
 SMEAGOL DEBUG| Number of electrons in the unit cell =      1915.9508296889
   113 Broy./SMGL  0.30E+00   37.0     0.00015408     -5729.5046057718 -3.87E-03
 SMEAGOL DEBUG| Number of electrons in the unit cell =      1915.9508107488
   114 Broy./SMGL  0.30E+00   37.0     0.00017203     -5729.5067254028 -2.12E-03
 SMEAGOL DEBUG| Number of electrons in the unit cell =      1915.9507996113
   115 Broy./SMGL  0.30E+00   37.1     0.00025165     -5729.5052194872  1.51E-03
 SMEAGOL DEBUG| Number of electrons in the unit cell =      1915.9507992592
   116 Broy./SMGL  0.30E+00   37.1     0.00021891     -5729.5029763394  2.24E-03
 SMEAGOL DEBUG| Number of electrons in the unit cell =      1915.9507395380
   117 Broy./SMGL  0.30E+00   37.1     0.00074250     -5729.5028691491  1.07E-04
 SMEAGOL DEBUG| Number of electrons in the unit cell =      1915.9507293843
   118 Broy./SMGL  0.30E+00   37.0     0.00032183     -5729.4964826658  6.39E-03
 SMEAGOL DEBUG| Number of electrons in the unit cell =      1915.9507329655
   119 Broy./SMGL  0.30E+00   37.0     0.00039660     -5729.4947495676  1.73E-03
 SMEAGOL DEBUG| Number of electrons in the unit cell =      1915.9507060856
   120 Broy./SMGL  0.30E+00   37.1     0.00012990     -5729.4941994112  5.50E-04
 SMEAGOL DEBUG| Number of electrons in the unit cell =      1915.9506952294
   121 Broy./SMGL  0.30E+00   37.0     0.00031011     -5729.4935665306  6.33E-04
 SMEAGOL DEBUG| Number of electrons in the unit cell =      1915.9506859358
   122 Broy./SMGL  0.30E+00   37.0     0.00022258     -5729.4936283130 -6.18E-05
 SMEAGOL DEBUG| Number of electrons in the unit cell =      1915.9506748055
   123 Broy./SMGL  0.30E+00   37.0     0.00016922     -5729.4942013597 -5.73E-04
 SMEAGOL DEBUG| Number of electrons in the unit cell =      1915.9506884221
   124 Broy./SMGL  0.30E+00   37.0     0.00015447     -5729.4940632740  1.38E-04
 SMEAGOL DEBUG| Number of electrons in the unit cell =      1915.9506788980
   125 Broy./SMGL  0.30E+00   37.0     0.00011601     -5729.4941236674 -6.04E-05
 SMEAGOL DEBUG| Number of electrons in the unit cell =      1915.9506899578
   126 Broy./SMGL  0.30E+00   37.0     0.00022648     -5729.4936297657  4.94E-04
 SMEAGOL DEBUG| Number of electrons in the unit cell =      1915.9507179026
   127 Broy./SMGL  0.30E+00   37.0     0.00019904     -5729.4926305828  9.99E-04
 SMEAGOL DEBUG| Number of electrons in the unit cell =      1915.9507400165
   128 Broy./SMGL  0.30E+00   37.0     0.00072756     -5729.4902899420  2.34E-03
 SMEAGOL DEBUG| Number of electrons in the unit cell =      1915.9507687419
   129 Broy./SMGL  0.30E+00   37.0     0.00040336     -5729.4929516191 -2.66E-03
 SMEAGOL DEBUG| Number of electrons in the unit cell =      1915.9507847931
   130 Broy./SMGL  0.30E+00   37.0     0.00047649     -5729.4948863595 -1.93E-03
 SMEAGOL DEBUG| Number of electrons in the unit cell =      1915.9507840451
   131 Broy./SMGL  0.30E+00   36.9     0.00018086     -5729.4998328667 -4.95E-03
 SMEAGOL DEBUG| Number of electrons in the unit cell =      1915.9507386250
   132 Broy./SMGL  0.30E+00   37.0     0.00091990     -5729.5012914557 -1.46E-03
 SMEAGOL DEBUG| Number of electrons in the unit cell =      1915.9506997730
   133 Broy./SMGL  0.30E+00   37.0     0.00062915     -5729.4953880555  5.90E-03
 SMEAGOL DEBUG| Number of electrons in the unit cell =      1915.9506962020
   134 Broy./SMGL  0.30E+00   37.0     0.00013682     -5729.4938860265  1.50E-03
 SMEAGOL DEBUG| Number of electrons in the unit cell =      1915.9506353607
   135 Broy./SMGL  0.30E+00   37.0     0.00083296     -5729.4970831567 -3.20E-03
 SMEAGOL DEBUG| Number of electrons in the unit cell =      1915.9505859682
   136 Broy./SMGL  0.30E+00   37.0     0.00087136     -5729.5061585987 -9.08E-03
 SMEAGOL DEBUG| Number of electrons in the unit cell =      1915.9505451473
   137 Broy./SMGL  0.30E+00   37.0     0.00116635     -5729.5288714251 -2.27E-02
 SMEAGOL DEBUG| Number of electrons in the unit cell =      1915.9506330612
   138 Broy./SMGL  0.30E+00   37.0     0.00042061     -5729.5619955499 -3.31E-02
 SMEAGOL DEBUG| Number of electrons in the unit cell =      1915.9506381158
   139 Broy./SMGL  0.30E+00   37.0     0.00071046     -5729.5518518456  1.01E-02
 SMEAGOL DEBUG| Number of electrons in the unit cell =      1915.9510837602
   140 Broy./SMGL  0.30E+00   37.0     0.00597235     -5729.5096213461  4.22E-02
 SMEAGOL DEBUG| Number of electrons in the unit cell =      1915.9510551292
   141 Broy./SMGL  0.30E+00   37.0     0.00071282     -5729.5280903199 -1.85E-02
 SMEAGOL DEBUG| Number of electrons in the unit cell =      1915.9508325231
   142 Broy./SMGL  0.30E+00   37.0     0.00426762     -5729.5425011230 -1.44E-02
 SMEAGOL DEBUG| Number of electrons in the unit cell =      1915.9508562296
   143 Broy./SMGL  0.30E+00   37.0     0.00021044     -5729.4948583347  4.76E-02
 SMEAGOL DEBUG| Number of electrons in the unit cell =      1915.9508355352
   144 Broy./SMGL  0.30E+00   37.0     0.00019328     -5729.4941266962  7.32E-04
 SMEAGOL DEBUG| Number of electrons in the unit cell =      1915.9507927937
   145 Broy./SMGL  0.30E+00   37.0     0.00011093     -5729.4938211951  3.06E-04
 SMEAGOL DEBUG| Number of electrons in the unit cell =      1915.9507647871
   146 Broy./SMGL  0.30E+00   37.0     0.00049074     -5729.4944483476 -6.27E-04
 SMEAGOL DEBUG| Number of electrons in the unit cell =      1915.9506341868
   147 Broy./SMGL  0.30E+00   37.0     0.00118740     -5729.4971634906 -2.72E-03
 SMEAGOL DEBUG| Number of electrons in the unit cell =      1915.9504847674
   148 Broy./SMGL  0.30E+00   37.0     0.00113715     -5729.5094738024 -1.23E-02
 SMEAGOL DEBUG| Number of electrons in the unit cell =      1915.9502420094
   149 Broy./SMGL  0.30E+00   37.0     0.00258143     -5729.5476895707 -3.82E-02
 SMEAGOL DEBUG| Number of electrons in the unit cell =      1915.9496477604
   150 Broy./SMGL  0.30E+00   37.0     0.00362372     -5729.6707695719 -1.23E-01
 SMEAGOL DEBUG| Number of electrons in the unit cell =      1915.9493557336
   151 Broy./SMGL  0.30E+00   36.9     0.00110197     -5729.8569868702 -1.86E-01
 SMEAGOL DEBUG| Number of electrons in the unit cell =      1915.9510525282
   152 Broy./SMGL  0.30E+00   37.0     0.00643927     -5729.8620751804 -5.09E-03
 SMEAGOL DEBUG| Number of electrons in the unit cell =      1915.9484645969
   153 Broy./SMGL  0.30E+00   37.0     0.00646232     -5729.5716408903  2.90E-01
 SMEAGOL DEBUG| Number of electrons in the unit cell =      1915.9514273159
   154 Broy./SMGL  0.30E+00   37.0     0.00652030     -5729.7725548239 -2.01E-01
 SMEAGOL DEBUG| Number of electrons in the unit cell =      1915.9508025166
   155 Broy./SMGL  0.30E+00   36.9     0.00688160     -5729.5340488755  2.39E-01
 SMEAGOL DEBUG| Number of electrons in the unit cell =      1915.9507689531
   156 Broy./SMGL  0.30E+00   37.1     0.00604803     -5729.5000413905  3.40E-02
 SMEAGOL DEBUG| Number of electrons in the unit cell =      1915.9508857779
   157 Broy./SMGL  0.30E+00   37.0     0.00143389     -5729.4748281492  2.52E-02
 SMEAGOL DEBUG| Number of electrons in the unit cell =      1915.9512322796
