ATOMS
H             0.00000000      0.00000000     -0.00998254             0.70710610      0.00096973      0.00012960
H             0.00000000      0.00000000      0.73998166            -0.70710610     -0.00096973     -0.00012960
