#     Step Nr.          Time[fs]        Kin.[a.u.]          Temp[K]            Pot.[a.u.]        Cons Qty[a.u.]        UsedTime[s]
      2001         1000.500000         0.717241093       296.642506221     -9597.353648051     -9596.636406958      6293.906887532
      2002         1001.000000         0.718258697       297.063375531     -9597.354984958     -9596.636726260      2140.654064670
      2003         1001.500000         0.720860487       298.139445269     -9597.357892360     -9596.637031873      2246.040384682
      2004         1002.000000         0.722732192       298.913560542     -9597.359917949     -9596.637185757      2360.339805975
      2005         1002.500000         0.722680159       298.892040428     -9597.359810772     -9596.637130613      2137.547072678
      2006         1003.000000         0.721350111       298.341948032     -9597.358329792     -9596.636979681      2371.203552665
      2007         1003.500000         0.720326898       297.918759326     -9597.357194643     -9596.636867744      2064.589139168
      2008         1004.000000         0.720379216       297.940397290     -9597.357260796     -9596.636881580      2829.416375788
      2009         1004.500000         0.720426441       297.959929034     -9597.357425285     -9596.636998844      2082.597568914
      2010         1005.000000         0.718260078       297.063946743     -9597.355338552     -9596.637078473      2138.303942310
      2011         1005.500000         0.712446740       294.659618171     -9597.349486126     -9596.637039386      3011.429942187
      2012         1006.000000         0.703736435       291.057138092     -9597.340610523     -9596.636874088      2023.728851107
      2013         1006.500000         0.694870436       287.390265025     -9597.331578427     -9596.636707990      2882.910676149
      2014         1007.000000         0.689079548       284.995221642     -9597.325740980     -9596.636661432      2083.632362549
      2015         1007.500000         0.688404309       284.715950470     -9597.325177693     -9596.636773384      2027.039181197
      2016         1008.000000         0.692921566       286.584234996     -9597.329940433     -9596.637018867      1978.889408375
      2017         1008.500000         0.701159420       289.991314783     -9597.338462234     -9596.637302815      2845.469610975
      2018         1009.000000         0.710938970       294.036022008     -9597.348556774     -9596.637617805      2030.727147665
      2019         1009.500000         0.719830215       297.713336672     -9597.357771988     -9596.637941774      2089.085540075
      2020         1010.000000         0.725474473       300.047735672     -9597.363673718     -9596.638199245      2205.204470522
      2021         1010.500000         0.726423326       300.440170187     -9597.364712146     -9596.638288820      2199.733859847
      2022         1011.000000         0.723176629       299.097374610     -9597.361354417     -9596.638177788      2308.989099892
      2023         1011.500000         0.718389898       297.117638662     -9597.356318227     -9596.637928329      2202.272057077
      2024         1012.000000         0.715765974       296.032414438     -9597.353424575     -9596.637658601      2375.054159215
      2025         1012.500000         0.718215169       297.045372942     -9597.355683983     -9596.637468813      3003.106963685
      2026         1013.000000         0.726457700       300.454387025     -9597.363816356     -9596.637358656      2414.090334165
      2027         1013.500000         0.738785995       305.553225072     -9597.376094034     -9596.637308040      2785.719251203
      2028         1014.000000         0.751770120       310.923307107     -9597.389022554     -9596.637252434      2327.154245680
      2029         1014.500000         0.761401033       314.906539902     -9597.398537836     -9596.637136803      3127.728844386
      2030         1015.000000         0.764348427       316.125547255     -9597.401250436     -9596.636902009      2786.424019405
      2031         1015.500000         0.759019966       313.921758311     -9597.395560577     -9596.636540611      2120.971423164
      2032         1016.000000         0.746171545       308.607801928     -9597.382221957     -9596.636050412      2038.538805502
      2033         1016.500000         0.728968876       301.492980008     -9597.364443964     -9596.635475088      2030.356939130
      2034         1017.000000         0.712331466       294.611942116     -9597.347288394     -9596.634956928      2891.545255590
      2035         1017.500000         0.701473965       290.121407181     -9597.336066235     -9596.634592269      2302.270840351
      2036         1018.000000         0.699959657       289.495106849     -9597.334493265     -9596.634533608      2942.596874100
      2037         1018.500000         0.707908551       292.782676436     -9597.342742357     -9596.634833806      3120.677725882
      2038         1019.000000         0.721394846       298.360449700     -9597.356794769     -9596.635399924      2035.673086411
      2039         1019.500000         0.734040782       303.590660679     -9597.370001809     -9596.635961027      2199.958436517
      2040         1020.000000         0.740305070       306.181496748     -9597.376597620     -9596.636292550      2094.620190325
      2041         1020.500000         0.738275433       305.342062628     -9597.374639384     -9596.636363951      2254.291331949
      2042         1021.000000         0.730157923       301.984755771     -9597.366432273     -9596.636274350      2202.154231227
      2043         1021.500000         0.720578543       298.022836649     -9597.356724320     -9596.636145777      2315.050683144
      2044         1022.000000         0.714182888       295.377668790     -9597.350261631     -9596.636078742      2896.044950928
      2045         1022.500000         0.713972553       295.290676721     -9597.350077232     -9596.636104679      2874.422474169
      2046         1023.000000         0.720814420       298.120392409     -9597.356973085     -9596.636158666      2199.285489684
      2047         1023.500000         0.733561309       303.392356332     -9597.369850570     -9596.636289262      2373.183108415
      2048         1024.000000         0.749211185       309.864961392     -9597.385678522     -9596.636467338      2253.124999560
      2049         1024.500000         0.763328181       315.703585773     -9597.399921386     -9596.636593204      2098.715723658
      2050         1025.000000         0.771226718       318.970327715     -9597.407820076     -9596.636593359      2087.623517883
      2051         1025.500000         0.769727110       318.350107651     -9597.406082139     -9596.636355028      2021.588565268
      2052         1026.000000         0.758653453       313.770172727     -9597.394526427     -9596.635872974      2831.151103675
      2053         1026.500000         0.741373119       306.623229544     -9597.376583956     -9596.635210837      2143.890105238
      2054         1027.000000         0.724035786       299.452711728     -9597.358559322     -9596.634523536      2136.807392722
      2055         1027.500000         0.713346304       295.031667121     -9597.347382811     -9596.634036507      2951.205697813
      2056         1028.000000         0.713423438       295.063568893     -9597.347358573     -9596.633935136      2255.033043608
      2057         1028.500000         0.723513456       299.236682216     -9597.357747295     -9596.634233839      3184.349597552
      2058         1029.000000         0.738274888       305.341837540     -9597.372988685     -9596.634713797      2078.816655457
      2059         1029.500000         0.750520409       310.406441287     -9597.385688096     -9596.635167687      2132.267912496
      2060         1030.000000         0.754704678       312.137005968     -9597.390088994     -9596.635384315      3216.889820179
      2061         1030.500000         0.749400772       309.943372697     -9597.384724986     -9596.635324214      2027.397684608
      2062         1031.000000         0.737721004       305.112757334     -9597.372805792     -9596.635084789      2078.144849982
      2063         1031.500000         0.725507200       300.061271435     -9597.360368397     -9596.634861196      2195.577654777
      2064         1032.000000         0.718356501       297.103826175     -9597.353114082     -9596.634757581      3058.462144215
      2065         1032.500000         0.719338078       297.509794743     -9597.354134831     -9596.634796754      2256.242732097
      2066         1033.000000         0.728358988       301.240737451     -9597.363270772     -9596.634911784      2305.202258666
      2067         1033.500000         0.742620140       307.138982737     -9597.377691882     -9596.635071742      2359.249473986
      2068         1034.000000         0.757470433       313.280889537     -9597.392651223     -9596.635180791      2192.795780778
      2069         1034.500000         0.767775640       317.543002329     -9597.402892463     -9596.635116824      2150.339413041
      2070         1035.000000         0.769806847       318.383085774     -9597.404607955     -9596.634801108      2141.334552108
      2071         1035.500000         0.762786832       315.479689964     -9597.397003620     -9596.634216788      4010.236174958
      2072         1036.000000         0.749229670       309.872606587     -9597.382689390     -9596.633459721      1967.789698872
      2073         1036.500000         0.734065824       303.601017819     -9597.366700572     -9596.632634748      2998.884800147
      2074         1037.000000         0.723049252       299.044692704     -9597.354935381     -9596.631886130      3005.443148068
      2075         1037.500000         0.720793105       298.111576860     -9597.352164184     -9596.631371079      3159.940264217
      2076         1038.000000         0.728774179       301.412455518     -9597.359959661     -9596.631185482      2023.627536967
      2077         1038.500000         0.744244715       307.810887717     -9597.375548361     -9596.631303646      2193.995017996
      2078         1039.000000         0.761083699       314.775294120     -9597.392632372     -9596.631548673      2144.871394467
      2079         1039.500000         0.772425698       319.466212025     -9597.404145827     -9596.631720129      2202.113316764
      2080         1040.000000         0.773803876       320.036210106     -9597.405456641     -9596.631652765      2043.658017734
      2081         1040.500000         0.765422187       316.569641710     -9597.396758416     -9596.631336229      2957.248252713
      2082         1041.000000         0.752328569       311.154274878     -9597.383226727     -9596.630898159      1916.171396950
      2083         1041.500000         0.741965488       306.868226303     -9597.372551746     -9596.630586258      2900.023323920
      2084         1042.000000         0.740352312       306.201035739     -9597.370909340     -9596.630557028      2200.887865382
      2085         1042.500000         0.749277251       309.892285785     -9597.380121859     -9596.630844607      2677.400628933
      2086         1043.000000         0.765831577       316.738960911     -9597.397117301     -9596.631285724      2378.736406566
      2087         1043.500000         0.783962143       324.237550409     -9597.415659294     -9596.631697150      2370.053967025
      2088         1044.000000         0.797015308       329.636186129     -9597.428921895     -9596.631906587      3398.578129287
      2089         1044.500000         0.800205235       330.955502635     -9597.432024009     -9596.631818774      2951.540646288
      2090         1045.000000         0.792221877       327.653679619     -9597.423614678     -9596.631392800      2196.055790315
      2091         1045.500000         0.775579437       320.770561323     -9597.406295015     -9596.630715579      2787.209903202
      2092         1046.000000         0.755628447       312.519065795     -9597.385526664     -9596.629898218      2783.318428336
      2093         1046.500000         0.738582645       305.469121963     -9597.367686941     -9596.629104296      2779.125015039
      2094         1047.000000         0.729301371       301.630496124     -9597.357786522     -9596.628485151      2027.086615973
      2095         1047.500000         0.729666903       301.781675778     -9597.357742497     -9596.628075593      2097.811568660
      2096         1048.000000         0.738123693       305.279304986     -9597.365994044     -9596.627870351      1921.475563519
      2097         1048.500000         0.750366747       310.342888343     -9597.378158427     -9596.627791681      2142.783259592
      2098         1049.000000         0.760727606       314.628018119     -9597.388490228     -9596.627762622      2091.397230084
      2099         1049.500000         0.763933205       315.953816519     -9597.391606990     -9596.627673785      2198.274661091
      2100         1050.000000         0.757149995       313.148360353     -9597.384560419     -9596.627410424      3020.417897082
      2101         1050.500000         0.741707169       306.761388477     -9597.368656516     -9596.626949347      2787.781484686
      2102         1051.000000         0.723166604       299.093228226     -9597.349596228     -9596.626429624      2898.695528637
      2103         1051.500000         0.709021890       293.243140232     -9597.335115345     -9596.626093455      2046.502581276
      2104         1052.000000         0.705038312       291.595579343     -9597.331129635     -9596.626091323      1986.584890392
      2105         1052.500000         0.712383598       294.633503342     -9597.338822169     -9596.626438571      3067.243321169
      2106         1053.000000         0.727321469       300.811631584     -9597.354265374     -9596.626943905      2250.614662257
      2107         1053.500000         0.743448274       307.481488943     -9597.370818633     -9596.627370360      2259.846553881
      2108         1054.000000         0.754690614       312.131189234     -9597.382277100     -9596.627586486      2373.786730509
      2109         1054.500000         0.757357112       313.234021483     -9597.384874481     -9596.627517369      2898.774611845
      2110         1055.000000         0.750920279       310.571822852     -9597.378098919     -9596.627178640      2893.707947878
      2111         1055.500000         0.737976886       305.218587075     -9597.364594683     -9596.626617798      2309.121817684
      2112         1056.000000         0.723447099       299.209237860     -9597.349380499     -9596.625933399      2266.135907917
      2113         1056.500000         0.712796251       294.804171699     -9597.338099151     -9596.625302901      2142.251131009
      2114         1057.000000         0.709835311       293.579561779     -9597.334683116     -9596.624847805      2092.830118430
      2115         1057.500000         0.715245750       295.817255719     -9597.339843473     -9596.624597723      2306.973877838
      2116         1058.000000         0.726352839       300.411017708     -9597.350877193     -9596.624524354      2892.375556866
      2117         1058.500000         0.738075674       305.259444786     -9597.362604504     -9596.624528830      3066.319895350
      2118         1059.000000         0.745016042       308.129899557     -9597.369446124     -9596.624430082      3107.263347614
      2119         1059.500000         0.744153125       307.773007332     -9597.368262169     -9596.624109044      2198.331919997
      2120         1060.000000         0.736580135       304.640907401     -9597.360208128     -9596.623627993      2206.310674982
      2121         1060.500000         0.726681255       300.546846511     -9597.349913052     -9596.623231797      2160.686345010
      2122         1061.000000         0.719085663       297.405398772     -9597.342185108     -9596.623099446      2098.065742897
      2123         1061.500000         0.716065312       296.156216936     -9597.339278831     -9596.623213520      2029.363465936
      2124         1062.000000         0.717509730       296.753611300     -9597.340927286     -9596.623417557      3188.717338200
      2125         1062.500000         0.722553429       298.839626086     -9597.346200665     -9596.623647237      2030.804253706
      2126         1063.000000         0.730505977       302.128707010     -9597.354471568     -9596.623965590      2027.051585596
      2127         1063.500000         0.740238939       306.154145974     -9597.364676153     -9596.624437213      2091.416644420
      2128         1064.000000         0.749188663       309.855646552     -9597.374210354     -9596.625021691      2199.501565686
      2129         1064.500000         0.753728468       311.733256730     -9597.379270914     -9596.625542447      2914.608661959
      2130         1065.000000         0.751350911       310.749926995     -9597.377184311     -9596.625833401      2369.645995329
      2131         1065.500000         0.742880063       307.246483912     -9597.368739965     -9596.625859901      2823.231828912
      2132         1066.000000         0.732450155       302.932795975     -9597.358244042     -9596.625793887      2833.482654633
      2133         1066.500000         0.725110975       299.897397447     -9597.350935292     -9596.625824316      3072.543217285
      2134         1067.000000         0.724015232       299.444210746     -9597.350058653     -9596.626043422      2030.513752901
      2135         1067.500000         0.728971460       301.494048654     -9597.355424705     -9596.626453245      2026.608551025
      2136         1068.000000         0.736749886       304.711114195     -9597.363675809     -9596.626925923      2849.830804566
      2137         1068.500000         0.742884724       307.248411558     -9597.370170595     -9596.627285870      2211.579059731
      2138         1069.000000         0.744466638       307.902672587     -9597.371847099     -9596.627380461      2093.807243479
      2139         1069.500000         0.742287598       307.001447267     -9597.369537599     -9596.627250000      2081.915834037
      2140         1070.000000         0.740126393       306.107598207     -9597.367289640     -9596.627163247      4323.691863489
      2141         1070.500000         0.741177177       306.542190091     -9597.368542947     -9596.627365770      2922.532598644
      2142         1071.000000         0.744895250       308.079941527     -9597.372729022     -9596.627833771      2949.626654415
      2143         1071.500000         0.747517292       309.164387269     -9597.375785636     -9596.628268344      1994.530703355
      2144         1072.000000         0.745670275       308.400482537     -9597.374130344     -9596.628460069      1957.696199085
      2145         1072.500000         0.739540319       305.865204836     -9597.367943393     -9596.628403074      2944.067696160
      2146         1073.000000         0.732938780       303.134885806     -9597.361266336     -9596.628327556      2008.312694907
      2147         1073.500000         0.730477136       302.116778350     -9597.358915163     -9596.628438027      1961.000985110
      2148         1074.000000         0.734289643       303.693586610     -9597.363110613     -9596.628820970      2024.472210625
      2149         1074.500000         0.742801746       307.214092603     -9597.372159770     -9596.629358024      2135.153077058
      2150         1075.000000         0.752081916       311.052262277     -9597.381943253     -9596.629861337      2665.677912368
      2151         1075.500000         0.758352050       313.645516033     -9597.388546574     -9596.630194524      2133.579561786
      2152         1076.000000         0.759896951       314.284469105     -9597.390217216     -9596.630320265      2087.519762681
      2153         1076.500000         0.757487099       313.287782592     -9597.387784375     -9596.630297276      1969.362486573
      2154         1077.000000         0.753425713       311.608040885     -9597.383648706     -9596.630222993      2774.351088423
      2155         1077.500000         0.749963521       310.176118901     -9597.380138730     -9596.630175209      3055.454258911
      2156         1078.000000         0.748063221       309.390176975     -9597.378207090     -9596.630143870      1914.548577308
      2157         1078.500000         0.747378309       309.106905342     -9597.377420503     -9596.630042195      1955.345751981
      2158         1079.000000         0.747453259       309.137903992     -9597.377257615     -9596.629804356      2762.871771462
      2159         1079.500000         0.748738472       309.669453171     -9597.378216816     -9596.629478344      2296.376447430
      2160         1080.000000         0.751935833       310.991844019     -9597.381155859     -9596.629220026      2023.590064264
      2161         1080.500000         0.756287510       312.791646443     -9597.385355320     -9596.629067810      2948.945010559
      2162         1081.000000         0.759099326       313.954580720     -9597.388038391     -9596.628939065      1968.881033655
      2163         1081.500000         0.757523881       313.302994954     -9597.386177472     -9596.628653591      1971.407049778
      2164         1082.000000         0.750922553       310.572763468     -9597.379092595     -9596.628170042      2931.766838521
      2165         1082.500000         0.741532676       306.689220327     -9597.369161361     -9596.627628685      1958.002831298
      2166         1083.000000         0.733073150       303.190459606     -9597.360239675     -9596.627166525      1912.994374721
      2167         1083.500000         0.728674337       301.371162054     -9597.355558653     -9596.626884316      2020.022697181
      2168         1084.000000         0.729573093       301.742876862     -9597.356338288     -9596.626765195      2057.802072366
      2169         1084.500000         0.735056487       304.010744363     -9597.361818686     -9596.626762199      2149.200409707
      2170         1085.000000         0.743279673       307.411757639     -9597.370080451     -9596.626800778      2130.098691416
      2171         1085.500000         0.752232778       311.114656818     -9597.379065329     -9596.626832552      2254.674222261
      2172         1086.000000         0.760254568       314.432375077     -9597.387147649     -9596.626893082      2140.125041612
      2173         1086.500000         0.766050179       316.829372073     -9597.392988400     -9596.626938221      1905.477536961
      2174         1087.000000         0.768813579       317.972281781     -9597.395740705     -9596.626927127      2902.295209145
      2175         1087.500000         0.768910213       318.012248764     -9597.395723414     -9596.626813200      3043.243749839
      2176         1088.000000         0.768317146       317.766963062     -9597.394961677     -9596.626644531      2194.462107055
      2177         1088.500000         0.769503876       318.257780478     -9597.396059580     -9596.626555705      2018.971576661
      2178         1089.000000         0.773469470       319.897903687     -9597.400060385     -9596.626590915      2879.499338255
      2179         1089.500000         0.779293515       322.306660489     -9597.405909658     -9596.626616143      2782.517430269
      2180         1090.000000         0.785403531       324.833691528     -9597.411987626     -9596.626584095      2103.379271809
      2181         1090.500000         0.790354537       326.881369717     -9597.416888696     -9596.626534158      2136.218023746
      2182         1091.000000         0.792443299       327.745256937     -9597.418943217     -9596.626499918      2133.116462592
      2183         1091.500000         0.789744798       326.629188778     -9597.416134850     -9596.626390052      2148.047358877
      2184         1092.000000         0.781387954       323.172896039     -9597.407482919     -9596.626094965      1967.244571921
      2185         1092.500000         0.768987342       318.044148191     -9597.394599317     -9596.625611975      1970.912138377
      2186         1093.000000         0.756663254       312.947049840     -9597.381751574     -9596.625088321      1959.397027990
      2187         1093.500000         0.749056302       309.800903917     -9597.373784228     -9596.624727925      1954.721531157
      2188         1094.000000         0.748443067       309.547276980     -9597.373100731     -9596.624657664      2927.712836434
      2189         1094.500000         0.753211925       311.519620697     -9597.377999970     -9596.624788045      2070.752511166
      2190         1095.000000         0.759069160       313.942104621     -9597.383981055     -9596.624911895      2202.234401256
      2191         1095.500000         0.761871862       315.101269037     -9597.386769845     -9596.624897983      2127.745589392
      2192         1096.000000         0.759728487       314.214794175     -9597.384463297     -9596.624734810      3272.419235326
      2193         1096.500000         0.753413692       311.603069008     -9597.377864969     -9596.624451277      2075.659062961
      2194         1097.000000         0.745783793       308.447432594     -9597.369926566     -9596.624142772      2074.179974082
      2195         1097.500000         0.740514963       306.268306108     -9597.364431989     -9596.623917026      1964.115416055
      2196         1098.000000         0.740060588       306.080382014     -9597.363965827     -9596.623905239      1909.050482989
      2197         1098.500000         0.744033810       307.723660117     -9597.368083400     -9596.624049589      2759.502932021
      2198         1099.000000         0.749840635       310.125294756     -9597.373982728     -9596.624142093      2946.022026745
      2199         1099.500000         0.755174672       312.331389671     -9597.379265283     -9596.624090612      1968.634280849
      2200         1100.000000         0.759497213       314.119142217     -9597.383441294     -9596.623944081      2953.107649713
      2201         1100.500000         0.762862537       315.511000748     -9597.386748457     -9596.623885920      2071.100026530
      2202         1101.000000         0.764127768       316.034285531     -9597.388007951     -9596.623880183      2107.231201501
      2203         1101.500000         0.761318938       314.872586415     -9597.385091448     -9596.623772510      2041.622335723
      2204         1102.000000         0.753812404       311.767971589     -9597.377274743     -9596.623462339      1903.713086196
      2205         1102.500000         0.743721628       307.594545303     -9597.366739177     -9596.623017548      2129.490416492
      2206         1103.000000         0.734875821       303.936023016     -9597.357523259     -9596.622647438      1969.437248163
      2207         1103.500000         0.730286939       302.038115186     -9597.352745909     -9596.622458970      3048.362493058
      2208         1104.000000         0.730466829       302.112515716     -9597.352912678     -9596.622445849      1960.637408101
      2209         1104.500000         0.733808206       303.494470113     -9597.356295981     -9596.622487775      2764.722078926
      2210         1105.000000         0.737938070       305.202533388     -9597.360487570     -9596.622549500      2726.475353604
      2211         1105.500000         0.740658332       306.327601852     -9597.363275663     -9596.622617331      2150.058818577
      2212         1106.000000         0.740614473       306.309462470     -9597.363249013     -9596.622634539      2022.111329384
      2213         1106.500000         0.738132126       305.282792823     -9597.360689750     -9596.622557624      5778.808239753
      2214         1107.000000         0.735456432       304.176156978     -9597.357937249     -9596.622480817      3238.302205499
      2215         1107.500000         0.735499088       304.193799218     -9597.358066835     -9596.622567746      2893.046953829
      2216         1108.000000         0.739698618       305.930675449     -9597.362574186     -9596.622875568      2076.366513191
      2217         1108.500000         0.746879455       308.900585335     -9597.370207273     -9596.623327818      1967.394878734
      2218         1109.000000         0.754343864       311.987777477     -9597.378053302     -9596.623709438      5687.111950591
      2219         1109.500000         0.759994572       314.324844159     -9597.383960098     -9596.623965525      1971.589432737
      2220         1110.000000         0.763149695       315.629765944     -9597.387288910     -9596.624139215      3177.990973717
      2221         1110.500000         0.763732347       315.870744042     -9597.387994229     -9596.624261881      1992.250628604
      2222         1111.000000         0.761657608       315.012656319     -9597.385911566     -9596.624253957      3064.995416036
      2223         1111.500000         0.757388278       313.246911538     -9597.381432373     -9596.624044094      2139.828036035
      2224         1112.000000         0.752559037       311.249593942     -9597.376261099     -9596.623702062      2078.217683155
      2225         1112.500000         0.749365495       309.928782322     -9597.372682213     -9596.623316718      2025.914931522
      2226         1113.000000         0.748996918       309.776343269     -9597.371975589     -9596.622978671      1913.373391455
      2227         1113.500000         0.750733785       310.494691078     -9597.373370475     -9596.622636690      1858.488639983
      2228         1114.000000         0.752757731       311.331771290     -9597.374995106     -9596.622237376      1930.449526693