ATOMS
H             0.00000000      0.00000000     -0.00998254            -0.00006953      0.66180799      0.24901842
H             0.00000000      0.00000000      0.73998166            -0.00006953      0.66180799      0.24901842
