ATOMS
H             0.00000000      0.00000000     -0.00998254             0.00000455     -0.24901842      0.66180800
H             0.00000000      0.00000000      0.73998166             0.00000455     -0.24901842      0.66180800
