ATOMS
H             0.00000000      0.00000000     -0.00998254            -0.70710678     -0.00006668     -0.00002023
H             0.00000000      0.00000000      0.73998166            -0.70710678     -0.00006668     -0.00002023
