SIESTA 1.3.7  -- [1.3f1 release] (04 Feb 2004)
Architecture  : 
Compiler flags:  -O3
PARALLEL version

* Running on    4 nodes in parallel
>> Start of run:   7-NOV-2013  16:03:22

                           ***********************       
                           *  WELCOME TO SIESTA  *       
                           ***********************       

reinit: Reading from standard input
************************** Dump of input data file ****************************
#
SystemName                   mol            # Descriptive name of the system
SystemLabel                  mol            # Short name for naming files
NumberOfSpecies              1             # Number of species
NumberOfAtoms                2           # Number of atoms
%block ChemicalSpeciesLabel
 1    1   H
%endblock ChemicalSpeciesLabel
# ps
%block Ps.lmax
  H     3
%endblock Ps.lmax
# Basis
PAO.BasisType                split         # Type of basis ('nones', 'nonodes', 'split')
PAO.SplitNorm  0.15
%block PAO.Basis                           # basis
H     2      0.00
 n=1    0    2   E      2.07      0.50
   5.75  1.5
   1.000   1.000
 n=2    1    1   E      0.89      0.01
   5.500
   1.000
%endblock PAO.Basis
# lattice vectors
LatticeConstant              1.0 Ang
%block LatticeVectors
         8.86712000        0.00000000        0.00000000
         0.00000        8.86712000        0.00000000
         0.00000000        0.00000000       38.72
%endblock LatticeVectors
# coordinates
AtomicCoordinatesFormat      Ang
%block AtomicCoordinatesAndAtomicSpecies
    3.25353201    5.72009504   18.92650888   1  H         61
    3.26037283    5.72625871   19.79615533   1  H         62
%endblock AtomicCoordinatesAndAtomicSpecies
# constrains in relaxation
%block GeometryConstraints
   position 1
%endblock GeometryConstraints
# real space mesh grid
MeshCutoff                   800.0 Ry
%block GridCellSampling
  0.5  0.5   0.0
  0.5  0.0   0.5
  0.0  0.5   0.5
%endblock GridCellSampling
# reciprocal space
%block kgrid_Monkhorst_Pack
  1   0   0    0.0
  0   1   0    0.0
  0   0   1    0.0
%endblock kgrid_Monkhorst_Pack
#ProcessorY                   4
#BlockSize                    100
%block ExternalElectricField
   0.000 0.000 0.5 V/Ang
%endblock ExternalElectricField
# functional
xc.functional                GGA           # 'LDA', 'GGA'
xc.authors                   PBE           # 'CA'='PZ', 'PW92', 'PBE'
# scf
MaxSCFIterations             300
DM.MixingWeight              0.02
DM.Tolerance                 1.0E-4
DM.UseSaveDM                 T
DM.NumberPulay               6             # Pulay convergency accelerator
SolutionMethod               diagon
ElectronicTemperature        300 K         # Default value
# MD options
MD.TypeOfRun                 cg            # Type of dynamics:
MD.VariableCell              false         # if vary cell
MD.NumCGsteps                300             # Number of CG steps for relaxation
MD.MaxCGDispl                0.08 Ang     # Maximum atomic displacement at one step
MD.MaxForceTol               0.01 eV/Ang   # Tolerance in the maximum force min(fx, fy, fz)
MD.MaxStressTol              0.1 Gpa
MD.FCDispl                 0.02 ang
MD.FCIR                    T
MD.FCEigenVectors          T
MD.FCRead                  F
MD.FCAtomRestart           46
MD.FCAxisRestart           1
#Siesta Output Flags
SaveHS                       F           # Hamiltonian and overlap in sparse
SaveRHO                      T
WriteMullikenPop             1
WriteForces                  T
WriteCoorStep                T
SaveElectrostaticPotential   T             # Hartree Potential file
************************** End of input data file *****************************

reinit: -----------------------------------------------------------------------
reinit: System Name: mol                                                        
reinit: -----------------------------------------------------------------------
reinit: System Label: mol                 
reinit: -----------------------------------------------------------------------

initatom: Reading input for the pseudopotentials and atomic orbitals ----------
 Species number:            1  Label: H Atomic number:           1
Ground state valence configuration:   1s01
Reading pseudopotential information in formatted form from H.psf
relmxkb: Read Max KB Ang. Momentum=    3 for species H

<basis_specs>
===============================================================================
H                    Z=   1    Mass=  1.0100        Charge=  0.0000    
Lmxo=1 Lmxkb=3     BasisType=split      Semic=F
L=0  Nsemic=0  Cnfigmx=1
          n=1  nzeta=2  polorb=0
               vcte:    2.0700    
               rinn:   0.50000    
                rcs:    5.7500      1.5000    
            lambdas:    1.0000      1.0000    
L=1  Nsemic=0  Cnfigmx=2
          n=1  nzeta=1  polorb=0
               vcte:   0.89000    
               rinn:   0.10000E-01
                rcs:    5.5000    
            lambdas:    1.0000    
-------------------------------------------------------------------------------
L=0  Nkbl=1  erefs: 0.17977+309
L=1  Nkbl=1  erefs: 0.17977+309
L=2  Nkbl=1  erefs: 0.17977+309
L=3  Nkbl=1  erefs: 0.17977+309
===============================================================================
</basis_specs>

atom: Called for H   (Z =   1)

read_vps: Pseudopotential generation method:
read_vps: ATM3      Troullier-Martins                       

read_vps: Valence configuration (pseudopotential and basis set generation):
1s( 1.00) rc: 1.89
2p( 0.00) rc: 1.80
3d( 0.00) rc: 1.49
4f( 0.00) rc: 1.49
read_vps: Spin-orbit interaction is not included in this calculation
Total valence charge:    1.00000

xc_check: Exchange-correlation functional:
xc_check: GGA Perdew, Burke & Ernzerhof 1996
V l=0 = -2*Zval/r beyond r=  1.8658
V l=1 = -2*Zval/r beyond r=  1.7970
V l=2 = -2*Zval/r beyond r=  1.8196
V l=3 = -2*Zval/r beyond r=  1.8196
All V_l potentials equal beyond r=  1.8658
This should be close to max(r_c) in ps generation
All pots = -2*Zval/r beyond r=  1.8658

VLOCAL1: 99.0% of the norm of Vloc inside     12.470 Ry
VLOCAL1: 99.9% of the norm of Vloc inside     28.418 Ry
atom: Maximum radius for 4*pi*r*r*local-pseudopot. charge    2.16811
atom: Maximum radius for r*vlocal+2*Zval:    1.84256
GHOST: No ghost state for L =  0
GHOST: No ghost state for L =  1
GHOST: No ghost state for L =  2
GHOST: No ghost state for L =  3

KBgen: Kleinman-Bylander projectors: 
   l= 0   rc=  2.011274   el= -0.477200   Ekb= -1.572097   kbcos= -0.493163
   l= 1   rc=  2.141150   el=  0.001076   Ekb= -0.356432   kbcos= -0.050277
   l= 2   rc=  2.195416   el=  0.002010   Ekb= -0.177656   kbcos= -0.007774
   l= 3   rc=  2.251056   el=  0.003122   Ekb= -0.068270   kbcos= -0.002268

KBgen: Total number of  Kleinman-Bylander projectors:   16
atom: -------------------------------------------------------------------------

atom: SANKEY-TYPE ORBITALS:
atom: Selected multiple-zeta basis: split     

SPLIT: Orbitals with angular momentum L= 0

SPLIT: Basis orbitals for state 1s

   izeta = 1
                 lambda =    1.000000
                     rc =    5.752124
                 energy =   -0.469599
                kinetic =    0.919264
    potential(screened) =   -1.388863
       potential(ionic) =   -1.911599

   izeta = 2
                 rmatch =    1.527112
              splitnorm =    0.807394
                 energy =    2.126033
                kinetic =    5.261681
    potential(screened) =   -3.135649
       potential(ionic) =   -3.696632

SPLIT: Orbitals with angular momentum L= 1

SPLIT: Basis orbitals for state 2p

   izeta = 1
                 lambda =    1.000000
                     rc =    5.471469
                 energy =    0.371359
                kinetic =    0.737398
    potential(screened) =   -0.366040
       potential(ionic) =   -0.791603
atom: Total number of Sankey-type orbitals:  5

atm_pop: Valence configuration(local Pseudopot. screening):
 1s( 1.00)                                                            
 2p( 0.00)                                                            
Vna: chval, zval:    1.00000   1.00000

Vna:  Cut-off radius for the neutral-atom potential:   5.752124

atom: _________________________________________________________________________

prinput: Basis input ----------------------------------------------------------

PAO.BasisType split     

%block ChemicalSpeciesLabel
    1    1 H                       # Species index, atomic number, species label
%endblock ChemicalSpeciesLabel

%block PAO.Basis                 # Define Basis set
H           2                    # Species label, number of l-shells
 n=1   0   2                         # n, l, Nzeta 
   5.752      1.527   
   1.000      1.000   
 n=2   1   1                         # n, l, Nzeta 
   5.471   
   1.000   
%endblock PAO.Basis

prinput: ----------------------------------------------------------------------


siesta: ******************** Simulation parameters ****************************
siesta:
siesta: The following are some of the parameters of the simulation.
siesta: A complete list of the parameters used, including defect values,
siesta: can be found in file out.fdf
siesta:
coor:   Atomic-coordinates input format  =     Cartesian coordinates
coor:                                          (in Angstroms)
redata: Number of spin components        =     1
redata: SpinOrbit                        =     0
redata: Long output                      =     F
redata: Number of Atomic Species         =     1
redata: Charge density info will appear in .RHO file
redata: Write Mulliken Pop.              =     Atomic and Orbital charges
redata: Mesh Cutoff                      =   800.0000  Ry
redata: Net charge of the system         =     0.0000 |e|
redata: Max. number of SCF Iter          =   300
redata: One Pulay mixing every           =     6 iterations
redata: Mix DM in first SCF step ?       =     F
redata: Write Pulay info on disk?        =     F
redata: New DM Mixing Weight             =     0.0200
redata: No kicks to SCF
redata: DM Mixing Weight for Kicks       =     0.5000
redata: DM Tolerance for SCF             =     0.000100
redata: Use continuation files for DM    =     T
redata: Neglect nonoverlap interactions  =     F
redata: Method of Calculation            =     Diagonalization
redata: Divide and Conquer               =     F
redata: Electronic Temperature           =     0.0019  Ry
redata: Fix the spin of the system       =     F
redata: Dynamics option                  =     CG coord. optimization
redata: Variable cell                    =     F
redata: Use continuation files for CG    =     F
redata: Maximum number of CG moves       =   300
redata: Max atomic displ per move        =     0.1512  Bohr
redata: Force tolerance                  =     0.0004  Ry/Bohr
redata: ***********************************************************************

siesta: Atomic coordinates (Bohr) and species
siesta:      6.14829  10.80942  35.76593  1        1
siesta:      6.16121  10.82106  37.40933  1        2

initatomlists: Number of atoms, orbitals, and projectors:      2    10    32

siesta: System type = molecule  
 Nodes, Orbitals           4          10
 blocksizedefault           2

* ProcessorY, Blocksize:    2   2

 Using EM.ParallelOverKNum =           1
 label:           1 H                              1 s      
 label:           2 H                              1 s      
 label:           3 H                              1 py     
 label:           4 H                              1 pz     
 label:           5 H                              1 px     
 label:           6 H                              2 s      
 label:           7 H                              2 s      
 label:           8 H                              2 py     
 label:           9 H                              2 pz     
 label:          10 H                              2 px     
 
* Maximum dynamic memory allocated =     1 MB

siesta:                 ==============================
                            Begin CG move =      0
                        ==============================

outcoor: Atomic coordinates (Ang):                          
    3.25353201    5.72009504   18.92650888   1  H          1
    3.26037283    5.72625871   19.79615533   1  H          2

read_ldau The LDA+U method used is from Czyzky PRB 49 14211

iodm: Reading Density Matrix from files

mol.DM                           

InitMesh: MESH =   160 x   160 x   720 =    18432000
InitMesh: Mesh cutoff (required, used) =   800.000   899.863 Ry

efield: External electric field =    0.000000    0.000000    0.019447 Ry/Bohr/e
 
* Maximum dynamic memory allocated =   250 MB

stepf: Fermi-Dirac step function

siesta: Program's energy decomposition (eV):
siesta: Eions   =        26.074526
siesta: Ena     =         3.171840
siesta: Ekin    =        25.720229
siesta: Enl     =       -15.696974
siesta: DEna    =        -1.256626
siesta: DUscf   =         0.228313
siesta: DUext   =         0.000000
siesta: Exc     =       -17.178282
siesta: eta*DQ  =         0.000000
siesta: Emadel  =         0.000000
siesta: Eharris =       -31.164327
siesta: Eso     =         0.000000
siesta: Etot    =       -31.086027
siesta: FreeEng =       -31.086027

siesta: iscf   Eharris(eV)      E_KS(eV)   FreeEng(eV)     dDmax   Ef(eV)
siesta:    1      -31.1643      -31.0860      -31.0860   0.07173  -4.2203
timer: Routine,Calls,Time,% = IterSCF        1      39.303  87.73
siesta:    2      -31.1583      -31.1499      -31.1499   0.05096  -4.5143
siesta:    3      -31.1552      -31.1300      -31.1300   0.02217  -4.4071
siesta:    4      -31.1548      -31.1453      -31.1453   0.00591  -4.4652
siesta:    5      -31.1548      -31.1525      -31.1525   0.00072  -4.4935
siesta:    6      -31.1548      -31.1528      -31.1528   0.00125  -4.4891
siesta:    7      -31.1548      -31.1549      -31.1549   0.00002  -4.4946
grdsam: Reading %block GridCellSampling
grdsam: Grid-cell sampling, point   0
grdsam: Generating displacements for grid-cell sampling
grdsam: Grid-cell sampling, point   1
grdsam: Grid-cell sampling, point   2
grdsam: Grid-cell sampling, point   3

siesta: E_KS(eV) =              -31.1549

siesta: E_KS - E_eggbox =       -31.1549

siesta: Atomic forces (eV/Ang):
     1    0.021752    0.019596    2.759466
     2   -0.021746   -0.019591   -2.759499
----------------------------------------
 Tot    0.000007    0.000005   -0.000033
----------------------------------------
 Max    2.759499
 Res    1.593278    sqrt( Sum f_i^2 / 3N )
----------------------------------------
 Max    2.759499    constrained
 
mulliken: Atomic and Orbital Populations:

Species: H                   
Atom  Qatom  Qorb
               1s      1s      2py     2pz     2px     
   1  1.015   0.949   0.059   0.000   0.007   0.000
   2  0.985   0.908   0.058   0.000   0.018   0.000

mulliken: Qtot =    2.000
 
* Maximum dynamic memory allocated =   251 MB

siesta:                 ==============================
                            Begin CG move =      1
                        ==============================

outcoor: Atomic coordinates (Ang):                          
    3.25353201    5.72009504   18.92650888   1  H          1
    3.25974245    5.72569078   19.71615983   1  H          2

siesta: iscf   Eharris(eV)      E_KS(eV)   FreeEng(eV)     dDmax   Ef(eV)
siesta:    1      -31.3217      -31.2959      -31.2959   0.01982  -4.9515
siesta:    2      -31.3199      -31.3197      -31.3197   0.00441  -4.7407
siesta:    3      -31.3199      -31.3175      -31.3175   0.00190  -4.7620
siesta:    4      -31.3199      -31.3194      -31.3194   0.00050  -4.7570
siesta:    5      -31.3199      -31.3182      -31.3182   0.00161  -4.7586
siesta:    6      -31.3199      -31.3199      -31.3199   0.00001  -4.7578
grdsam: Grid-cell sampling, point   0
grdsam: Grid-cell sampling, point   1
grdsam: Grid-cell sampling, point   2
grdsam: Grid-cell sampling, point   3

siesta: E_KS(eV) =              -31.3199

siesta: Atomic forces (eV/Ang):
     1    0.009577    0.008626    1.213506
     2   -0.009605   -0.008656   -1.213517
----------------------------------------
 Tot   -0.000028   -0.000030   -0.000010
----------------------------------------
 Max    1.213517
 Res    0.700661    sqrt( Sum f_i^2 / 3N )
----------------------------------------
 Max    1.213517    constrained
 
mulliken: Atomic and Orbital Populations:

Species: H                   
Atom  Qatom  Qorb
               1s      1s      2py     2pz     2px     
   1  1.015   0.931   0.074   0.000   0.009   0.000
   2  0.985   0.893   0.074   0.000   0.019   0.000

mulliken: Qtot =    2.000
 
* Maximum dynamic memory allocated =   251 MB

siesta:                 ==============================
                            Begin CG move =      2
                        ==============================

outcoor: Atomic coordinates (Ang):                          
    3.25353201    5.72009504   18.92650888   1  H          1
    3.25911203    5.72512282   19.63615983   1  H          2

siesta: iscf   Eharris(eV)      E_KS(eV)   FreeEng(eV)     dDmax   Ef(eV)
siesta:    1      -31.3150      -31.2824      -31.2824   0.02127  -5.2861
siesta:    2      -31.3119      -31.3115      -31.3115   0.00465  -5.0217
siesta:    3      -31.3119      -31.3084      -31.3084   0.00142  -5.0542
siesta:    4      -31.3119      -31.3115      -31.3115   0.00071  -5.0465
siesta:    5      -31.3119      -31.3099      -31.3099   0.00112  -5.0481
siesta:    6      -31.3119      -31.3118      -31.3118   0.00003  -5.0492
grdsam: Grid-cell sampling, point   0
grdsam: Grid-cell sampling, point   1
grdsam: Grid-cell sampling, point   2
grdsam: Grid-cell sampling, point   3

siesta: E_KS(eV) =              -31.3118

siesta: Atomic forces (eV/Ang):
     1   -0.013506   -0.012173   -1.720352
     2    0.013505    0.012171    1.720322
----------------------------------------
 Tot   -0.000001   -0.000002   -0.000030
----------------------------------------
 Max    1.720352
 Res    0.993293    sqrt( Sum f_i^2 / 3N )
----------------------------------------
 Max    1.720322    constrained
 
mulliken: Atomic and Orbital Populations:

Species: H                   
Atom  Qatom  Qorb
               1s      1s      2py     2pz     2px     
   1  1.015   0.912   0.092   0.000   0.010   0.000
   2  0.985   0.874   0.093   0.000   0.018   0.000

mulliken: Qtot =    2.000
 
* Maximum dynamic memory allocated =   251 MB

siesta:                 ==============================
                            Begin CG move =      3
                        ==============================

outcoor: Atomic coordinates (Ang):                          
    3.25353201    5.72009504   18.92650888   1  H          1
    3.25948169    5.72545585   19.68306961   1  H          2

siesta: iscf   Eharris(eV)      E_KS(eV)   FreeEng(eV)     dDmax   Ef(eV)
siesta:    1      -31.3452      -31.3339      -31.3339   0.01260  -4.7446
siesta:    2      -31.3442      -31.3441      -31.3441   0.00265  -4.8916
siesta:    3      -31.3442      -31.3431      -31.3431   0.00088  -4.8750
siesta:    4      -31.3442      -31.3439      -31.3439   0.00032  -4.8762
siesta:    5      -31.3442      -31.3434      -31.3434   0.00079  -4.8769
siesta:    6      -31.3442      -31.3442      -31.3442   0.00000  -4.8779
grdsam: Grid-cell sampling, point   0
grdsam: Grid-cell sampling, point   1
grdsam: Grid-cell sampling, point   2
grdsam: Grid-cell sampling, point   3

siesta: E_KS(eV) =              -31.3442

siesta: Atomic forces (eV/Ang):
     1    0.001712    0.001539    0.214063
     2   -0.001694   -0.001523   -0.213985
----------------------------------------
 Tot    0.000017    0.000015    0.000078
----------------------------------------
 Max    0.214063
 Res    0.123574    sqrt( Sum f_i^2 / 3N )
----------------------------------------
 Max    0.213985    constrained
 
mulliken: Atomic and Orbital Populations:

Species: H                   
Atom  Qatom  Qorb
               1s      1s      2py     2pz     2px     
   1  1.015   0.923   0.081   0.000   0.010   0.000
   2  0.985   0.885   0.082   0.000   0.019   0.000

mulliken: Qtot =    2.000

cgvc: Finished line minimization    1.  Mean atomic displacement =    0.1069
 
* Maximum dynamic memory allocated =   251 MB

siesta:                 ==============================
                            Begin CG move =      4
                        ==============================

outcoor: Atomic coordinates (Ang):                          
    3.25353201    5.72009504   18.92650888   1  H          1
    3.25884848    5.72488640   19.60306961   1  H          2

siesta: iscf   Eharris(eV)      E_KS(eV)   FreeEng(eV)     dDmax   Ef(eV)
siesta:    1      -31.2294      -31.1950      -31.1950   0.02147   1.1545
siesta:    2      -31.2258      -31.2252      -31.2252   0.00475   1.4394
siesta:    3      -31.2257      -31.2218      -31.2218   0.00123   1.4016
siesta:    4      -31.2257      -31.2255      -31.2255   0.00077   1.4107
siesta:    5      -31.2257      -31.2241      -31.2241   0.00086   1.4095
siesta:    6      -31.2257      -31.2254      -31.2254   0.00019   1.4074
siesta:    7      -31.2257      -31.2254      -31.2254   0.00018   1.4073
siesta:    8      -31.2257      -31.2254      -31.2254   0.00018   1.4073
siesta:    9      -31.2257      -31.2254      -31.2254   0.00017   1.4073
siesta:   10      -31.2257      -31.2254      -31.2254   0.00017   1.4073
siesta:   11      -31.2257      -31.2254      -31.2254   0.00016   1.4073
siesta:   12      -31.2257      -31.2254      -31.2254   0.00016   1.4073
siesta:   13      -31.2257      -31.2254      -31.2254   0.00015   1.4073
siesta:   14      -31.2257      -31.2254      -31.2254   0.00015   1.4073
siesta:   15      -31.2257      -31.2254      -31.2254   0.00015   1.4073
siesta:   16      -31.2257      -31.2254      -31.2254   0.00014   1.4073
siesta:   17      -31.2257      -31.2254      -31.2254   0.00014   1.4072
siesta:   18      -31.2257      -31.2254      -31.2254   0.00013   1.4072
siesta:   19      -31.2257      -31.2254      -31.2254   0.00013   1.4072
siesta:   20      -31.2257      -31.2254      -31.2254   0.00013   1.4072
siesta:   21      -31.2257      -31.2255      -31.2255   0.00012   1.4072
siesta:   22      -31.2257      -31.2255      -31.2255   0.00012   1.4072
siesta:   23      -31.2257      -31.2255      -31.2255   0.00012   1.4072
siesta:   24      -31.2257      -31.2255      -31.2255   0.00011   1.4072
siesta:   25      -31.2257      -31.2255      -31.2255   0.00011   1.4072
siesta:   26      -31.2257      -31.2255      -31.2255   0.00011   1.4072
siesta:   27      -31.2257      -31.2255      -31.2255   0.00011   1.4072
siesta:   28      -31.2257      -31.2255      -31.2255   0.00010   1.4072
siesta:   29      -31.2257      -31.2255      -31.2255   0.00010   1.4072
siesta:   30      -31.2257      -31.2255      -31.2255   0.00010   1.4071
grdsam: Grid-cell sampling, point   0
grdsam: Grid-cell sampling, point   1
grdsam: Grid-cell sampling, point   2
grdsam: Grid-cell sampling, point   3

siesta: E_KS(eV) =              -31.2255

siesta: Atomic forces (eV/Ang):
     1   -0.028001   -0.025239   -3.565400
     2    0.027958    0.025195    3.565462
----------------------------------------
 Tot   -0.000042   -0.000044    0.000062
----------------------------------------
 Max    3.565462
 Res    2.058618    sqrt( Sum f_i^2 / 3N )
----------------------------------------
 Max    3.565462    constrained
 
mulliken: Atomic and Orbital Populations:

Species: H                   
Atom  Qatom  Qorb
               1s      1s      2py     2pz     2px     
   1  1.014   0.903   0.101   0.000   0.011   0.000
   2  0.986   0.866   0.101   0.000   0.018   0.000

mulliken: Qtot =    2.000
 
* Maximum dynamic memory allocated =   251 MB

siesta:                 ==============================
                            Begin CG move =      5
                        ==============================

outcoor: Atomic coordinates (Ang):                          
    3.25353201    5.72009504   18.92650888   1  H          1
    3.25944584    5.72542361   19.67854016   1  H          2

siesta: iscf   Eharris(eV)      E_KS(eV)   FreeEng(eV)     dDmax   Ef(eV)
siesta:    1      -31.3475      -31.3176      -31.3176   0.02031  -4.6773
siesta:    2      -31.3449      -31.3446      -31.3446   0.00424  -4.9173
siesta:    3      -31.3449      -31.3418      -31.3418   0.00135  -4.8897
siesta:    4      -31.3449      -31.3438      -31.3438   0.00063  -4.8905
siesta:    5      -31.3449      -31.3430      -31.3430   0.00115  -4.8946
siesta:    6      -31.3449      -31.3449      -31.3449   0.00000  -4.8943
grdsam: Grid-cell sampling, point   0
grdsam: Grid-cell sampling, point   1
grdsam: Grid-cell sampling, point   2
grdsam: Grid-cell sampling, point   3

siesta: E_KS(eV) =              -31.3449

siesta: Atomic forces (eV/Ang):
     1    0.000475    0.000425    0.056867
     2   -0.000463   -0.000416   -0.056775
----------------------------------------
 Tot    0.000011    0.000009    0.000091
----------------------------------------
 Max    0.056867
 Res    0.032808    sqrt( Sum f_i^2 / 3N )
----------------------------------------
 Max    0.056775    constrained
 
mulliken: Atomic and Orbital Populations:

Species: H                   
Atom  Qatom  Qorb
               1s      1s      2py     2pz     2px     
   1  1.015   0.922   0.083   0.000   0.010   0.000
   2  0.985   0.884   0.083   0.000   0.019   0.000

mulliken: Qtot =    2.000

cgvc: Finished line minimization    2.  Mean atomic displacement =    0.0061
 
* Maximum dynamic memory allocated =   251 MB

siesta:                 ==============================
                            Begin CG move =      6
                        ==============================

outcoor: Atomic coordinates (Ang):                          
    3.25353201    5.72009504   18.92650888   1  H          1
    3.25940911    5.72539066   19.67401072   1  H          2

siesta: iscf   Eharris(eV)      E_KS(eV)   FreeEng(eV)     dDmax   Ef(eV)
siesta:    1      -31.3448      -31.3447      -31.3447   0.00121  -4.9237
siesta:    2      -31.3448      -31.3448      -31.3448   0.00026  -4.9095
siesta:    3      -31.3448      -31.3448      -31.3448   0.00009  -4.9111
grdsam: Grid-cell sampling, point   0
grdsam: Grid-cell sampling, point   1
grdsam: Grid-cell sampling, point   2
grdsam: Grid-cell sampling, point   3

siesta: E_KS(eV) =              -31.3448

siesta: Atomic forces (eV/Ang):
     1   -0.000814   -0.000737   -0.106974
     2    0.000816    0.000737    0.107049
----------------------------------------
 Tot    0.000002    0.000000    0.000076
----------------------------------------
 Max    0.107049
 Res    0.061786    sqrt( Sum f_i^2 / 3N )
----------------------------------------
 Max    0.107049    constrained
 
mulliken: Atomic and Orbital Populations:

Species: H                   
Atom  Qatom  Qorb
               1s      1s      2py     2pz     2px     
   1  1.015   0.921   0.084   0.000   0.010   0.000
   2  0.985   0.883   0.084   0.000   0.019   0.000

mulliken: Qtot =    2.000
 
* Maximum dynamic memory allocated =   251 MB

siesta:                 ==============================
                            Begin CG move =      7
                        ==============================

outcoor: Atomic coordinates (Ang):                          
    3.25353201    5.72009504   18.92650888   1  H          1
    3.25943311    5.72541219   19.67697042   1  H          2

siesta: iscf   Eharris(eV)      E_KS(eV)   FreeEng(eV)     dDmax   Ef(eV)
siesta:    1      -31.3449      -31.3449      -31.3449   0.00077  -4.8917
siesta:    2      -31.3449      -31.3449      -31.3449   0.00016  -4.9009
siesta:    3      -31.3449      -31.3449      -31.3449   0.00005  -4.8999
grdsam: Grid-cell sampling, point   0
grdsam: Grid-cell sampling, point   1
grdsam: Grid-cell sampling, point   2
grdsam: Grid-cell sampling, point   3

siesta: E_KS(eV) =              -31.3449

siesta: Atomic forces (eV/Ang):
     1    0.000039    0.000032    0.001531
     2   -0.000030   -0.000025   -0.001445
----------------------------------------
 Tot    0.000009    0.000008    0.000086
----------------------------------------
 Max    0.001531
 Res    0.000860    sqrt( Sum f_i^2 / 3N )
----------------------------------------
 Max    0.001445    constrained
 
mulliken: Atomic and Orbital Populations:

Species: H                   
Atom  Qatom  Qorb
               1s      1s      2py     2pz     2px     
   1  1.015   0.922   0.083   0.000   0.010   0.000
   2  0.985   0.884   0.083   0.000   0.019   0.000

mulliken: Qtot =    2.000

outcoor: Relaxed atomic coordinates (Ang):                  
    3.25353201    5.72009504   18.92650888   1  H          1
    3.25943311    5.72541219   19.67697042   1  H          2

siesta: Eigenvalues (eV):
  ik is    eps
   1  1 -11.09   1.48   4.19   4.19   9.78  10.90  10.90  17.67  43.47  89.87
siesta: Fermi energy =      -4.899896 eV

siesta: Program's energy decomposition (eV):
siesta:-Eions   =     -26.074526
siesta: Ena     =       4.289538
siesta: Ekin    =      26.375106
siesta: Enl     =     -17.145367
siesta: DEna    =      -1.454009
siesta: DUscf   =       0.254507
siesta: DUext   =      -0.017960
siesta: Exc     =     -17.572192
siesta: eta*DQ  =       0.000000
siesta: Emadel  =       0.000000
siesta: Ekinion =       0.000000
siesta: Eharris =     -31.344912
siesta: Eso     =       0.000000
siesta: Etot    =     -31.344903
siesta: FreeEng =     -31.344903

siesta: Final energy (eV):
siesta:       Kinetic =      26.375106
siesta:       Hartree =      35.530510
siesta:    Ext. field =      -0.017960
siesta:   Exch.-corr. =     -17.572192
siesta:  Ion-electron =     -97.028208
siesta:       Ion-ion =      21.367840
siesta:       Ekinion =       0.000000
siesta:         Total =     -31.344903

siesta: Stress tensor (static) (eV/Ang**3):
siesta:     0.000006    0.000000    0.000000
siesta:     0.000000    0.000006    0.000000
siesta:     0.000000    0.000000    0.000012

siesta: Cell volume =       3044.391638 Ang**3

siesta: Pressure (static):
siesta:                Solid            Molecule  Units
siesta:          -0.00000009         -0.00000009  Ry/Bohr**3
siesta:          -0.00000795         -0.00000783  eV/Ang**3
siesta:          -0.01273465         -0.01253871  kBar

siesta: Total spin polarization (Qup-Qdown) =    0.000000
siesta: Spin vector =    0.000000    0.000000    0.000000
siesta: No SpinPolK block detected...

siesta: Electric dipole (a.u.)  =    0.000137    0.000123    0.067878
siesta: Electric dipole (Debye) =    0.000347    0.000313    0.172530
 
* Maximum dynamic memory allocated : Node    0 =   243 MB
* Maximum dynamic memory allocated : Node    1 =   242 MB
* Maximum dynamic memory allocated : Node    2 =   251 MB
* Maximum dynamic memory allocated : Node    3 =   251 MB
* Maximum memory occured during redistribXZ                   

timer: CPU execution times:
timer:  Routine       Calls   Time/call    Tot.time        %
timer:  siesta            1    2365.088    2365.088   100.00
timer:  Setup             1       4.993       4.993     0.21
timer:  bands             1       0.000       0.000     0.00
timer:  writewave         1       0.004       0.004     0.00
timer:  KSV_init          1       0.004       0.004     0.00
timer:  IterMD            8     288.726    2309.806    97.66
timer:  hsparse           9       0.001       0.007     0.00
timer:  overfsm          16       0.006       0.095     0.00
timer:  IterSCF          75      30.707    2303.058    97.38
timer:  kinefsm          16       0.002       0.033     0.00
timer:  nlefsm           16       0.052       0.826     0.03
timer:  DHSCF           100      23.502    2350.171    99.37
timer:  DHSCF1            1       7.663       7.663     0.32
timer:  DHSCF2           33      11.727     386.982    16.36
timer:  REORD          1470       0.055      81.478     3.45
timer:  POISON          133       9.018    1199.342    50.71
timer:  DHSCF3          100      19.024    1902.445    80.44
timer:  rhoofd          100       0.173      17.273     0.73
timer:  CELLXC          100       5.404     540.436    22.85
timer:  vmat             75       0.140      10.485     0.44
timer:  diagon           67       0.020       1.316     0.06
timer:  rdiag            67       0.013       0.884     0.04
timer:  DHSCF4           32       1.640      52.493     2.22
timer:  dfscf            32       1.337      42.793     1.81
  
>> End of run:   7-NOV-2013  16:13:59
