 DBCSR| CPU Multiplication driver                                           BLAS
 DBCSR| Multrec recursion limit                                              512
 DBCSR| Multiplication stack size                                           1000
 DBCSR| Maximum elements for images                                    UNLIMITED
 DBCSR| Multiplicative factor virtual images                                   1
 DBCSR| Use multiplication densification                                       T
 DBCSR| Multiplication size stacks                                             3
 DBCSR| Use memory pool for CPU allocation                                     F
 DBCSR| Number of 3D layers                                               SINGLE
 DBCSR| Use MPI memory allocation                                              F
 DBCSR| Use RMA algorithm                                                      F
 DBCSR| Use Communication thread                                               T
 DBCSR| Communication thread load                                             83
 DBCSR| MPI: My node id                                                        0
 DBCSR| MPI: Number of nodes                                                  64
 DBCSR| OMP: Current number of threads                                         2
 DBCSR| OMP: Max number of threads                                             2
 DBCSR| Split modifier for TAS multiplication algorithm                  1.0E+00


  **** **** ******  **  PROGRAM STARTED AT               2023-10-31 13:59:49.871
 ***** ** ***  *** **   PROGRAM STARTED ON                             nid001479
 **    ****   ******    PROGRAM STARTED BY                                cahart
 ***** **    ** ** **   PROGRAM PROCESS ID                                  4879
  **** **  *******  **  PROGRAM STARTED IN /mnt/lustre/a2fs-work2/work/e05/e05/c
                                           ahart/postdoc/transport/cp2k-smeagol-
                                           examples/li-chain/cp2k-smeagol/transm
                                           ission/kpoints-1-1-20_20220907-memory
                                           _hash-143

 CP2K| version string:                 CP2K version 2022.1 (Development Version)
 CP2K| source code revision number:                                  git:143bfae
 CP2K| cp2kflags: omp libint fftw3 libxc elpa parallel mpi3 scalapack mkl       
 CP2K| is freely available from                            https://www.cp2k.org/
 CP2K| Program compiled at                          Wed 27 Sep 16:34:31 BST 2023
 CP2K| Program compiled on                                                  ln01
 CP2K| Program compiled for                                                local
 CP2K| Data directory path    /work/e05/e05/cahart/smeagol/cp2k-smeagol/cp2k_for
 CP2K| Input file name                                              1_bulkLR.inp

 GLOBAL| Force Environment number                                              1
 GLOBAL| Basis set file name                                        BASIS_MOLOPT
 GLOBAL| Potential file name                                      GTH_POTENTIALS
 GLOBAL| MM Potential file name                                     MM_POTENTIAL
 GLOBAL| Coordinate file name                                           bulk.xyz
 GLOBAL| Method name                                                        CP2K
 GLOBAL| Project name                                                       bulk
 GLOBAL| Run type                                                         ENERGY
 GLOBAL| FFT library                                                       FFTW3
 GLOBAL| Diagonalization library                                            ELPA
 GLOBAL| Minimum number of eigenvectors for ELPA usage                        16
 GLOBAL| Orthonormality check for eigenvectors                          DISABLED
 GLOBAL| Matrix multiplication library                                 ScaLAPACK
 GLOBAL| All-to-all communication in single precision                          F
 GLOBAL| FFTs using library dependent lengths                                  T
 GLOBAL| Grid backend                                                       AUTO
 GLOBAL| Global print level                                               MEDIUM
 GLOBAL| MPI I/O enabled                                                       T
 GLOBAL| Total number of message passing processes                            64
 GLOBAL| Number of threads for this process                                    2
 GLOBAL| This output is from process                                           0
 GLOBAL| Stack size for threads created by OpenMP (OMP_STACKSIZE)        default
 GLOBAL| CPU model name                          AMD EPYC 7742 64-Core Processor
 GLOBAL| CPUID                                                              1002

 MEMORY| system memory details [Kb]
 MEMORY|                        rank 0           min           max       average
 MEMORY| MemTotal            263341976     263341976     263341976     263341976
 MEMORY| MemFree             241216296     241216296     241217040     241216435
 MEMORY| Buffers                     0             0             0             0
 MEMORY| Cached                5533884       5533884       5533884       5533884
 MEMORY| Slab                  2915896       2915852       2915896       2915887
 MEMORY| SReclaimable           124052        124052        124052        124052
 MEMORY| MemLikelyFree       246874232     246874232     246874976     246874371


 *** Fundamental physical constants (SI units) ***

 *** Literature: B. J. Mohr and B. N. Taylor,
 ***             CODATA recommended values of the fundamental physical
 ***             constants: 2006, Web Version 5.1
 ***             http://physics.nist.gov/constants

 Speed of light in vacuum [m/s]                             2.99792458000000E+08
 Magnetic constant or permeability of vacuum [N/A**2]       1.25663706143592E-06
 Electric constant or permittivity of vacuum [F/m]          8.85418781762039E-12
 Planck constant (h) [J*s]                                  6.62606896000000E-34
 Planck constant (h-bar) [J*s]                              1.05457162825177E-34
 Elementary charge [C]                                      1.60217648700000E-19
 Electron mass [kg]                                         9.10938215000000E-31
 Electron g factor [ ]                                     -2.00231930436220E+00
 Proton mass [kg]                                           1.67262163700000E-27
 Fine-structure constant                                    7.29735253760000E-03
 Rydberg constant [1/m]                                     1.09737315685270E+07
 Avogadro constant [1/mol]                                  6.02214179000000E+23
 Boltzmann constant [J/K]                                   1.38065040000000E-23
 Atomic mass unit [kg]                                      1.66053878200000E-27
 Bohr radius [m]                                            5.29177208590000E-11

 *** Conversion factors ***

 [u] -> [a.u.]                                              1.82288848426455E+03
 [Angstrom] -> [Bohr] = [a.u.]                              1.88972613288564E+00
 [a.u.] = [Bohr] -> [Angstrom]                              5.29177208590000E-01
 [a.u.] -> [s]                                              2.41888432650478E-17
 [a.u.] -> [fs]                                             2.41888432650478E-02
 [a.u.] -> [J]                                              4.35974393937059E-18
 [a.u.] -> [N]                                              8.23872205491840E-08
 [a.u.] -> [K]                                              3.15774647902944E+05
 [a.u.] -> [kJ/mol]                                         2.62549961709828E+03
 [a.u.] -> [kcal/mol]                                       6.27509468713739E+02
 [a.u.] -> [Pa]                                             2.94210107994716E+13
 [a.u.] -> [bar]                                            2.94210107994716E+08
 [a.u.] -> [atm]                                            2.90362800883016E+08
 [a.u.] -> [eV]                                             2.72113838565563E+01
 [a.u.] -> [Hz]                                             6.57968392072181E+15
 [a.u.] -> [1/cm] (wave numbers)                            2.19474631370540E+05
 [a.u./Bohr**2] -> [1/cm]                                   5.14048714338585E+03
 

 CELL_TOP| Volume [angstrom^3]:                                      1728.000000
 CELL_TOP| Vector a [angstrom    12.000     0.000     0.000   |a| =    12.000000
 CELL_TOP| Vector b [angstrom     0.000    12.000     0.000   |b| =    12.000000
 CELL_TOP| Vector c [angstrom     0.000     0.000    12.000   |c| =    12.000000
 CELL_TOP| Angle (b,c), alpha [degree]:                                90.000000
 CELL_TOP| Angle (a,c), beta  [degree]:                                90.000000
 CELL_TOP| Angle (a,b), gamma [degree]:                                90.000000
 CELL_TOP| Numerically orthorhombic:                                         YES
 CELL_TOP| Periodicity                                                       XYZ

 GENERATE|  Preliminary Number of Bonds generated:                             0
 GENERATE|  Achieved consistency in connectivity generation.

 CELL| Volume [angstrom^3]:                                          1728.000000
 CELL| Vector a [angstrom]:      12.000     0.000     0.000   |a| =    12.000000
 CELL| Vector b [angstrom]:       0.000    12.000     0.000   |b| =    12.000000
 CELL| Vector c [angstrom]:       0.000     0.000    12.000   |c| =    12.000000
 CELL| Angle (b,c), alpha [degree]:                                    90.000000
 CELL| Angle (a,c), beta  [degree]:                                    90.000000
 CELL| Angle (a,b), gamma [degree]:                                    90.000000
 CELL| Numerically orthorhombic:                                             YES
 CELL| Periodicity                                                           XYZ

 CELL_REF| Volume [angstrom^3]:                                      1728.000000
 CELL_REF| Vector a [angstrom    12.000     0.000     0.000   |a| =    12.000000
 CELL_REF| Vector b [angstrom     0.000    12.000     0.000   |b| =    12.000000
 CELL_REF| Vector c [angstrom     0.000     0.000    12.000   |c| =    12.000000
 CELL_REF| Angle (b,c), alpha [degree]:                                90.000000
 CELL_REF| Angle (a,c), beta  [degree]:                                90.000000
 CELL_REF| Angle (a,b), gamma [degree]:                                90.000000
 CELL_REF| Numerically orthorhombic:                                         YES
 CELL_REF| Periodicity                                                       XYZ

 *** WARNING in cryssym.F:165 :: Symmetry library SPGLIB not available ***


 *******************************************************************************
                                    Kpoints
 *******************************************************************************
 BRILLOUIN| K-point scheme                                        Monkhorst-Pack
 BRILLOUIN| K-Point grid                                             1    1   20
 BRILLOUIN| Accuracy in Symmetry determination                      0.100000E-07
 BRILLOUIN| K-Point point group symmetrization                               OFF
 BRILLOUIN| Wavefunction type                                            COMPLEX
 BRILLOUIN| Use full k-point grid     
 BRILLOUIN| List of Kpoints [2 Pi/Bohr]                                       20
 BRILLOUIN| Number           Weight            X              Y              Z
 BRILLOUIN|     1           0.05000        0.00000        0.00000       -0.47500
 BRILLOUIN|     2           0.05000        0.00000        0.00000       -0.42500
 BRILLOUIN|     3           0.05000        0.00000        0.00000       -0.37500
 BRILLOUIN|     4           0.05000        0.00000        0.00000       -0.32500
 BRILLOUIN|     5           0.05000        0.00000        0.00000       -0.27500
 BRILLOUIN|     6           0.05000        0.00000        0.00000       -0.22500
 BRILLOUIN|     7           0.05000        0.00000        0.00000       -0.17500
 BRILLOUIN|     8           0.05000        0.00000        0.00000       -0.12500
 BRILLOUIN|     9           0.05000        0.00000        0.00000       -0.07500
 BRILLOUIN|    10           0.05000        0.00000        0.00000       -0.02500
 BRILLOUIN|    11           0.05000        0.00000        0.00000        0.02500
 BRILLOUIN|    12           0.05000        0.00000        0.00000        0.07500
 BRILLOUIN|    13           0.05000        0.00000        0.00000        0.12500
 BRILLOUIN|    14           0.05000        0.00000        0.00000        0.17500
 BRILLOUIN|    15           0.05000        0.00000        0.00000        0.22500
 BRILLOUIN|    16           0.05000        0.00000        0.00000        0.27500
 BRILLOUIN|    17           0.05000        0.00000        0.00000        0.32500
 BRILLOUIN|    18           0.05000        0.00000        0.00000        0.37500
 BRILLOUIN|    19           0.05000        0.00000        0.00000        0.42500
 BRILLOUIN|    20           0.05000        0.00000        0.00000        0.47500
 *******************************************************************************

 *******************************************************************************
 *******************************************************************************
 **                                                                           **
 **     #####                         ##              ##                      **
 **    ##   ##            ##          ##              ##                      **
 **   ##     ##                       ##            ######                    **
 **   ##     ##  ##   ##  ##   #####  ##  ##   ####   ##    #####    #####    **
 **   ##     ##  ##   ##  ##  ##      ## ##   ##      ##   ##   ##  ##   ##   **
 **   ##  ## ##  ##   ##  ##  ##      ####     ###    ##   ######   ######    **
 **    ##  ###   ##   ##  ##  ##      ## ##      ##   ##   ##       ##        **
 **     #######   #####   ##   #####  ##  ##  ####    ##    #####   ##        **
 **           ##                                                    ##        **
 **                                                                           **
 **                                                ... make the atoms dance   **
 **                                                                           **
 **            Copyright (C) by CP2K developers group (2000-2022)             **
 **                      J. Chem. Phys. 152, 194103 (2020)                    **
 **                                                                           **
 *******************************************************************************

 *** WARNING in qs_environment.F:1468 :: More added MOs requested than     ***
 *** available. The full set of unoccupied MOs will be used. Use           ***
 *** 'ADDED_MOS -1' to always use all available MOs and to get rid of this ***
 *** warning.                                                              ***


 DFT| Spin restricted Kohn-Sham (RKS) calculation                            RKS
 DFT| Multiplicity                                                             1
 DFT| Number of spin states                                                    1
 DFT| Charge                                                                   0
 DFT| Self-interaction correction (SIC)                                       NO
 DFT| Cutoffs: density                                              1.000000E-10
 DFT|          gradient                                             1.000000E-10
 DFT|          tau                                                  1.000000E-10
 DFT|          cutoff_smoothing_range                               0.000000E+00
 DFT| XC density smoothing                                                  NONE
 DFT| XC derivatives                                                          PW

 FUNCTIONAL| PADE:
 FUNCTIONAL| S. Goedecker, M. Teter and J. Hutter, Phys. Rev. B 54, 1703 (1996) 


 QS| Method:                                                                 GPW
 QS| Density plane wave grid type                        NON-SPHERICAL FULLSPACE
 QS| Number of grid levels:                                                    4
 QS| Density cutoff [a.u.]:                                                200.0
 QS| Multi grid cutoff [a.u.]: 1) grid level                               200.0
 QS|                           2) grid level                                66.7
 QS|                           3) grid level                                22.2
 QS|                           4) grid level                                 7.4
 QS| Grid level progression factor:                                          3.0
 QS| Relative density cutoff [a.u.]:                                        20.0
 QS| Interaction thresholds: eps_pgf_orb:                                1.0E-05
 QS|                         eps_filter_matrix:                          0.0E+00
 QS|                         eps_core_charge:                            1.0E-12
 QS|                         eps_rho_gspace:                             1.0E-10
 QS|                         eps_rho_rspace:                             1.0E-10
 QS|                         eps_gvg_rspace:                             1.0E-05
 QS|                         eps_ppl:                                    1.0E-02
 QS|                         eps_ppnl:                                   1.0E-07


 ATOMIC KIND INFORMATION

  1. Atomic kind: Li                                    Number of atoms:       4

     Orbital Basis Set                                         SZV-MOLOPT-SR-GTH

       Number of orbital shell sets:                                           1
       Number of orbital shells:                                               2
       Number of primitive Cartesian functions:                                5
       Number of Cartesian basis functions:                                    2
       Number of spherical basis functions:                                    2
       Norm type:                                                              2

       Normalised Cartesian orbitals:

                        Set   Shell   Orbital            Exponent    Coefficient

                          1       1    2s                7.133128       0.845417
                                                         1.999997       0.491024
                                                         0.612031       0.147779
                                                         0.084367       0.023020
                                                         0.032613       0.006029

                          1       2    3s                7.133128       0.356560
                                                         1.999997       0.274758
                                                         0.612031       0.123518
                                                         0.084367      -0.073250
                                                         0.032613      -0.022874

       Atomic covalent radius [Angstrom]:                                  1.230

       Atomic van der Waals radius [Angstrom]:                             1.820

     GTH Potential information for                                   GTH-PADE-q3

       Description:                       Goedecker-Teter-Hutter pseudopotential
                                           Goedecker et al., PRB 54, 1703 (1996)
                                          Hartwigsen et al., PRB 58, 3641 (1998)
                                                      Krack, TCA 114, 145 (2005)

       Gaussian exponent of the core charge distribution:               3.125000
       Electronic configuration (s p d ...):                                   3

       Parameters of the local part of the GTH pseudopotential:

                          rloc        C1          C2          C3          C4
                        0.400000  -14.034868    9.553476   -1.766488    0.084370


 MOLECULE KIND INFORMATION


 All atoms are their own molecule, skipping detailed information


 TOTAL NUMBERS AND MAXIMUM NUMBERS

  Total number of            - Atomic kinds:                                   1
                             - Atoms:                                          4
                             - Shell sets:                                     4
                             - Shells:                                         8
                             - Primitive Cartesian functions:                 20
                             - Cartesian basis functions:                      8
                             - Spherical basis functions:                      8

  Maximum angular momentum of- Orbital basis functions:                        0
                             - Local part of the GTH pseudopotential:          6


 MODULE QUICKSTEP: ATOMIC COORDINATES IN ANGSTROM

   Atom Kind Element         X             Y             Z       Z(eff)     Mass
      1    1 Li    3      6.000000      6.000000      1.500000   3.0000   6.9410
      2    1 Li    3      6.000000      6.000000      4.500000   3.0000   6.9410
      3    1 Li    3      6.000000      6.000000      7.500000   3.0000   6.9410
      4    1 Li    3      6.000000      6.000000     10.500000   3.0000   6.9410



 SCF PARAMETERS         Density guess:                                    ATOMIC
                        --------------------------------------------------------
                        max_scf:                                             100
                        max_scf_history:                                       0
                        max_diis:                                              4
                        --------------------------------------------------------
                        eps_scf:                                        1.00E-08
                        eps_scf_history:                                0.00E+00
                        eps_diis:                                       1.00E-01
                        eps_eigval:                                     1.00E-05
                        --------------------------------------------------------
                        level_shift [a.u.]:                             0.000000
                        added MOs                                         2    0
                        --------------------------------------------------------
                        Mixing method:                            BROYDEN_MIXING
                                                charge density mixing in g-space
                        --------------------------------------------------------
                        Smear method:                                FERMI_DIRAC
                        Electronic temperature [K]:                        293.0
                        Electronic temperature [a.u.]:                  9.28E-04
                        Accuracy threshold:                             1.00E-10
                        --------------------------------------------------------
                        No outer SCF

 PW_GRID| Information for grid number                                          1
 PW_GRID| Grid distributed over                                    64 processors
 PW_GRID| Real space group dimensions                                    64    1
 PW_GRID| the grid is blocked:                                                NO
 PW_GRID| Cutoff [a.u.]                                                    200.0
 PW_GRID| spherical cutoff:                                                   NO
 PW_GRID|   Bounds   1            -75      74                Points:         150
 PW_GRID|   Bounds   2            -75      74                Points:         150
 PW_GRID|   Bounds   3            -75      74                Points:         150
 PW_GRID| Volume element (a.u.^3)  0.3455E-02     Volume (a.u.^3)     11661.1222
 PW_GRID| Grid span                                                    FULLSPACE
 PW_GRID|   Distribution                         Average         Max         Min
 PW_GRID|   G-Vectors                            52734.4       52800       52650
 PW_GRID|   G-Rays                                 351.6         352         351
 PW_GRID|   Real Space Points                    52734.4       67500       45000

 PW_GRID| Information for grid number                                          2
 PW_GRID| Number of the reference grid                                         1
 PW_GRID| Grid distributed over                                    64 processors
 PW_GRID| Real space group dimensions                                    64    1
 PW_GRID| the grid is blocked:                                                NO
 PW_GRID| Cutoff [a.u.]                                                     66.7
 PW_GRID| spherical cutoff:                                                   NO
 PW_GRID|   Bounds   1            -42      41                Points:          84
 PW_GRID|   Bounds   2            -42      41                Points:          84
 PW_GRID|   Bounds   3            -42      41                Points:          84
 PW_GRID| Volume element (a.u.^3)  0.1967E-01     Volume (a.u.^3)     11661.1222
 PW_GRID| Grid span                                                    FULLSPACE
 PW_GRID|   Distribution                         Average         Max         Min
 PW_GRID|   G-Vectors                             9261.0        9324        9156
 PW_GRID|   G-Rays                                 110.2         111         109
 PW_GRID|   Real Space Points                     9261.0       14112        7056

 PW_GRID| Information for grid number                                          3
 PW_GRID| Number of the reference grid                                         1
 PW_GRID| Grid distributed over                                    64 processors
 PW_GRID| Real space group dimensions                                     8    8
 PW_GRID| the grid is blocked:                                                NO
 PW_GRID| Cutoff [a.u.]                                                     22.2
 PW_GRID| spherical cutoff:                                                   NO
 PW_GRID|   Bounds   1            -25      24                Points:          50
 PW_GRID|   Bounds   2            -25      24                Points:          50
 PW_GRID|   Bounds   3            -25      24                Points:          50
 PW_GRID| Volume element (a.u.^3)  0.9329E-01     Volume (a.u.^3)     11661.1222
 PW_GRID| Grid span                                                    FULLSPACE
 PW_GRID|   Distribution                         Average         Max         Min
 PW_GRID|   G-Vectors                             1953.1        2000        1900
 PW_GRID|   G-Rays                                  39.1          40          38
 PW_GRID|   Real Space Points                     1953.1        2450        1800

 PW_GRID| Information for grid number                                          4
 PW_GRID| Number of the reference grid                                         1
 PW_GRID| Grid distributed over                                    64 processors
 PW_GRID| Real space group dimensions                                     8    8
 PW_GRID| the grid is blocked:                                                NO
 PW_GRID| Cutoff [a.u.]                                                      7.4
 PW_GRID| spherical cutoff:                                                   NO
 PW_GRID|   Bounds   1            -13      13                Points:          27
 PW_GRID|   Bounds   2            -13      13                Points:          27
 PW_GRID|   Bounds   3            -13      13                Points:          27
 PW_GRID| Volume element (a.u.^3)  0.5924         Volume (a.u.^3)     11661.1222
 PW_GRID| Grid span                                                    FULLSPACE
 PW_GRID|   Distribution                         Average         Max         Min
 PW_GRID|   G-Vectors                              307.5         351         270
 PW_GRID|   G-Rays                                  11.4          13          10
 PW_GRID|   Real Space Points                      307.5         432         243

 POISSON| Solver                                                        PERIODIC
 POISSON| Periodicity                                                        XYZ

 RS_GRID| Information for grid number                                          1
 RS_GRID|   Bounds   1            -75      74                Points:         150
 RS_GRID|   Bounds   2            -75      74                Points:         150
 RS_GRID|   Bounds   3            -75      74                Points:         150
 RS_GRID| Real space distribution over                                  4 groups
 RS_GRID| Real space distribution along direction                              1
 RS_GRID| Border size                                                         21
 RS_GRID| Real space distribution over                                  4 groups
 RS_GRID| Real space distribution along direction                              2
 RS_GRID| Border size                                                         21
 RS_GRID| Real space distribution over                                  4 groups
 RS_GRID| Real space distribution along direction                              3
 RS_GRID| Border size                                                         21
 RS_GRID|   Distribution                         Average         Max         Min
 RS_GRID|   Planes                                  79.5          80          79
 RS_GRID|   Distribution                         Average         Max         Min
 RS_GRID|   Planes                                  79.5          80          79
 RS_GRID|   Distribution                         Average         Max         Min
 RS_GRID|   Planes                                  79.5          80          79

 RS_GRID| Information for grid number                                          2
 RS_GRID|   Bounds   1            -42      41                Points:          84
 RS_GRID|   Bounds   2            -42      41                Points:          84
 RS_GRID|   Bounds   3            -42      41                Points:          84
 RS_GRID| Real space distribution over                                  4 groups
 RS_GRID| Real space distribution along direction                              1
 RS_GRID| Border size                                                         19
 RS_GRID| Real space distribution over                                  4 groups
 RS_GRID| Real space distribution along direction                              2
 RS_GRID| Border size                                                         19
 RS_GRID| Real space distribution over                                  4 groups
 RS_GRID| Real space distribution along direction                              3
 RS_GRID| Border size                                                         19
 RS_GRID|   Distribution                         Average         Max         Min
 RS_GRID|   Planes                                  59.0          59          59
 RS_GRID|   Distribution                         Average         Max         Min
 RS_GRID|   Planes                                  59.0          59          59
 RS_GRID|   Distribution                         Average         Max         Min
 RS_GRID|   Planes                                  59.0          59          59

 RS_GRID| Information for grid number                                          3
 RS_GRID|   Bounds   1            -25      24                Points:          50
 RS_GRID|   Bounds   2            -25      24                Points:          50
 RS_GRID|   Bounds   3            -25      24                Points:          50
 RS_GRID| Real space fully replicated
 RS_GRID| Group size                                                           1

 RS_GRID| Information for grid number                                          4
 RS_GRID|   Bounds   1            -13      13                Points:          27
 RS_GRID|   Bounds   2            -13      13                Points:          27
 RS_GRID|   Bounds   3            -13      13                Points:          27
 RS_GRID| Real space fully replicated
 RS_GRID| Group size                                                           1

 KPOINTS| Number of kpoint groups                                              4
 KPOINTS| Size of each kpoint group                                           16
 KPOINTS| Number of kpoints per group                                          5

 Number of electrons:                                                         12
 Number of occupied orbitals:                                                  6
 Number of molecular orbitals:                                                 8

 Number of orbital functions:                                                  8
 Number of independent orbital functions:                                      8

 Extrapolation method: initial_guess

 Atomic guess: The first density matrix is obtained in terms of atomic orbitals
               and electronic configurations assigned to each atomic kind

 Guess for atomic kind: Li

 Electronic structure
    Total number of core electrons                                          0.00
    Total number of valence electrons                                       3.00
    Total number of electrons                                               3.00
    Multiplicity                                                   not specified
    S      2.00  1.00


 *******************************************************************************
                  Iteration          Convergence                     Energy [au]
 *******************************************************************************
                          1        0.103174E-01                  -7.254114102182
                          2        0.192553E-03                  -7.254173031998
                          3        0.719334E-07                  -7.254173052563

 Energy components [Hartree]           Total Energy ::           -7.254173052563
                                        Band Energy ::           -3.719293921686
                                     Kinetic Energy ::            6.658310805860
                                   Potential Energy ::          -13.912483858423
                                      Virial (-V/T) ::            2.089491503788
                                        Core Energy ::           -9.654998472048
                                          XC Energy ::           -1.652518814120
                                     Coulomb Energy ::            4.053344233605
                       Total Pseudopotential Energy ::          -16.345361026747
                       Local Pseudopotential Energy ::          -16.345361026747
                    Nonlocal Pseudopotential Energy ::            0.000000000000
                                        Confinement ::            0.320517488397

 Orbital energies  State     L     Occupation   Energy[a.u.]          Energy[eV]

                       1     0          2.000      -1.829945          -49.795341
                       2     0          1.000      -0.059404           -1.616453


 Total Electron Density at R=0:                                         5.602304
 Re-scaling the density matrix to get the right number of electrons
                  # Electrons              Trace(P)               Scaling factor
                           12                12.000                        1.000


 SCF WAVEFUNCTION OPTIMIZATION

  Step     Update method      Time    Convergence         Total energy    Change
  ------------------------------------------------------------------------------
     1 NoMix/Diag. 0.30E+00    0.4     1.93609323       -29.2431513751 -2.92E+01
     2 Broy./Diag. 0.30E+00    0.1     0.00007172       -29.2909902625 -4.78E-02
     3 Broy./Diag. 0.30E+00    0.1     0.00021747       -29.2774204062  1.36E-02
     4 Broy./Diag. 0.30E+00    0.1     0.00000830       -29.2764241633  9.96E-04
     5 Broy./Diag. 0.30E+00    0.1     0.00002572       -29.2739615802  2.46E-03
     6 Broy./Diag. 0.30E+00    0.1     0.00000260       -29.2737114016  2.50E-04
     7 Broy./Diag. 0.30E+00    0.1     0.00000168       -29.2736275615  8.38E-05
     8 Broy./Diag. 0.30E+00    0.1     0.00000043       -29.2735798090  4.78E-05
     9 Broy./Diag. 0.30E+00    0.1     0.00000009       -29.2735693513  1.05E-05
    10 Broy./Diag. 0.30E+00    0.1     0.00000006       -29.2735541493  1.52E-05
    11 Broy./Diag. 0.30E+00    0.1     0.00000002       -29.2735533161  8.33E-07
    12 Broy./Diag. 0.30E+00    0.1     0.00000006       -29.2735525848  7.31E-07
    13 Broy./Diag. 0.30E+00    0.1     2.5209E-09       -29.2735524784  1.06E-07

  *** SCF run converged in    13 steps ***


  Electronic density on regular grids:        -11.9999999990        0.0000000010
  Core density on regular grids:               11.9999999977       -0.0000000023
  Total charge density on r-space grids:       -0.0000000013
  Total charge density g-space grids:          -0.0000000013

  Overlap energy of the core charge distribution:               0.00000000000000
  Self energy of the core charge distribution:                -25.38853125964904
  Core Hamiltonian energy:                                      1.06267856613147
  Hartree energy:                                               1.72162829326292
  Exchange-correlation energy:                                 -6.66922732814701
  Electronic entropic energy:                                  -0.00010074998911
  Fermi energy:                                                -0.10040847419847

  Total energy:                                               -29.27355247839262

 !-----------------------------------------------------------------------------!
                     Mulliken Population Analysis

 #  Atom  Element  Kind  Atomic population                           Net charge
       1     Li       1          3.000000                             -0.000000
       2     Li       1          3.000000                              0.000000
       3     Li       1          3.000000                              0.000000
       4     Li       1          3.000000                             -0.000000
 # Total charge                             12.000000                  0.000000

 !-----------------------------------------------------------------------------!

 !-----------------------------------------------------------------------------!
                           Hirshfeld Charges

  #Atom  Element  Kind  Ref Charge     Population                    Net charge
      1       Li     1       3.000          2.995                         0.005
      2       Li     1       3.000          2.995                         0.005
      3       Li     1       3.000          2.995                         0.005
      4       Li     1       3.000          2.995                         0.005

  Total Charge                                                            0.018
 !-----------------------------------------------------------------------------!

 BULKTRANSP| E_FERMI [a.u.] =                                  -1.0040847420E-01
 BULKTRANSP| HartreeLeadsBottom [a.u.] =                       -7.4273083200E-03

 ENERGY| Total FORCE_EVAL ( QS ) energy [a.u.]:              -29.273552478392624

 -------------------------------------------------------------------------------
 -                                                                             -
 -                                DBCSR STATISTICS                             -
 -                                                                             -
 -------------------------------------------------------------------------------
 COUNTER                                    TOTAL       BLAS       SMM       ACC
 flops inhomo. stacks                           0       0.0%      0.0%      0.0%
 flops total                         0.000000E+00       0.0%      0.0%      0.0%
 flops max/rank                      0.000000E+00       0.0%      0.0%      0.0%
 matmuls inhomo. stacks                         0       0.0%      0.0%      0.0%
 matmuls total                                  0       0.0%      0.0%      0.0%
 number of processed stacks                     0       0.0%      0.0%      0.0%
 average stack size                                     0.0       0.0       0.0
 marketing flops                     0.000000E+00
 -------------------------------------------------------------------------------
 -                                                                             -
 -                      DBCSR MESSAGE PASSING PERFORMANCE                      -
 -                                                                             -
 -------------------------------------------------------------------------------
 ROUTINE             CALLS      AVE VOLUME [Bytes]
 MP_Bcast                1                     12.
 MP_Allreduce          436                      9.
 MP_Alltoall         21792                  11191.
 -------------------------------------------------------------------------------

 -------------------------------------------------------------------------------
 -                                                                             -
 -                                DBM STATISTICS                               -
 -                                                                             -
 -------------------------------------------------------------------------------
    M  x    N  x    K                                          COUNT     PERCENT
 -------------------------------------------------------------------------------

 -------------------------------------------------------------------------------
 -                                                                             -
 -                                GRID STATISTICS                              -
 -                                                                             -
 -------------------------------------------------------------------------------
 LP    KERNEL             BACKEND                              COUNT     PERCENT
 0     collocate ortho    REF                                   5880      48.56%
 0     integrate ortho    REF                                   5460      45.09%
 0     collocate general  REF                                    512       4.23%
 0     integrate general  REF                                    256       2.11%
 -------------------------------------------------------------------------------

 MEMORY| Estimated peak process memory [MiB]                                 211

 -------------------------------------------------------------------------------
 ----                             MULTIGRID INFO                            ----
 -------------------------------------------------------------------------------
 count for grid        1:          10816          cutoff [a.u.]          200.00
 count for grid        2:           7760          cutoff [a.u.]           66.67
 count for grid        3:           4664          cutoff [a.u.]           22.22
 count for grid        4:           5340          cutoff [a.u.]            7.41
 total gridlevel count  :          28580

 -------------------------------------------------------------------------------
 -                                                                             -
 -                         MESSAGE PASSING PERFORMANCE                         -
 -                                                                             -
 -------------------------------------------------------------------------------

 ROUTINE             CALLS      AVE VOLUME [Bytes]
 MP_Group                5
 MP_Bcast             9963                  14716.
 MP_Allreduce          783                    555.
 MP_Sync                 4
 MP_Alltoall           245                 947604.
 MP_ISendRecv         3402                  11528.
 MP_Wait             11684
 MP_ISend             8854                  18792.
 MP_IRecv            12454                  13354.
 MP_Recv               112                     64.
 -------------------------------------------------------------------------------


 -------------------------------------------------------------------------------
 -                                                                             -
 -                           R E F E R E N C E S                               -
 -                                                                             -
 -------------------------------------------------------------------------------
 
 CP2K version 2022.1 (Development Version), the CP2K developers group (2022).
 CP2K is freely available from https://www.cp2k.org/ .

 Kuehne,Thomas D.; Iannuzzi,Marcella; Del Ben,Mauro;
 Rybkin,Vladimir V.; Seewald,Patrick; Stein,Frederick; Laino,Teodoro;
 Khaliullin,Rustam Z.; Schuett,Ole; Schiffmann,Florian; Golze,Dorothea;
 Wilhelm,Jan; Chulkov,Sergey; Bani-Hashemian,Mohammad Hossein;
 Weber,Valery; Borstnik,Urban; Taillefumier,Mathieu;
 Jakobovits,Alice Shoshana; Lazzaro,Alfio; Pabst,Hans; Mueller,Tiziano;
 Schade,Robert; Guidon,Manuel; Andermatt,Samuel; Holmberg,Nico;
 Schenter,Gregory K.; Hehn,Anna; Bussy,Augustin; Belleflamme,Fabian;
 Tabacchi,Gloria; Gloess,Andreas; Lass,Michael; Bethune,Iain;
 Mundy,Christopher J.; Plessl,Christian; Watkins,Matt;
 VandeVondele,Joost; Krack,Matthias; Hutter,Juerg. 
 The Journal of Chemical Physics, 152 (19), (2020). 
 CP2K: An electronic structure and molecular dynamics software package -
 Quickstep: Efficient and accurate electronic structure calculations.
 https://doi.org/10.1063/5.0007045

 Schuett, Ole; Messmer, Peter; Hutter, Juerg; VandeVondele, Joost. 
 Electronic Structure Calculations on Graphics Processing Units, John
 Wiley & Sons, Ltd, 173-190 (2016). 
 GPU-Accelerated Sparse Matrix-Matrix Multiplication for
 Linear Scaling Density Functional Theory.
 https://doi.org/10.1002/9781118670712.ch8

 Borstnik, U; VandeVondele, J; Weber, V; Hutter, J. 
 PARALLEL COMPUTING, 40 (5-6), 47-58 (2014). 
 Sparse matrix multiplication: The distributed block-compressed sparse
 row library.
 https://doi.org/10.1016/j.parco.2014.03.012

 Hutter, J; Iannuzzi, M; Schiffmann, F; VandeVondele, J. 
 WIREs Comput Mol Sci., 4 (1), 15-25 (2014). 
 CP2K: atomistic simulations of condensed matter systems.
 https://doi.org/10.1002/wcms.1159

 Marek, A; Blum, V; Johanni, R; Havu, V; Lang, B; Auckenthaler, T;
 Heinecke, A; Bungartz, H; Lederer, H. 
 Journal of Physics: Condensed Matter, 26 (21), (2014). 
 The ELPA library: scalable parallel eigenvalue solutions for
 electronic structure
 theory and computational science.
 https://doi.org/10.1088/0953-8984/26/21/213201

 VandeVondele, J; Hutter, J. 
 JOURNAL OF CHEMICAL PHYSICS, 127 (11), 114105 (2007). 
 Gaussian basis sets for accurate calculations on molecular systems in
 gas and condensed phases.
 https://doi.org/10.1063/1.2770708

 Krack, M. 
 THEORETICAL CHEMISTRY ACCOUNTS, 114 (1-3), 145-152 (2005). 
 Pseudopotentials for H to Kr optimized for gradient-corrected
 exchange-correlation functionals.
 https://doi.org/10.1007/s00214-005-0655-y

 VandeVondele, J; Krack, M; Mohamed, F; Parrinello, M; Chassaing, T;
 Hutter, J. COMPUTER PHYSICS COMMUNICATIONS, 167 (2), 103-128 (2005). 
 QUICKSTEP: Fast and accurate density functional calculations using a
 mixed Gaussian and plane waves approach.
 https://doi.org/10.1016/j.cpc.2004.12.014

 Frigo, M; Johnson, SG. 
 PROCEEDINGS OF THE IEEE, 93 (2), 216-231 (2005). 
 The design and implementation of FFTW3.
 https://doi.org/10.1109/JPROC.2004.840301

 Hartwigsen, C; Goedecker, S; Hutter, J. 
 PHYSICAL REVIEW B, 58 (7), 3641-3662 (1998). 
 Relativistic separable dual-space Gaussian pseudopotentials from H to Rn.
 https://doi.org/10.1103/PhysRevB.58.3641

 Lippert, G; Hutter, J; Parrinello, M. 
 MOLECULAR PHYSICS, 92 (3), 477-487 (1997). 
 A hybrid Gaussian and plane wave density functional scheme.
 https://doi.org/10.1080/002689797170220

 Goedecker, S; Teter, M; Hutter, J. 
 PHYSICAL REVIEW B, 54 (3), 1703-1710 (1996). 
 Separable dual-space Gaussian pseudopotentials.
 https://doi.org/10.1103/PhysRevB.54.1703


 -------------------------------------------------------------------------------
 -                                                                             -
 -                                T I M I N G                                  -
 -                                                                             -
 -------------------------------------------------------------------------------
 SUBROUTINE                       CALLS  ASD         SELF TIME        TOTAL TIME
                                MAXIMUM       AVERAGE  MAXIMUM  AVERAGE  MAXIMUM
 CP2K                                 1  1.0    0.029    0.052    2.932    2.934
 qs_energies                          1  2.0    0.004    0.006    2.521    2.523
 scf_env_do_scf                       1  3.0    0.000    0.001    2.100    2.101
 scf_env_do_scf_inner_loop           13  4.0    0.005    0.005    2.099    2.101
 qs_scf_new_mos_kp                   13  5.0    0.000    0.000    1.176    1.179
 do_general_diag_kp                  13  6.0    0.009    0.010    1.176    1.179
 qs_rho_update_rho_low               14  5.0    0.000    0.001    0.472    0.474
 calculate_rho_elec                  14  6.0    0.005    0.006    0.472    0.474
 cp_cfm_geeig                        65  7.0    0.001    0.001    0.455    0.457
 rs_pw_transfer                     111  9.4    0.002    0.002    0.389    0.407
 copy_dbcsr_to_fm                  1056  7.0    0.009    0.010    0.371    0.377
 qs_ks_update_qs_env                 13  5.0    0.000    0.000    0.372    0.375
 pw_transfer                        174  8.9    0.014    0.017    0.356    0.371
 rebuild_ks_matrix                   13  6.0    0.001    0.001    0.367    0.369
 qs_ks_build_kohn_sham_matrix        13  7.0    0.004    0.006    0.366    0.369
 density_rs2pw                       14  7.0    0.001    0.002    0.342    0.364
 fft_wrap_pw1pw2                    148  9.9    0.001    0.001    0.337    0.351
 dbcsr_complete_redistribute       1616  8.3    0.045    0.047    0.303    0.309
 fft3d_ps                           148 11.9    0.139    0.156    0.277    0.290
 fft_wrap_pw1pw2_200                 67 10.2    0.018    0.023    0.271    0.288
 sum_up_and_integrate                13  8.0    0.002    0.002    0.254    0.257
 integrate_v_rspace                  13  9.0    0.000    0.001    0.252    0.255
 potential_pw2rs                     13 10.0    0.001    0.001    0.247    0.249
 cp_cfm_heevd                        65  8.0    0.246    0.247    0.246    0.247
 init_scf_run                         1  3.0    0.000    0.000    0.237    0.238
 scf_env_initial_rho_setup            1  4.0    0.001    0.002    0.237    0.238
 dbcsr_desymmetrize_deep           2096  7.5    0.028    0.030    0.196    0.203
 mp_waitany                        1254 11.3    0.139    0.171    0.139    0.171
 mp_alltoall_i22                   3712  8.8    0.156    0.167    0.156    0.167
 cp_cfm_cholesky_decompose           65  8.0    0.161    0.162    0.161    0.162
 gspace_mixing                       12  5.0    0.004    0.006    0.157    0.158
 qs_init_subsys                       1  2.0    0.006    0.008    0.148    0.152
 rs_pw_transfer_RS2PW_200            16  8.8    0.058    0.064    0.126    0.143
 fft3d_s                              1  2.0    0.030    0.031    0.130    0.132
 grid_collocate_task_list            14  7.0    0.118    0.128    0.118    0.128
 calculate_first_density_matrix       1  5.0    0.000    0.001    0.124    0.126
 calculate_atomic_block_dm            1  6.0    0.004    0.006    0.123    0.126
 kpoint_density_transform            14  6.9    0.003    0.004    0.125    0.126
 rs_pw_transfer_PW2RS_200            14 11.7    0.039    0.043    0.113    0.118
 cp_fm_start_copy_general          1600  7.3    0.015    0.025    0.114    0.116
 calculate_atom                       1  7.0    0.000    0.001    0.111    0.114
 calculate_atom_restricted            1  8.0    0.110    0.114    0.111    0.114
 mp_alltoall_z22v                   148 13.9    0.105    0.114    0.105    0.114
 qs_energies_init_hamiltonians        1  3.0    0.003    0.005    0.108    0.110
 broyden_mixing                      12  6.0    0.102    0.105    0.106    0.109
 get_fft_scratch                    149 12.8    0.104    0.106    0.104    0.107
 qs_env_update_s_mstruct              1  4.0    0.000    0.001    0.088    0.093
 init_qs_kind_set                     1  3.0    0.000    0.000    0.090    0.093
 init_qs_kind                         1  4.0    0.000    0.000    0.090    0.093
 init_orb_basis_set                   1  5.0    0.000    0.000    0.090    0.093
 init_cphi_and_sphi                   1  6.0    0.090    0.092    0.090    0.092
 mp_cart_sub                       2118  9.0    0.080    0.083    0.080    0.083
 calculate_rho_core                   1  5.0    0.003    0.005    0.077    0.081
 copy_fm_to_dbcsr                   560  7.9    0.001    0.002    0.078    0.079
 create_qs_kind_set                   1  2.0    0.000    0.001    0.072    0.076
 read_qs_kind                         1  3.0    0.010    0.013    0.072    0.075
 parser_read_line                  1481  4.0    0.001    0.001    0.064    0.067
 parser_read_line_low                 4  5.5    0.002    0.056    0.063    0.066
 broadcast_input_information          4  6.5    0.000    0.000    0.062    0.065
 x_to_yz                             52 12.3    0.005    0.006    0.061    0.065
 mp_bcast_i                          34  4.6    0.058    0.062    0.058    0.062
 -------------------------------------------------------------------------------

 The number of warnings for this run is : 2
 
 -------------------------------------------------------------------------------
  **** **** ******  **  PROGRAM ENDED AT                 2023-10-31 13:59:53.795
 ***** ** ***  *** **   PROGRAM RAN ON                                 nid001479
 **    ****   ******    PROGRAM RAN BY                                    cahart
 ***** **    ** ** **   PROGRAM PROCESS ID                                  4879
  **** **  *******  **  PROGRAM STOPPED IN /mnt/lustre/a2fs-work2/work/e05/e05/c
                                           ahart/postdoc/transport/cp2k-smeagol-
                                           examples/li-chain/cp2k-smeagol/transm
                                           ission/kpoints-1-1-20_20220907-memory
                                           _hash-143
