ATOMS
H             3.25353201      5.72009504     18.92650888            -0.03923508      0.70600222     -0.00463396
H             3.25943371      5.72541282     19.67655762             0.03923508     -0.70600222      0.00463396
