SIESTA 1.3.7  -- [1.3f1 release] (04 Feb 2004)
Architecture  : 
Compiler flags:  -O3
PARALLEL version

* Running on    4 nodes in parallel
>> Start of run:   5-OCT-2013  10:20:05

                           ***********************       
                           *  WELCOME TO SIESTA  *       
                           ***********************       

reinit: Reading from standard input
************************** Dump of input data file ****************************
#
SystemName                   mol            # Descriptive name of the system
SystemLabel                  mol            # Short name for naming files
NumberOfSpecies              1             # Number of species
NumberOfAtoms                2           # Number of atoms
%block ChemicalSpeciesLabel
 1    1   H
%endblock ChemicalSpeciesLabel
# ps
%block Ps.lmax
  H     3
%endblock Ps.lmax
# Basis
PAO.BasisType                split         # Type of basis ('nones', 'nonodes', 'split')
PAO.SplitNorm  0.15
%block PAO.Basis                           # basis
H     2      0.00
 n=1    0    2   E      2.07      0.50
   5.75  1.5
   1.000   1.000
 n=2    1    1   E      0.89      0.01
   5.500
   1.000
%endblock PAO.Basis
# lattice vectors
LatticeConstant              1.0 Ang
%block LatticeVectors
         20.00000        0.00000000       0.00000000
         0.00000        20.0000000        0.00000000
         0.00000000      0.00000000      20.0000
%endblock LatticeVectors
# coordinates
AtomicCoordinatesFormat      Ang
%block AtomicCoordinatesAndAtomicSpecies
    0.00000000    0.00000000   -0.00998254   1  H          1
    0.00000000    0.00000000    0.73998166   1  H          2
%endblock AtomicCoordinatesAndAtomicSpecies
# constrains in relaxation
#%block GeometryConstraints
#   position   from  1 to  54
#   position   from  -1 to  -45
#%endblock GeometryConstraints
# real space mesh grid
MeshCutoff                   800.0 Ry
%block GridCellSampling
  0.5  0.5   0.0
  0.5  0.0   0.5
  0.0  0.5   0.5
%endblock GridCellSampling
# reciprocal space
%block kgrid_Monkhorst_Pack
  1   0   0    0.0
  0   1   0    0.0
  0   0   1    0.0
%endblock kgrid_Monkhorst_Pack
#ProcessorY                   4
#BlockSize                    100
%block ExternalElectricField
   0.000 0.000 0.070 V/Ang
%endblock ExternalElectricField
# functional
xc.functional                GGA           # 'LDA', 'GGA'
xc.authors                   PBE           # 'CA'='PZ', 'PW92', 'PBE'
# scf
MaxSCFIterations             300
DM.MixingWeight              0.02
DM.Tolerance                 2.0E-5
DM.UseSaveDM                 T
DM.NumberPulay               6             # Pulay convergency accelerator
SolutionMethod               diagon
ElectronicTemperature        300 K         # Default value
# MD options
MD.TypeOfRun                 fc            # Type of dynamics:
MD.VariableCell              false         # if vary cell
MD.NumCGsteps                300             # Number of CG steps for relaxation
MD.MaxCGDispl                0.08 Ang     # Maximum atomic displacement at one step
MD.MaxForceTol               0.01 eV/Ang   # Tolerance in the maximum force min(fx, fy, fz)
MD.MaxStressTol              0.1 Gpa
MD.FCDispl                 0.02 ang
MD.FCIR                    T
MD.FCEigenVectors          T
MD.FCRead                  F
MD.FCAtomRestart           46
MD.FCAxisRestart           1
MD.InitialTimeStep         1
MD.FinalTimeStep           10
MD.LengthTimeStep          1.0 fs
MD.InitialTemperature      100.0 K
MD.TargetTemperature       100.0 K
#MD.TargetPressure          3.0 Gpa
#Siesta Output Flags
SaveHS                       F           # Hamiltonian and overlap in sparse
SaveRHO                      F
WriteMullikenPop             1
WriteForces                  T
WriteCoorStep                T
SaveElectrostaticPotential   T             # Hartree Potential file
************************** End of input data file *****************************

reinit: -----------------------------------------------------------------------
reinit: System Name: mol                                                        
reinit: -----------------------------------------------------------------------
reinit: System Label: mol                 
reinit: -----------------------------------------------------------------------

initatom: Reading input for the pseudopotentials and atomic orbitals ----------
 Species number:            1  Label: H Atomic number:           1
Ground state valence configuration:   1s01
Reading pseudopotential information in formatted form from H.psf
relmxkb: Read Max KB Ang. Momentum=    3 for species H

<basis_specs>
===============================================================================
H                    Z=   1    Mass=  1.0100        Charge=  0.0000    
Lmxo=1 Lmxkb=3     BasisType=split      Semic=F
L=0  Nsemic=0  Cnfigmx=1
          n=1  nzeta=2  polorb=0
               vcte:    2.0700    
               rinn:   0.50000    
                rcs:    5.7500      1.5000    
            lambdas:    1.0000      1.0000    
L=1  Nsemic=0  Cnfigmx=2
          n=1  nzeta=1  polorb=0
               vcte:   0.89000    
               rinn:   0.10000E-01
                rcs:    5.5000    
            lambdas:    1.0000    
-------------------------------------------------------------------------------
L=0  Nkbl=1  erefs: 0.17977+309
L=1  Nkbl=1  erefs: 0.17977+309
L=2  Nkbl=1  erefs: 0.17977+309
L=3  Nkbl=1  erefs: 0.17977+309
===============================================================================
</basis_specs>

atom: Called for H   (Z =   1)

read_vps: Pseudopotential generation method:
read_vps: ATM3      Troullier-Martins                       

read_vps: Valence configuration (pseudopotential and basis set generation):
1s( 1.00) rc: 1.89
2p( 0.00) rc: 1.80
3d( 0.00) rc: 1.49
4f( 0.00) rc: 1.49
read_vps: Spin-orbit interaction is not included in this calculation
Total valence charge:    1.00000

xc_check: Exchange-correlation functional:
xc_check: GGA Perdew, Burke & Ernzerhof 1996
V l=0 = -2*Zval/r beyond r=  1.8658
V l=1 = -2*Zval/r beyond r=  1.7970
V l=2 = -2*Zval/r beyond r=  1.8196
V l=3 = -2*Zval/r beyond r=  1.8196
All V_l potentials equal beyond r=  1.8658
This should be close to max(r_c) in ps generation
All pots = -2*Zval/r beyond r=  1.8658

VLOCAL1: 99.0% of the norm of Vloc inside     12.470 Ry
VLOCAL1: 99.9% of the norm of Vloc inside     28.418 Ry
atom: Maximum radius for 4*pi*r*r*local-pseudopot. charge    2.16811
atom: Maximum radius for r*vlocal+2*Zval:    1.84256
GHOST: No ghost state for L =  0
GHOST: No ghost state for L =  1
GHOST: No ghost state for L =  2
GHOST: No ghost state for L =  3

KBgen: Kleinman-Bylander projectors: 
   l= 0   rc=  2.011274   el= -0.477200   Ekb= -1.572097   kbcos= -0.493163
   l= 1   rc=  2.141150   el=  0.001076   Ekb= -0.356432   kbcos= -0.050277
   l= 2   rc=  2.195416   el=  0.002010   Ekb= -0.177656   kbcos= -0.007774
   l= 3   rc=  2.251056   el=  0.003122   Ekb= -0.068270   kbcos= -0.002268

KBgen: Total number of  Kleinman-Bylander projectors:   16
atom: -------------------------------------------------------------------------

atom: SANKEY-TYPE ORBITALS:
atom: Selected multiple-zeta basis: split     

SPLIT: Orbitals with angular momentum L= 0

SPLIT: Basis orbitals for state 1s

   izeta = 1
                 lambda =    1.000000
                     rc =    5.752124
                 energy =   -0.469599
                kinetic =    0.919264
    potential(screened) =   -1.388863
       potential(ionic) =   -1.911599

   izeta = 2
                 rmatch =    1.527112
              splitnorm =    0.807394
                 energy =    2.126033
                kinetic =    5.261681
    potential(screened) =   -3.135649
       potential(ionic) =   -3.696632

SPLIT: Orbitals with angular momentum L= 1

SPLIT: Basis orbitals for state 2p

   izeta = 1
                 lambda =    1.000000
                     rc =    5.471469
                 energy =    0.371359
                kinetic =    0.737398
    potential(screened) =   -0.366040
       potential(ionic) =   -0.791603
atom: Total number of Sankey-type orbitals:  5

atm_pop: Valence configuration(local Pseudopot. screening):
 1s( 1.00)                                                            
 2p( 0.00)                                                            
Vna: chval, zval:    1.00000   1.00000

Vna:  Cut-off radius for the neutral-atom potential:   5.752124

atom: _________________________________________________________________________

prinput: Basis input ----------------------------------------------------------

PAO.BasisType split     

%block ChemicalSpeciesLabel
    1    1 H                       # Species index, atomic number, species label
%endblock ChemicalSpeciesLabel

%block PAO.Basis                 # Define Basis set
H           2                    # Species label, number of l-shells
 n=1   0   2                         # n, l, Nzeta 
   5.752      1.527   
   1.000      1.000   
 n=2   1   1                         # n, l, Nzeta 
   5.471   
   1.000   
%endblock PAO.Basis

prinput: ----------------------------------------------------------------------


siesta: ******************** Simulation parameters ****************************
siesta:
siesta: The following are some of the parameters of the simulation.
siesta: A complete list of the parameters used, including defect values,
siesta: can be found in file out.fdf
siesta:
coor:   Atomic-coordinates input format  =     Cartesian coordinates
coor:                                          (in Angstroms)
redata: Number of spin components        =     1
redata: SpinOrbit                        =     0
redata: Long output                      =     F
redata: Number of Atomic Species         =     1
redata: Charge density info will appear in .RHO file
redata: Write Mulliken Pop.              =     Atomic and Orbital charges
redata: Mesh Cutoff                      =   800.0000  Ry
redata: Net charge of the system         =     0.0000 |e|
redata: Max. number of SCF Iter          =   300
redata: One Pulay mixing every           =     6 iterations
redata: Mix DM in first SCF step ?       =     F
redata: Write Pulay info on disk?        =     F
redata: New DM Mixing Weight             =     0.0200
redata: No kicks to SCF
redata: DM Mixing Weight for Kicks       =     0.5000
redata: DM Tolerance for SCF             =     0.000020
redata: Use continuation files for DM    =     T
redata: Neglect nonoverlap interactions  =     F
redata: Method of Calculation            =     Diagonalization
redata: Divide and Conquer               =     F
redata: Electronic Temperature           =     0.0019  Ry
redata: Fix the spin of the system       =     F
redata: Dynamics option                  =     Force Constants Matrix Calculation
redata: Atomic displ for force constants =     0.0378  Bohr
redata: First atom to move               =      1
redata: Last atom to move                =      2
redata: Read previous FC                 =     F
redata: Acoustic sum rule                =     T
redata: Calculate Eigen Vectors          =     T
redata: Calculate Infrared Intensity     =     T
redata: ***********************************************************************

siesta: Atomic coordinates (Bohr) and species
siesta:      0.00000   0.00000  -0.01886  1        1
siesta:      0.00000   0.00000   1.39836  1        2

initatomlists: Number of atoms, orbitals, and projectors:      2    10    32

siesta: System type = molecule  
 Nodes, Orbitals           4          10
 blocksizedefault           2

* ProcessorY, Blocksize:    2   2

 Using EM.ParallelOverKNum =           1
 label:           1 H                              1 s      
 label:           2 H                              1 s      
 label:           3 H                              1 py     
 label:           4 H                              1 pz     
 label:           5 H                              1 px     
 label:           6 H                              2 s      
 label:           7 H                              2 s      
 label:           8 H                              2 py     
 label:           9 H                              2 pz     
 label:          10 H                              2 px     
 
* Maximum dynamic memory allocated =     1 MB

siesta:                 ==============================
                        Begin FC step =     0 of    12
                            Undisplaced coordinates
                        ==============================

outcoor: Atomic coordinates (Ang):                          
    0.00000000    0.00000000   -0.00998254   1  H          1
    0.00000000    0.00000000    0.73998166   1  H          2

read_ldau The LDA+U method used is from Czyzky PRB 49 14211

iodm: Reading Density Matrix from files

mol.DM                           

InitMesh: MESH =   360 x   360 x   360 =    46656000
InitMesh: Mesh cutoff (required, used) =   800.000   895.461 Ry

efield: External electric field =    0.000000    0.000000    0.002723 Ry/Bohr/e
 
* Maximum dynamic memory allocated =   583 MB

stepf: Fermi-Dirac step function

siesta: Program's energy decomposition (eV):
siesta: Eions   =        26.074526
siesta: Ena     =         4.296329
siesta: Ekin    =        26.390879
siesta: Enl     =       -17.162465
siesta: DEna    =        -1.459734
siesta: DUscf   =         0.252103
siesta: DUext   =        -0.000355
siesta: Exc     =       -17.578078
siesta: eta*DQ  =         0.000000
siesta: Emadel  =         0.000000
siesta: Eharris =       -31.336125
siesta: Eso     =         0.000000
siesta: Etot    =       -31.335848
siesta: FreeEng =       -31.335848

siesta: iscf   Eharris(eV)      E_KS(eV)   FreeEng(eV)     dDmax   Ef(eV)
siesta:    1      -31.3361      -31.3358      -31.3358   0.00002  -4.9028
timer: Routine,Calls,Time,% = IterSCF        1      75.654  97.89
grdsam: Reading %block GridCellSampling
grdsam: Grid-cell sampling, point   0
grdsam: Generating displacements for grid-cell sampling
grdsam: Grid-cell sampling, point   1
grdsam: Grid-cell sampling, point   2
grdsam: Grid-cell sampling, point   3

siesta: E_KS(eV) =              -31.3361

siesta: E_KS - E_eggbox =       -31.3361

siesta: Atomic forces (eV/Ang):
     1    0.000000    0.000000   -0.000785
     2    0.000000    0.000000    0.000905
----------------------------------------
 Tot    0.000000    0.000000    0.000120
----------------------------------------
 Max    0.000905
 Res    0.000489    sqrt( Sum f_i^2 / 3N )
----------------------------------------
 Max    0.000905    constrained
 
mulliken: Atomic and Orbital Populations:

Species: H                   
Atom  Qatom  Qorb
               1s      1s      2py     2pz     2px     
   1  1.002   0.905   0.083   0.000   0.014   0.000
   2  0.998   0.900   0.083   0.000   0.015   0.000

mulliken: Qtot =    2.000
 
* Maximum dynamic memory allocated =   583 MB

siesta:                 ==============================
                        Begin FC step =     1 of    12
                            displace atom        1
                            in direction         1
                        by  -0.0378 Bohr =  -0.0200 Ang
                        ==============================

outcoor: Atomic coordinates (Ang):                          
   -0.02000000    0.00000000   -0.00998254   1  H          1
    0.00000000    0.00000000    0.73998166   1  H          2

siesta: iscf   Eharris(eV)      E_KS(eV)   FreeEng(eV)     dDmax   Ef(eV)
siesta:    1      -31.3361      -31.3361      -31.3361   0.00065  -4.9009
siesta:    2      -31.3361      -31.3361      -31.3361   0.00002  -4.9018
siesta:    3      -31.3361      -31.3361      -31.3361   0.00001  -4.9018
grdsam: Grid-cell sampling, point   0
grdsam: Grid-cell sampling, point   1
grdsam: Grid-cell sampling, point   2
grdsam: Grid-cell sampling, point   3

siesta: E_KS(eV) =              -31.3361

siesta: Atomic forces (eV/Ang):
     1    0.000286    0.000000    0.008541
     2   -0.000274    0.000000   -0.008531
----------------------------------------
 Tot    0.000012    0.000000    0.000009
----------------------------------------
 Max    0.008541
 Res    0.004931    sqrt( Sum f_i^2 / 3N )
----------------------------------------
 Max    0.008541    constrained
 
mulliken: Atomic and Orbital Populations:

Species: H                   
Atom  Qatom  Qorb
               1s      1s      2py     2pz     2px     
   1  1.002   0.905   0.083   0.000   0.014   0.000
   2  0.998   0.900   0.083   0.000   0.015   0.000

mulliken: Qtot =    2.000
 
* Maximum dynamic memory allocated =   584 MB

siesta:                 ==============================
                        Begin FC step =     2 of    12
                            displace atom        1
                            in direction         1
                        by   0.0378 Bohr =   0.0200 Ang
                        ==============================

outcoor: Atomic coordinates (Ang):                          
    0.02000000    0.00000000   -0.00998254   1  H          1
    0.00000000    0.00000000    0.73998166   1  H          2

siesta: iscf   Eharris(eV)      E_KS(eV)   FreeEng(eV)     dDmax   Ef(eV)
siesta:    1      -31.3361      -31.3361      -31.3361   0.00130  -4.9019
siesta:    2      -31.3361      -31.3361      -31.3361   0.00005  -4.9017
siesta:    3      -31.3361      -31.3361      -31.3361   0.00000  -4.9017
grdsam: Grid-cell sampling, point   0
grdsam: Grid-cell sampling, point   1
grdsam: Grid-cell sampling, point   2
grdsam: Grid-cell sampling, point   3

siesta: E_KS(eV) =              -31.3361

siesta: Atomic forces (eV/Ang):
     1   -0.000253    0.000000    0.008800
     2    0.000241    0.000000   -0.008790
----------------------------------------
 Tot   -0.000012    0.000000    0.000009
----------------------------------------
 Max    0.008800
 Res    0.005080    sqrt( Sum f_i^2 / 3N )
----------------------------------------
 Max    0.008800    constrained
 
mulliken: Atomic and Orbital Populations:

Species: H                   
Atom  Qatom  Qorb
               1s      1s      2py     2pz     2px     
   1  1.002   0.905   0.083   0.000   0.014   0.000
   2  0.998   0.900   0.083   0.000   0.015   0.000

mulliken: Qtot =    2.000
 
* Maximum dynamic memory allocated =   584 MB

siesta:                 ==============================
                        Begin FC step =     3 of    12
                            displace atom        1
                            in direction         2
                        by  -0.0378 Bohr =  -0.0200 Ang
                        ==============================

outcoor: Atomic coordinates (Ang):                          
    0.00000000   -0.02000000   -0.00998254   1  H          1
    0.00000000    0.00000000    0.73998166   1  H          2

siesta: iscf   Eharris(eV)      E_KS(eV)   FreeEng(eV)     dDmax   Ef(eV)
siesta:    1      -31.3361      -31.3361      -31.3361   0.00065  -4.9017
siesta:    2      -31.3361      -31.3361      -31.3361   0.00002  -4.9017
siesta:    3      -31.3361      -31.3361      -31.3361   0.00000  -4.9017
grdsam: Grid-cell sampling, point   0
grdsam: Grid-cell sampling, point   1
grdsam: Grid-cell sampling, point   2
grdsam: Grid-cell sampling, point   3

siesta: E_KS(eV) =              -31.3361

siesta: Atomic forces (eV/Ang):
     1    0.000000    0.000249    0.008762
     2    0.000000   -0.000237   -0.008753
----------------------------------------
 Tot   -0.000001    0.000012    0.000009
----------------------------------------
 Max    0.008762
 Res    0.005058    sqrt( Sum f_i^2 / 3N )
----------------------------------------
 Max    0.008762    constrained
 
mulliken: Atomic and Orbital Populations:

Species: H                   
Atom  Qatom  Qorb
               1s      1s      2py     2pz     2px     
   1  1.002   0.905   0.083   0.000   0.014   0.000
   2  0.998   0.900   0.083   0.000   0.015   0.000

mulliken: Qtot =    2.000
 
* Maximum dynamic memory allocated =   584 MB

siesta:                 ==============================
                        Begin FC step =     4 of    12
                            displace atom        1
                            in direction         2
                        by   0.0378 Bohr =   0.0200 Ang
                        ==============================

outcoor: Atomic coordinates (Ang):                          
    0.00000000    0.02000000   -0.00998254   1  H          1
    0.00000000    0.00000000    0.73998166   1  H          2

siesta: iscf   Eharris(eV)      E_KS(eV)   FreeEng(eV)     dDmax   Ef(eV)
siesta:    1      -31.3361      -31.3361      -31.3361   0.00130  -4.9018
siesta:    2      -31.3361      -31.3361      -31.3361   0.00005  -4.9017
siesta:    3      -31.3361      -31.3361      -31.3361   0.00000  -4.9017
grdsam: Grid-cell sampling, point   0
grdsam: Grid-cell sampling, point   1
grdsam: Grid-cell sampling, point   2
grdsam: Grid-cell sampling, point   3

siesta: E_KS(eV) =              -31.3361

siesta: Atomic forces (eV/Ang):
     1    0.000000   -0.000250    0.008769
     2    0.000000    0.000238   -0.008760
----------------------------------------
 Tot    0.000001   -0.000012    0.000009
----------------------------------------
 Max    0.008769
 Res    0.005062    sqrt( Sum f_i^2 / 3N )
----------------------------------------
 Max    0.008769    constrained
 
mulliken: Atomic and Orbital Populations:

Species: H                   
Atom  Qatom  Qorb
               1s      1s      2py     2pz     2px     
   1  1.002   0.905   0.083   0.000   0.014   0.000
   2  0.998   0.900   0.083   0.000   0.015   0.000

mulliken: Qtot =    2.000
 
* Maximum dynamic memory allocated =   584 MB

siesta:                 ==============================
                        Begin FC step =     5 of    12
                            displace atom        1
                            in direction         3
                        by  -0.0378 Bohr =  -0.0200 Ang
                        ==============================

outcoor: Atomic coordinates (Ang):                          
    0.00000000    0.00000000   -0.02998254   1  H          1
    0.00000000    0.00000000    0.73998166   1  H          2

siesta: iscf   Eharris(eV)      E_KS(eV)   FreeEng(eV)     dDmax   Ef(eV)
siesta:    1      -31.3295      -31.3275      -31.3275   0.00504  -4.7780
siesta:    2      -31.3293      -31.3293      -31.3293   0.00068  -4.8372
siesta:    3      -31.3293      -31.3291      -31.3291   0.00022  -4.8311
siesta:    4      -31.3293      -31.3293      -31.3293   0.00006  -4.8318
siesta:    5      -31.3293      -31.3293      -31.3293   0.00005  -4.8318
siesta:    6      -31.3293      -31.3293      -31.3293   0.00005  -4.8318
siesta:    7      -31.3293      -31.3293      -31.3293   0.00005  -4.8318
siesta:    8      -31.3293      -31.3293      -31.3293   0.00005  -4.8318
siesta:    9      -31.3293      -31.3293      -31.3293   0.00005  -4.8318
siesta:   10      -31.3293      -31.3293      -31.3293   0.00005  -4.8318
siesta:   11      -31.3293      -31.3293      -31.3293   0.00005  -4.8318
siesta:   12      -31.3293      -31.3293      -31.3293   0.00004  -4.8318
siesta:   13      -31.3293      -31.3293      -31.3293   0.00004  -4.8318
siesta:   14      -31.3293      -31.3293      -31.3293   0.00004  -4.8318
siesta:   15      -31.3293      -31.3293      -31.3293   0.00004  -4.8318
siesta:   16      -31.3293      -31.3293      -31.3293   0.00004  -4.8318
siesta:   17      -31.3293      -31.3293      -31.3293   0.00004  -4.8318
siesta:   18      -31.3293      -31.3293      -31.3293   0.00004  -4.8318
siesta:   19      -31.3293      -31.3293      -31.3293   0.00004  -4.8318
siesta:   20      -31.3293      -31.3293      -31.3293   0.00003  -4.8318
siesta:   21      -31.3293      -31.3293      -31.3293   0.00003  -4.8318
siesta:   22      -31.3293      -31.3293      -31.3293   0.00003  -4.8318
siesta:   23      -31.3293      -31.3293      -31.3293   0.00003  -4.8318
siesta:   24      -31.3293      -31.3293      -31.3293   0.00003  -4.8318
siesta:   25      -31.3293      -31.3293      -31.3293   0.00003  -4.8318
siesta:   26      -31.3293      -31.3293      -31.3293   0.00003  -4.8319
siesta:   27      -31.3293      -31.3293      -31.3293   0.00003  -4.8319
siesta:   28      -31.3293      -31.3293      -31.3293   0.00003  -4.8319
siesta:   29      -31.3293      -31.3293      -31.3293   0.00003  -4.8319
siesta:   30      -31.3293      -31.3293      -31.3293   0.00003  -4.8319
siesta:   31      -31.3293      -31.3293      -31.3293   0.00003  -4.8319
siesta:   32      -31.3293      -31.3293      -31.3293   0.00002  -4.8319
siesta:   33      -31.3293      -31.3293      -31.3293   0.00002  -4.8319
siesta:   34      -31.3293      -31.3293      -31.3293   0.00002  -4.8319
siesta:   35      -31.3293      -31.3293      -31.3293   0.00002  -4.8319
siesta:   36      -31.3293      -31.3293      -31.3293   0.00002  -4.8319
siesta:   37      -31.3293      -31.3293      -31.3293   0.00002  -4.8319
siesta:   38      -31.3293      -31.3293      -31.3293   0.00002  -4.8319
siesta:   39      -31.3293      -31.3293      -31.3293   0.00002  -4.8319
grdsam: Grid-cell sampling, point   0
grdsam: Grid-cell sampling, point   1
grdsam: Grid-cell sampling, point   2
grdsam: Grid-cell sampling, point   3

siesta: E_KS(eV) =              -31.3293

siesta: Atomic forces (eV/Ang):
     1    0.000000    0.000112    0.665860
     2    0.000000   -0.000112   -0.665822
----------------------------------------
 Tot    0.000000    0.000000    0.000038
----------------------------------------
 Max    0.665860
 Res    0.384424    sqrt( Sum f_i^2 / 3N )
----------------------------------------
 Max    0.665860    constrained
 
mulliken: Atomic and Orbital Populations:

Species: H                   
Atom  Qatom  Qorb
               1s      1s      2py     2pz     2px     
   1  1.002   0.910   0.079   0.000   0.013   0.000
   2  0.998   0.905   0.079   0.000   0.015   0.000

mulliken: Qtot =    2.000
 
* Maximum dynamic memory allocated =   584 MB

siesta:                 ==============================
                        Begin FC step =     6 of    12
                            displace atom        1
                            in direction         3
                        by   0.0378 Bohr =   0.0200 Ang
                        ==============================

outcoor: Atomic coordinates (Ang):                          
    0.00000000    0.00000000    0.01001746   1  H          1
    0.00000000    0.00000000    0.73998166   1  H          2

siesta: iscf   Eharris(eV)      E_KS(eV)   FreeEng(eV)     dDmax   Ef(eV)
siesta:    1      -31.3293      -31.3212      -31.3212   0.01027  -5.0852
siesta:    2      -31.3285      -31.3285      -31.3285   0.00148  -4.9570
siesta:    3      -31.3285      -31.3277      -31.3277   0.00044  -4.9717
siesta:    4      -31.3285      -31.3286      -31.3286   0.00016  -4.9686
siesta:    5      -31.3285      -31.3286      -31.3286   0.00015  -4.9687
siesta:    6      -31.3285      -31.3286      -31.3286   0.00015  -4.9687
siesta:    7      -31.3285      -31.3286      -31.3286   0.00014  -4.9687
siesta:    8      -31.3285      -31.3286      -31.3286   0.00014  -4.9687
siesta:    9      -31.3285      -31.3286      -31.3286   0.00014  -4.9687
siesta:   10      -31.3285      -31.3286      -31.3286   0.00013  -4.9688
siesta:   11      -31.3285      -31.3286      -31.3286   0.00013  -4.9688
siesta:   12      -31.3285      -31.3286      -31.3286   0.00013  -4.9688
siesta:   13      -31.3285      -31.3286      -31.3286   0.00012  -4.9688
siesta:   14      -31.3285      -31.3286      -31.3286   0.00012  -4.9688
siesta:   15      -31.3285      -31.3286      -31.3286   0.00012  -4.9689
siesta:   16      -31.3285      -31.3286      -31.3286   0.00011  -4.9689
siesta:   17      -31.3285      -31.3286      -31.3286   0.00011  -4.9689
siesta:   18      -31.3285      -31.3286      -31.3286   0.00011  -4.9689
siesta:   19      -31.3285      -31.3286      -31.3286   0.00011  -4.9689
siesta:   20      -31.3285      -31.3286      -31.3286   0.00010  -4.9689
siesta:   21      -31.3285      -31.3286      -31.3286   0.00010  -4.9689
siesta:   22      -31.3285      -31.3286      -31.3286   0.00010  -4.9690
siesta:   23      -31.3285      -31.3286      -31.3286   0.00010  -4.9690
siesta:   24      -31.3285      -31.3286      -31.3286   0.00009  -4.9690
siesta:   25      -31.3285      -31.3286      -31.3286   0.00009  -4.9690
siesta:   26      -31.3285      -31.3286      -31.3286   0.00009  -4.9690
siesta:   27      -31.3285      -31.3286      -31.3286   0.00009  -4.9690
siesta:   28      -31.3285      -31.3286      -31.3286   0.00008  -4.9690
siesta:   29      -31.3285      -31.3286      -31.3286   0.00008  -4.9690
siesta:   30      -31.3285      -31.3286      -31.3286   0.00008  -4.9691
siesta:   31      -31.3285      -31.3286      -31.3286   0.00008  -4.9691
siesta:   32      -31.3285      -31.3286      -31.3286   0.00008  -4.9691
siesta:   33      -31.3285      -31.3286      -31.3286   0.00007  -4.9691
siesta:   34      -31.3285      -31.3286      -31.3286   0.00007  -4.9691
siesta:   35      -31.3285      -31.3286      -31.3286   0.00007  -4.9691
siesta:   36      -31.3285      -31.3286      -31.3286   0.00007  -4.9691
siesta:   37      -31.3285      -31.3286      -31.3286   0.00007  -4.9691
siesta:   38      -31.3285      -31.3286      -31.3286   0.00007  -4.9691
siesta:   39      -31.3285      -31.3286      -31.3286   0.00006  -4.9692
siesta:   40      -31.3285      -31.3286      -31.3286   0.00006  -4.9692
siesta:   41      -31.3285      -31.3286      -31.3286   0.00006  -4.9692
siesta:   42      -31.3285      -31.3286      -31.3286   0.00006  -4.9692
siesta:   43      -31.3285      -31.3286      -31.3286   0.00006  -4.9692
siesta:   44      -31.3285      -31.3286      -31.3286   0.00006  -4.9692
siesta:   45      -31.3285      -31.3286      -31.3286   0.00005  -4.9692
siesta:   46      -31.3285      -31.3286      -31.3286   0.00005  -4.9692
siesta:   47      -31.3285      -31.3286      -31.3286   0.00005  -4.9692
siesta:   48      -31.3285      -31.3286      -31.3286   0.00005  -4.9692
siesta:   49      -31.3285      -31.3286      -31.3286   0.00005  -4.9692
siesta:   50      -31.3285      -31.3286      -31.3286   0.00005  -4.9692
siesta:   51      -31.3285      -31.3286      -31.3286   0.00005  -4.9693
siesta:   52      -31.3285      -31.3286      -31.3286   0.00005  -4.9693
siesta:   53      -31.3285      -31.3286      -31.3286   0.00004  -4.9693
siesta:   54      -31.3285      -31.3286      -31.3286   0.00004  -4.9693
siesta:   55      -31.3285      -31.3286      -31.3286   0.00004  -4.9693
siesta:   56      -31.3285      -31.3286      -31.3286   0.00004  -4.9693
siesta:   57      -31.3285      -31.3286      -31.3286   0.00004  -4.9693
siesta:   58      -31.3285      -31.3286      -31.3286   0.00004  -4.9693
siesta:   59      -31.3285      -31.3286      -31.3286   0.00004  -4.9693
siesta:   60      -31.3285      -31.3286      -31.3286   0.00004  -4.9693
siesta:   61      -31.3285      -31.3285      -31.3285   0.00004  -4.9693
siesta:   62      -31.3285      -31.3285      -31.3285   0.00004  -4.9693
siesta:   63      -31.3285      -31.3285      -31.3285   0.00003  -4.9693
siesta:   64      -31.3285      -31.3285      -31.3285   0.00003  -4.9693
siesta:   65      -31.3285      -31.3285      -31.3285   0.00003  -4.9693
siesta:   66      -31.3285      -31.3285      -31.3285   0.00003  -4.9693
siesta:   67      -31.3285      -31.3285      -31.3285   0.00003  -4.9694
siesta:   68      -31.3285      -31.3285      -31.3285   0.00003  -4.9694
siesta:   69      -31.3285      -31.3285      -31.3285   0.00003  -4.9694
siesta:   70      -31.3285      -31.3285      -31.3285   0.00003  -4.9694
siesta:   71      -31.3285      -31.3285      -31.3285   0.00003  -4.9694
siesta:   72      -31.3285      -31.3285      -31.3285   0.00003  -4.9694
siesta:   73      -31.3285      -31.3285      -31.3285   0.00003  -4.9694
siesta:   74      -31.3285      -31.3285      -31.3285   0.00003  -4.9694
siesta:   75      -31.3285      -31.3285      -31.3285   0.00003  -4.9694
siesta:   76      -31.3285      -31.3285      -31.3285   0.00003  -4.9694
siesta:   77      -31.3285      -31.3285      -31.3285   0.00002  -4.9694
siesta:   78      -31.3285      -31.3285      -31.3285   0.00002  -4.9694
siesta:   79      -31.3285      -31.3285      -31.3285   0.00002  -4.9694
siesta:   80      -31.3285      -31.3285      -31.3285   0.00002  -4.9694
siesta:   81      -31.3285      -31.3285      -31.3285   0.00002  -4.9694
siesta:   82      -31.3285      -31.3285      -31.3285   0.00002  -4.9694
siesta:   83      -31.3285      -31.3285      -31.3285   0.00002  -4.9694
siesta:   84      -31.3285      -31.3285      -31.3285   0.00002  -4.9694
siesta:   85      -31.3285      -31.3285      -31.3285   0.00002  -4.9694
siesta:   86      -31.3285      -31.3285      -31.3285   0.00002  -4.9694
grdsam: Grid-cell sampling, point   0
grdsam: Grid-cell sampling, point   1
grdsam: Grid-cell sampling, point   2
grdsam: Grid-cell sampling, point   3

siesta: E_KS(eV) =              -31.3286

siesta: Atomic forces (eV/Ang):
     1    0.000000    0.000000   -0.779289
     2    0.000000    0.000000    0.779247
----------------------------------------
 Tot    0.000000    0.000000   -0.000042
----------------------------------------
 Max    0.779289
 Res    0.449911    sqrt( Sum f_i^2 / 3N )
----------------------------------------
 Max    0.779289    constrained
 
mulliken: Atomic and Orbital Populations:

Species: H                   
Atom  Qatom  Qorb
               1s      1s      2py     2pz     2px     
   1  1.002   0.901   0.088   0.000   0.014   0.000
   2  0.998   0.895   0.088   0.000   0.015   0.000

mulliken: Qtot =    2.000
 
* Maximum dynamic memory allocated =   584 MB

siesta:                 ==============================
                        Begin FC step =     7 of    12
                            displace atom        2
                            in direction         1
                        by  -0.0378 Bohr =  -0.0200 Ang
                        ==============================

outcoor: Atomic coordinates (Ang):                          
    0.00000000    0.00000000   -0.00998254   1  H          1
   -0.02000000    0.00000000    0.73998166   1  H          2

siesta: iscf   Eharris(eV)      E_KS(eV)   FreeEng(eV)     dDmax   Ef(eV)
siesta:    1      -31.3363      -31.3342      -31.3342   0.00525  -4.8438
siesta:    2      -31.3361      -31.3361      -31.3361   0.00073  -4.9077
siesta:    3      -31.3361      -31.3359      -31.3359   0.00023  -4.9007
siesta:    4      -31.3361      -31.3361      -31.3361   0.00005  -4.9014
siesta:    5      -31.3361      -31.3361      -31.3361   0.00005  -4.9014
siesta:    6      -31.3361      -31.3361      -31.3361   0.00005  -4.9014
siesta:    7      -31.3361      -31.3361      -31.3361   0.00005  -4.9014
siesta:    8      -31.3361      -31.3361      -31.3361   0.00005  -4.9014
siesta:    9      -31.3361      -31.3361      -31.3361   0.00005  -4.9015
siesta:   10      -31.3361      -31.3361      -31.3361   0.00005  -4.9015
siesta:   11      -31.3361      -31.3361      -31.3361   0.00004  -4.9015
siesta:   12      -31.3361      -31.3361      -31.3361   0.00004  -4.9015
siesta:   13      -31.3361      -31.3361      -31.3361   0.00004  -4.9015
siesta:   14      -31.3361      -31.3361      -31.3361   0.00004  -4.9015
siesta:   15      -31.3361      -31.3361      -31.3361   0.00004  -4.9015
siesta:   16      -31.3361      -31.3361      -31.3361   0.00004  -4.9015
siesta:   17      -31.3361      -31.3361      -31.3361   0.00004  -4.9015
siesta:   18      -31.3361      -31.3361      -31.3361   0.00004  -4.9015
siesta:   19      -31.3361      -31.3361      -31.3361   0.00004  -4.9015
siesta:   20      -31.3361      -31.3361      -31.3361   0.00003  -4.9015
siesta:   21      -31.3361      -31.3361      -31.3361   0.00003  -4.9015
siesta:   22      -31.3361      -31.3361      -31.3361   0.00003  -4.9015
siesta:   23      -31.3361      -31.3361      -31.3361   0.00003  -4.9015
siesta:   24      -31.3361      -31.3361      -31.3361   0.00003  -4.9015
siesta:   25      -31.3361      -31.3361      -31.3361   0.00003  -4.9015
siesta:   26      -31.3361      -31.3361      -31.3361   0.00003  -4.9015
siesta:   27      -31.3361      -31.3361      -31.3361   0.00003  -4.9015
siesta:   28      -31.3361      -31.3361      -31.3361   0.00003  -4.9015
siesta:   29      -31.3361      -31.3361      -31.3361   0.00003  -4.9015
siesta:   30      -31.3361      -31.3361      -31.3361   0.00003  -4.9015
siesta:   31      -31.3361      -31.3361      -31.3361   0.00003  -4.9016
siesta:   32      -31.3361      -31.3361      -31.3361   0.00002  -4.9016
siesta:   33      -31.3361      -31.3361      -31.3361   0.00002  -4.9016
siesta:   34      -31.3361      -31.3361      -31.3361   0.00002  -4.9016
siesta:   35      -31.3361      -31.3361      -31.3361   0.00002  -4.9016
siesta:   36      -31.3361      -31.3361      -31.3361   0.00002  -4.9016
siesta:   37      -31.3361      -31.3361      -31.3361   0.00002  -4.9016
siesta:   38      -31.3361      -31.3361      -31.3361   0.00002  -4.9016
siesta:   39      -31.3361      -31.3361      -31.3361   0.00002  -4.9016
siesta:   40      -31.3361      -31.3361      -31.3361   0.00002  -4.9016
grdsam: Grid-cell sampling, point   0
grdsam: Grid-cell sampling, point   1
grdsam: Grid-cell sampling, point   2
grdsam: Grid-cell sampling, point   3

siesta: E_KS(eV) =              -31.3361

siesta: Atomic forces (eV/Ang):
     1   -0.000379    0.000000    0.009541
     2    0.000369    0.000000   -0.009369
----------------------------------------
 Tot   -0.000010    0.000000    0.000173
----------------------------------------
 Max    0.009541
 Res    0.005463    sqrt( Sum f_i^2 / 3N )
----------------------------------------
 Max    0.009541    constrained
 
mulliken: Atomic and Orbital Populations:

Species: H                   
Atom  Qatom  Qorb
               1s      1s      2py     2pz     2px     
   1  1.002   0.905   0.083   0.000   0.014   0.000
   2  0.998   0.900   0.083   0.000   0.015   0.000

mulliken: Qtot =    2.000
 
* Maximum dynamic memory allocated =   584 MB

siesta:                 ==============================
                        Begin FC step =     8 of    12
                            displace atom        2
                            in direction         1
                        by   0.0378 Bohr =   0.0200 Ang
                        ==============================

outcoor: Atomic coordinates (Ang):                          
    0.00000000    0.00000000   -0.00998254   1  H          1
    0.02000000    0.00000000    0.73998166   1  H          2

siesta: iscf   Eharris(eV)      E_KS(eV)   FreeEng(eV)     dDmax   Ef(eV)
siesta:    1      -31.3361      -31.3361      -31.3361   0.00130  -4.9016
siesta:    2      -31.3361      -31.3361      -31.3361   0.00005  -4.9017
siesta:    3      -31.3361      -31.3361      -31.3361   0.00001  -4.9017
grdsam: Grid-cell sampling, point   0
grdsam: Grid-cell sampling, point   1
grdsam: Grid-cell sampling, point   2
grdsam: Grid-cell sampling, point   3

siesta: E_KS(eV) =              -31.3361

siesta: Atomic forces (eV/Ang):
     1    0.000236    0.000000    0.008835
     2   -0.000226    0.000000   -0.008663
----------------------------------------
 Tot    0.000010    0.000000    0.000173
----------------------------------------
 Max    0.008835
 Res    0.005053    sqrt( Sum f_i^2 / 3N )
----------------------------------------
 Max    0.008835    constrained
 
mulliken: Atomic and Orbital Populations:

Species: H                   
Atom  Qatom  Qorb
               1s      1s      2py     2pz     2px     
   1  1.002   0.905   0.083   0.000   0.014   0.000
   2  0.998   0.900   0.083   0.000   0.015   0.000

mulliken: Qtot =    2.000
 
* Maximum dynamic memory allocated =   584 MB

siesta:                 ==============================
                        Begin FC step =     9 of    12
                            displace atom        2
                            in direction         2
                        by  -0.0378 Bohr =  -0.0200 Ang
                        ==============================

outcoor: Atomic coordinates (Ang):                          
    0.00000000    0.00000000   -0.00998254   1  H          1
    0.00000000   -0.02000000    0.73998166   1  H          2

siesta: iscf   Eharris(eV)      E_KS(eV)   FreeEng(eV)     dDmax   Ef(eV)
siesta:    1      -31.3361      -31.3361      -31.3361   0.00065  -4.9017
siesta:    2      -31.3361      -31.3361      -31.3361   0.00002  -4.9017
siesta:    3      -31.3361      -31.3361      -31.3361   0.00000  -4.9017
grdsam: Grid-cell sampling, point   0
grdsam: Grid-cell sampling, point   1
grdsam: Grid-cell sampling, point   2
grdsam: Grid-cell sampling, point   3

siesta: E_KS(eV) =              -31.3361

siesta: Atomic forces (eV/Ang):
     1    0.000000   -0.000238    0.008877
     2    0.000001    0.000228   -0.008704
----------------------------------------
 Tot    0.000001   -0.000010    0.000173
----------------------------------------
 Max    0.008877
 Res    0.005077    sqrt( Sum f_i^2 / 3N )
----------------------------------------
 Max    0.008877    constrained
 
mulliken: Atomic and Orbital Populations:

Species: H                   
Atom  Qatom  Qorb
               1s      1s      2py     2pz     2px     
   1  1.002   0.905   0.083   0.000   0.014   0.000
   2  0.998   0.900   0.083   0.000   0.015   0.000

mulliken: Qtot =    2.000
 
* Maximum dynamic memory allocated =   584 MB

siesta:                 ==============================
                        Begin FC step =    10 of    12
                            displace atom        2
                            in direction         2
                        by   0.0378 Bohr =   0.0200 Ang
                        ==============================

outcoor: Atomic coordinates (Ang):                          
    0.00000000    0.00000000   -0.00998254   1  H          1
    0.00000000    0.02000000    0.73998166   1  H          2

siesta: iscf   Eharris(eV)      E_KS(eV)   FreeEng(eV)     dDmax   Ef(eV)
siesta:    1      -31.3361      -31.3361      -31.3361   0.00130  -4.9018
siesta:    2      -31.3361      -31.3361      -31.3361   0.00005  -4.9017
siesta:    3      -31.3361      -31.3361      -31.3361   0.00000  -4.9017
grdsam: Grid-cell sampling, point   0
grdsam: Grid-cell sampling, point   1
grdsam: Grid-cell sampling, point   2
grdsam: Grid-cell sampling, point   3

siesta: E_KS(eV) =              -31.3361

siesta: Atomic forces (eV/Ang):
     1    0.000000    0.000238    0.008874
     2    0.000000   -0.000228   -0.008701
----------------------------------------
 Tot   -0.000001    0.000010    0.000173
----------------------------------------
 Max    0.008874
 Res    0.005075    sqrt( Sum f_i^2 / 3N )
----------------------------------------
 Max    0.008874    constrained
 
mulliken: Atomic and Orbital Populations:

Species: H                   
Atom  Qatom  Qorb
               1s      1s      2py     2pz     2px     
   1  1.002   0.905   0.083   0.000   0.014   0.000
   2  0.998   0.900   0.083   0.000   0.015   0.000

mulliken: Qtot =    2.000
 
* Maximum dynamic memory allocated =   584 MB

siesta:                 ==============================
                        Begin FC step =    11 of    12
                            displace atom        2
                            in direction         3
                        by  -0.0378 Bohr =  -0.0200 Ang
                        ==============================

outcoor: Atomic coordinates (Ang):                          
    0.00000000    0.00000000   -0.00998254   1  H          1
    0.00000000    0.00000000    0.71998166   1  H          2

siesta: iscf   Eharris(eV)      E_KS(eV)   FreeEng(eV)     dDmax   Ef(eV)
siesta:    1      -31.3287      -31.3266      -31.3266   0.00526  -5.0263
siesta:    2      -31.3285      -31.3285      -31.3285   0.00076  -4.9606
siesta:    3      -31.3285      -31.3283      -31.3283   0.00023  -4.9681
siesta:    4      -31.3285      -31.3285      -31.3285   0.00006  -4.9669
siesta:    5      -31.3285      -31.3285      -31.3285   0.00006  -4.9669
siesta:    6      -31.3285      -31.3285      -31.3285   0.00005  -4.9669
siesta:    7      -31.3285      -31.3285      -31.3285   0.00005  -4.9669
siesta:    8      -31.3285      -31.3285      -31.3285   0.00005  -4.9669
siesta:    9      -31.3285      -31.3285      -31.3285   0.00005  -4.9669
siesta:   10      -31.3285      -31.3285      -31.3285   0.00005  -4.9669
siesta:   11      -31.3285      -31.3285      -31.3285   0.00005  -4.9669
siesta:   12      -31.3285      -31.3285      -31.3285   0.00005  -4.9669
siesta:   13      -31.3285      -31.3285      -31.3285   0.00004  -4.9669
siesta:   14      -31.3285      -31.3285      -31.3285   0.00004  -4.9669
siesta:   15      -31.3285      -31.3285      -31.3285   0.00004  -4.9669
siesta:   16      -31.3285      -31.3285      -31.3285   0.00004  -4.9669
siesta:   17      -31.3285      -31.3285      -31.3285   0.00004  -4.9670
siesta:   18      -31.3285      -31.3285      -31.3285   0.00004  -4.9670
siesta:   19      -31.3285      -31.3285      -31.3285   0.00004  -4.9670
siesta:   20      -31.3285      -31.3285      -31.3285   0.00004  -4.9670
siesta:   21      -31.3285      -31.3285      -31.3285   0.00004  -4.9670
siesta:   22      -31.3285      -31.3285      -31.3285   0.00003  -4.9670
siesta:   23      -31.3285      -31.3285      -31.3285   0.00003  -4.9670
siesta:   24      -31.3285      -31.3285      -31.3285   0.00003  -4.9670
siesta:   25      -31.3285      -31.3285      -31.3285   0.00003  -4.9670
siesta:   26      -31.3285      -31.3285      -31.3285   0.00003  -4.9670
siesta:   27      -31.3285      -31.3285      -31.3285   0.00003  -4.9670
siesta:   28      -31.3285      -31.3285      -31.3285   0.00003  -4.9670
siesta:   29      -31.3285      -31.3285      -31.3285   0.00003  -4.9670
siesta:   30      -31.3285      -31.3285      -31.3285   0.00003  -4.9670
siesta:   31      -31.3285      -31.3285      -31.3285   0.00003  -4.9670
siesta:   32      -31.3285      -31.3285      -31.3285   0.00003  -4.9670
siesta:   33      -31.3285      -31.3285      -31.3285   0.00003  -4.9670
siesta:   34      -31.3285      -31.3285      -31.3285   0.00003  -4.9670
siesta:   35      -31.3285      -31.3285      -31.3285   0.00002  -4.9670
siesta:   36      -31.3285      -31.3285      -31.3285   0.00002  -4.9670
siesta:   37      -31.3285      -31.3285      -31.3285   0.00002  -4.9670
siesta:   38      -31.3285      -31.3285      -31.3285   0.00002  -4.9670
siesta:   39      -31.3285      -31.3285      -31.3285   0.00002  -4.9670
siesta:   40      -31.3285      -31.3285      -31.3285   0.00002  -4.9670
siesta:   41      -31.3285      -31.3285      -31.3285   0.00002  -4.9670
siesta:   42      -31.3285      -31.3285      -31.3285   0.00002  -4.9670
siesta:   43      -31.3285      -31.3285      -31.3285   0.00002  -4.9670
siesta:   44      -31.3285      -31.3285      -31.3285   0.00002  -4.9670
grdsam: Grid-cell sampling, point   0
grdsam: Grid-cell sampling, point   1
grdsam: Grid-cell sampling, point   2
grdsam: Grid-cell sampling, point   3

siesta: E_KS(eV) =              -31.3285

siesta: Atomic forces (eV/Ang):
     1    0.000000   -0.000039   -0.778214
     2    0.000000    0.000039    0.778521
----------------------------------------
 Tot    0.000000    0.000000    0.000307
----------------------------------------
 Max    0.778521
 Res    0.449391    sqrt( Sum f_i^2 / 3N )
----------------------------------------
 Max    0.778521    constrained
 
mulliken: Atomic and Orbital Populations:

Species: H                   
Atom  Qatom  Qorb
               1s      1s      2py     2pz     2px     
   1  1.002   0.901   0.088   0.000   0.014   0.000
   2  0.998   0.895   0.088   0.000   0.015   0.000

mulliken: Qtot =    2.000
 
* Maximum dynamic memory allocated =   584 MB

siesta:                 ==============================
                        Begin FC step =    12 of    12
                            displace atom        2
                            in direction         3
                        by   0.0378 Bohr =   0.0200 Ang
                        ==============================

outcoor: Atomic coordinates (Ang):                          
    0.00000000    0.00000000   -0.00998254   1  H          1
    0.00000000    0.00000000    0.75998166   1  H          2

siesta: iscf   Eharris(eV)      E_KS(eV)   FreeEng(eV)     dDmax   Ef(eV)
siesta:    1      -31.3300      -31.3220      -31.3220   0.01029  -4.7240
siesta:    2      -31.3293      -31.3292      -31.3292   0.00138  -4.8453
siesta:    3      -31.3293      -31.3286      -31.3286   0.00044  -4.8325
siesta:    4      -31.3293      -31.3292      -31.3292   0.00016  -4.8335
siesta:    5      -31.3293      -31.3292      -31.3292   0.00015  -4.8335
siesta:    6      -31.3293      -31.3292      -31.3292   0.00015  -4.8336
siesta:    7      -31.3293      -31.3292      -31.3292   0.00014  -4.8336
siesta:    8      -31.3293      -31.3292      -31.3292   0.00014  -4.8336
siesta:    9      -31.3293      -31.3292      -31.3292   0.00014  -4.8336
siesta:   10      -31.3293      -31.3292      -31.3292   0.00013  -4.8336
siesta:   11      -31.3293      -31.3292      -31.3292   0.00013  -4.8337
siesta:   12      -31.3293      -31.3293      -31.3293   0.00013  -4.8337
siesta:   13      -31.3293      -31.3293      -31.3293   0.00012  -4.8337
siesta:   14      -31.3293      -31.3293      -31.3293   0.00012  -4.8337
siesta:   15      -31.3293      -31.3293      -31.3293   0.00012  -4.8337
siesta:   16      -31.3293      -31.3293      -31.3293   0.00011  -4.8337
siesta:   17      -31.3293      -31.3293      -31.3293   0.00011  -4.8338
siesta:   18      -31.3293      -31.3293      -31.3293   0.00011  -4.8338
siesta:   19      -31.3293      -31.3293      -31.3293   0.00010  -4.8338
siesta:   20      -31.3293      -31.3293      -31.3293   0.00010  -4.8338
siesta:   21      -31.3293      -31.3293      -31.3293   0.00010  -4.8338
siesta:   22      -31.3293      -31.3293      -31.3293   0.00010  -4.8338
siesta:   23      -31.3293      -31.3293      -31.3293   0.00009  -4.8339
siesta:   24      -31.3293      -31.3293      -31.3293   0.00009  -4.8339
siesta:   25      -31.3293      -31.3293      -31.3293   0.00009  -4.8339
siesta:   26      -31.3293      -31.3293      -31.3293   0.00009  -4.8339
siesta:   27      -31.3293      -31.3293      -31.3293   0.00008  -4.8339
siesta:   28      -31.3293      -31.3293      -31.3293   0.00008  -4.8339
siesta:   29      -31.3293      -31.3293      -31.3293   0.00008  -4.8339
siesta:   30      -31.3293      -31.3293      -31.3293   0.00008  -4.8340
siesta:   31      -31.3293      -31.3293      -31.3293   0.00007  -4.8340
siesta:   32      -31.3293      -31.3293      -31.3293   0.00007  -4.8340
siesta:   33      -31.3293      -31.3293      -31.3293   0.00007  -4.8340
siesta:   34      -31.3293      -31.3293      -31.3293   0.00007  -4.8340
siesta:   35      -31.3293      -31.3293      -31.3293   0.00007  -4.8340
siesta:   36      -31.3293      -31.3293      -31.3293   0.00007  -4.8340
siesta:   37      -31.3293      -31.3293      -31.3293   0.00006  -4.8340
siesta:   38      -31.3293      -31.3293      -31.3293   0.00006  -4.8340
siesta:   39      -31.3293      -31.3293      -31.3293   0.00006  -4.8341
siesta:   40      -31.3293      -31.3293      -31.3293   0.00006  -4.8341
siesta:   41      -31.3293      -31.3293      -31.3293   0.00006  -4.8341
siesta:   42      -31.3293      -31.3293      -31.3293   0.00006  -4.8341
siesta:   43      -31.3293      -31.3293      -31.3293   0.00005  -4.8341
siesta:   44      -31.3293      -31.3293      -31.3293   0.00005  -4.8341
siesta:   45      -31.3293      -31.3293      -31.3293   0.00005  -4.8341
siesta:   46      -31.3293      -31.3293      -31.3293   0.00005  -4.8341
siesta:   47      -31.3293      -31.3293      -31.3293   0.00005  -4.8341
siesta:   48      -31.3293      -31.3293      -31.3293   0.00005  -4.8341
siesta:   49      -31.3293      -31.3293      -31.3293   0.00005  -4.8341
siesta:   50      -31.3293      -31.3293      -31.3293   0.00004  -4.8342
siesta:   51      -31.3293      -31.3293      -31.3293   0.00004  -4.8342
siesta:   52      -31.3293      -31.3293      -31.3293   0.00004  -4.8342
siesta:   53      -31.3293      -31.3293      -31.3293   0.00004  -4.8342
siesta:   54      -31.3293      -31.3293      -31.3293   0.00004  -4.8342
siesta:   55      -31.3293      -31.3293      -31.3293   0.00004  -4.8342
siesta:   56      -31.3293      -31.3293      -31.3293   0.00004  -4.8342
siesta:   57      -31.3293      -31.3293      -31.3293   0.00004  -4.8342
siesta:   58      -31.3293      -31.3293      -31.3293   0.00004  -4.8342
siesta:   59      -31.3293      -31.3293      -31.3293   0.00004  -4.8342
siesta:   60      -31.3293      -31.3293      -31.3293   0.00003  -4.8342
siesta:   61      -31.3293      -31.3293      -31.3293   0.00003  -4.8342
siesta:   62      -31.3293      -31.3293      -31.3293   0.00003  -4.8342
siesta:   63      -31.3293      -31.3293      -31.3293   0.00003  -4.8342
siesta:   64      -31.3293      -31.3293      -31.3293   0.00003  -4.8342
siesta:   65      -31.3293      -31.3293      -31.3293   0.00003  -4.8343
siesta:   66      -31.3293      -31.3293      -31.3293   0.00003  -4.8343
siesta:   67      -31.3293      -31.3293      -31.3293   0.00003  -4.8343
siesta:   68      -31.3293      -31.3293      -31.3293   0.00003  -4.8343
siesta:   69      -31.3293      -31.3293      -31.3293   0.00003  -4.8343
siesta:   70      -31.3293      -31.3293      -31.3293   0.00003  -4.8343
siesta:   71      -31.3293      -31.3293      -31.3293   0.00003  -4.8343
siesta:   72      -31.3293      -31.3293      -31.3293   0.00002  -4.8343
siesta:   73      -31.3293      -31.3293      -31.3293   0.00002  -4.8343
siesta:   74      -31.3293      -31.3293      -31.3293   0.00002  -4.8343
siesta:   75      -31.3293      -31.3293      -31.3293   0.00002  -4.8343
siesta:   76      -31.3293      -31.3293      -31.3293   0.00002  -4.8343
siesta:   77      -31.3293      -31.3293      -31.3293   0.00002  -4.8343
siesta:   78      -31.3293      -31.3293      -31.3293   0.00002  -4.8343
siesta:   79      -31.3293      -31.3293      -31.3293   0.00002  -4.8343
siesta:   80      -31.3293      -31.3293      -31.3293   0.00002  -4.8343
siesta:   81      -31.3293      -31.3293      -31.3293   0.00002  -4.8343
grdsam: Grid-cell sampling, point   0
grdsam: Grid-cell sampling, point   1
grdsam: Grid-cell sampling, point   2
grdsam: Grid-cell sampling, point   3

siesta: E_KS(eV) =              -31.3293

siesta: Atomic forces (eV/Ang):
     1    0.000000    0.000000    0.664956
     2    0.000000    0.000000   -0.664845
----------------------------------------
 Tot    0.000000    0.000000    0.000111
----------------------------------------
 Max    0.664956
 Res    0.383880    sqrt( Sum f_i^2 / 3N )
----------------------------------------
 Max    0.664956    constrained
 
mulliken: Atomic and Orbital Populations:

Species: H                   
Atom  Qatom  Qorb
               1s      1s      2py     2pz     2px     
   1  1.002   0.910   0.079   0.000   0.013   0.000
   2  0.998   0.905   0.079   0.000   0.015   0.000

mulliken: Qtot =    2.000
 
* Maximum dynamic memory allocated =   584 MB

outcoor: Final (unrelaxed) atomic coordinates (Ang):        
    0.00000000    0.00000000   -0.00998254   1  H          1
    0.00000000    0.00000000    0.73998166   1  H          2

siesta: Eigenvalues (eV):
  ik is    eps
   1  1 -10.97   1.35   4.18   4.18   9.67  10.77  10.77  17.35  44.23  89.12
siesta: Fermi energy =      -4.834328 eV

siesta: Program's energy decomposition (eV):
siesta:-Eions   =     -26.074526
siesta: Ena     =       4.056698
siesta: Ekin    =      25.968744
siesta: Enl     =     -16.711343
siesta: DEna    =      -1.361079
siesta: DUscf   =       0.229547
siesta: DUext   =      -0.000366
siesta: Exc     =     -17.436974
siesta: eta*DQ  =       0.000000
siesta: Emadel  =       0.000000
siesta: Ekinion =       0.000000
siesta: Eharris =     -31.329308
siesta: Eso     =       0.000000
siesta: Etot    =     -31.329298
siesta: FreeEng =     -31.329298

siesta: Final energy (eV):
siesta:       Kinetic =      25.968744
siesta:       Hartree =      28.976967
siesta:    Ext. field =      -0.000366
siesta:   Exch.-corr. =     -17.436974
siesta:  Ion-electron =     -83.468435
siesta:       Ion-ion =      14.630766
siesta:       Ekinion =       0.000000
siesta:         Total =     -31.329298

siesta: Atomic forces (eV/Ang):
siesta:    1    0.000000    0.000000    0.664956
siesta:    2    0.000000    0.000000   -0.664845
siesta: ----------------------------------------
siesta:  Tot    0.000000    0.000000    0.000111

siesta: Stress tensor (static) (eV/Ang**3):
siesta:     0.000000    0.000000    0.000000
siesta:     0.000000    0.000000    0.000000
siesta:     0.000000    0.000000    0.000064

siesta: Cell volume =       8000.000000 Ang**3

siesta: Pressure (static):
siesta:                Solid            Molecule  Units
siesta:          -0.00000023          0.00000000  Ry/Bohr**3
siesta:          -0.00002139         -0.00000006  eV/Ang**3
siesta:          -0.03427869         -0.00010193  kBar

siesta: Total spin polarization (Qup-Qdown) =    0.000000
siesta: Spin vector =    0.000000    0.000000    0.000000
siesta: No SpinPolK block detected...

siesta: Electric dipole (a.u.)  =    0.000000    0.000000    0.009893
siesta: Electric dipole (Debye) =    0.000000    0.000000    0.025145

siesta: Vibrational frequency (cm^-1) & IR (a.u.) (Acoustic sum rule):
 eigenvalue #    1   omega =   -0.000030    IR =    0.000000 
 eigenvalue #    2   omega =    0.000001    IR =    0.000000 
 eigenvalue #    3   omega =    0.000040    IR =    0.000000 
 eigenvalue #    4   omega =   80.001059    IR =    0.000018 
 eigenvalue #    5   omega =   87.198972    IR =    0.000019 
 eigenvalue #    6   omega = 4409.161682    IR =    0.000457 
 
* Maximum dynamic memory allocated : Node    0 =   584 MB
* Maximum dynamic memory allocated : Node    1 =   580 MB
* Maximum dynamic memory allocated : Node    2 =   583 MB
* Maximum dynamic memory allocated : Node    3 =   580 MB
* Maximum memory occured during redistribXZ                   

timer: CPU execution times:
timer:  Routine       Calls   Time/call    Tot.time        %
timer:  siesta            1   15230.304   15230.304   100.00
timer:  Setup             1       1.535       1.535     0.01
timer:  bands             1       0.000       0.000     0.00
timer:  writewave         1       0.004       0.004     0.00
timer:  KSV_init          1       0.000       0.000     0.00
timer:  IterMD           13    1165.374   15149.860    99.47
timer:  hsparse          14       0.001       0.009     0.00
timer:  overfsm          26       0.002       0.062     0.00
timer:  IterSCF         325      46.603   15146.077    99.45
timer:  kinefsm          26       0.001       0.032     0.00
timer:  nlefsm           26       0.033       0.855     0.01
timer:  DHSCF           365      41.692   15217.446    99.92
timer:  DHSCF1            1      12.709      12.709     0.08
timer:  DHSCF2           53      24.568    1302.101     8.55
timer:  REORD          5218       0.148     772.444     5.07
timer:  POISON          418      22.376    9353.147    61.41
timer:  DHSCF3          365      37.840   13811.650    90.69
timer:  rhoofd          365       0.271      98.785     0.65
timer:  CELLXC          365       4.762    1738.056    11.41
timer:  vmat            325       0.137      44.586     0.29
timer:  diagon          312       0.018       5.611     0.04
timer:  rdiag           312       0.012       3.676     0.02
timer:  DHSCF4           52       1.517      78.887     0.52
timer:  dfscf            52       1.220      63.443     0.42
  
>> End of run:   5-OCT-2013  11:29:15
