ATOMS
Au            1.78720903      1.28067091      0.00000000             0.00000000      0.00000000      0.00000000
Au            0.30935586      2.75852409      2.09000000             0.00000000      0.00000000      0.00000000
Au            1.78720903      1.28067091      4.18000000             0.00000000      0.00000000      0.00000000
Au            0.30935586      2.75852409      6.27000000             0.00000000      0.00000000      0.00000000
Au            4.74291537      1.28067091      0.00000000             0.00000000      0.00000000      0.00000000
Au            3.26506220      2.75852409      2.09000000             0.00000000      0.00000000      0.00000000
Au            4.74291537      1.28067091      4.18000000             0.00000000      0.00000000      0.00000000
Au            3.26506220      2.75852409      6.27000000             0.00000000      0.00000000      0.00000000
Au            7.69862172      1.28067091      0.00000000             0.00000000      0.00000000      0.00000000
Au            6.22076855      2.75852409      2.09000000             0.00000000      0.00000000      0.00000000
Au            7.69862172      1.28067091      4.18000000             0.00000000      0.00000000      0.00000000
Au            6.22076855      2.75852409      6.27000000             0.00000000      0.00000000      0.00000000
Au            1.78720903      4.23637726      0.00000000             0.00000000      0.00000000      0.00000000
Au            0.30935586      5.71423043      2.09000000             0.00000000      0.00000000      0.00000000
Au            1.78720903      4.23637726      4.18000000             0.00000000      0.00000000      0.00000000
Au            0.30935586      5.71423043      6.27000000             0.00000000      0.00000000      0.00000000
Au            4.74291537      4.23637726      0.00000000             0.00000000      0.00000000      0.00000000
Au            3.26506220      5.71423043      2.09000000             0.00000000      0.00000000      0.00000000
Au            4.74291537      4.23637726      4.18000000             0.00000000      0.00000000      0.00000000
Au            3.26506220      5.71423043      6.27000000             0.00000000      0.00000000      0.00000000
Au            7.69862172      4.23637726      0.00000000             0.00000000      0.00000000      0.00000000
Au            6.22076855      5.71423043      2.09000000             0.00000000      0.00000000      0.00000000
Au            7.69862172      4.23637726      4.18000000             0.00000000      0.00000000      0.00000000
Au            6.22076855      5.71423043      6.27000000             0.00000000      0.00000000      0.00000000
Au            1.78720903      7.19208360      0.00000000             0.00000000      0.00000000      0.00000000
Au            0.30935586      8.66993678      2.09000000             0.00000000      0.00000000      0.00000000
Au            1.78720903      7.19208360      4.18000000             0.00000000      0.00000000      0.00000000
Au            0.30935586      8.66993678      6.27000000             0.00000000      0.00000000      0.00000000
Au            4.74291537      7.19208360      0.00000000             0.00000000      0.00000000      0.00000000
Au            3.26506220      8.66993678      2.09000000             0.00000000      0.00000000      0.00000000
Au            4.74291537      7.19208360      4.18000000             0.00000000      0.00000000      0.00000000
Au            3.26506220      8.66993678      6.27000000             0.00000000      0.00000000      0.00000000
Au            7.69862172      7.19208360      0.00000000             0.00000000      0.00000000      0.00000000
Au            6.22076855      8.66993678      2.09000000             0.00000000      0.00000000      0.00000000
Au            7.69862172      7.19208360      4.18000000             0.00000000      0.00000000      0.00000000
Au            6.22076855      8.66993678      6.27000000             0.00000000      0.00000000      0.00000000
Au            1.78720903      1.28067091      8.36000000             0.00000000      0.00000000      0.00000000
Au            1.78720903      4.23637726      8.36000000             0.00000000      0.00000000      0.00000000
Au            1.78720903      7.19208360      8.36000000             0.00000000      0.00000000      0.00000000
Au            4.74291537      1.28067091      8.36000000             0.00000000      0.00000000      0.00000000
Au            4.74291537      4.23637726      8.36000000             0.00000000      0.00000000      0.00000000
Au            4.74291537      7.19208360      8.36000000             0.00000000      0.00000000      0.00000000
Au            7.69862172      1.28067091      8.36000000             0.00000000      0.00000000      0.00000000
Au            7.69862172      4.23637726      8.36000000             0.00000000      0.00000000      0.00000000
Au            7.69862172      7.19208360      8.36000000             0.00000000      0.00000000      0.00000000
Au            0.30935586      2.75852409     10.45000000             0.00000000      0.00000000      0.00000000
Au            0.30935586      5.71423043     10.45000000             0.00000000      0.00000000      0.00000000
Au            0.30935586      8.66993678     10.45000000             0.00000000      0.00000000      0.00000000
Au            3.26506220      2.75852409     10.45000000             0.00000000      0.00000000      0.00000000
Au            3.26506220      5.71423043     10.45000000             0.00000000      0.00000000      0.00000000
Au            3.26506220      8.66993678     10.45000000             0.00000000      0.00000000      0.00000000
Au            6.22076855      2.75852409     10.45000000             0.00000000      0.00000000      0.00000000
Au            6.22076855      5.71423043     10.45000000             0.00000000      0.00000000      0.00000000
Au            6.22076855      8.66993678     10.45000000             0.00000000      0.00000000      0.00000000
Au            1.74791873      4.19904442     12.43499179             0.00000000      0.00000000      0.00000000
Au            1.74819374      7.23307577     12.43744521             0.00000000      0.00000000      0.00000000
Au            4.78174823      4.19947063     12.43507623             0.00000000      0.00000000      0.00000000
Au            4.78159594      7.23282109     12.43768172             0.00000000      0.00000000      0.00000000
Au            3.26426071      5.71261054     14.32301842             0.00000410     -0.00035641     -0.02545817
Au            3.26627213      5.75431983     17.00144923             0.00008826     -0.00031716      0.05705125
H             3.25213481      5.72052008     18.87375024            -0.05087222     -0.02179279     -0.31574530
H             3.25254365      5.72363580     19.74833623            -0.05115730     -0.00410765     -0.17137432
Au            3.24690719      5.72091578     21.62729860            -0.00169860      0.00088317     -0.54836535
Au            3.26020272      5.71971061     24.27694981             0.00098820      0.00200312      0.74874728
Au            1.77703880      4.22551866     26.26901405             0.00000000      0.00000000      0.00000000
Au            1.77569333      7.20248468     26.27012924             0.00000000      0.00000000      0.00000000
Au            4.75175100      4.22644011     26.26854738             0.00000000      0.00000000      0.00000000
Au            4.75268806      7.20119883     26.26934298             0.00000000      0.00000000      0.00000000
Au            0.30935586      2.75852409     28.27000000             0.00000000      0.00000000      0.00000000
Au            0.30935586      5.71423043     28.27000000             0.00000000      0.00000000      0.00000000
Au            0.30935586      8.66993678     28.27000000             0.00000000      0.00000000      0.00000000
Au            3.26506220      2.75852409     28.27000000             0.00000000      0.00000000      0.00000000
Au            3.26506220      5.71423043     28.27000000             0.00000000      0.00000000      0.00000000
Au            3.26506220      8.66993678     28.27000000             0.00000000      0.00000000      0.00000000
Au            6.22076855      2.75852409     28.27000000             0.00000000      0.00000000      0.00000000
Au            6.22076855      5.71423043     28.27000000             0.00000000      0.00000000      0.00000000
Au            6.22076855      8.66993678     28.27000000             0.00000000      0.00000000      0.00000000
Au            1.78720903      1.28067091     30.36000000             0.00000000      0.00000000      0.00000000
Au            0.30935586      2.75852409     32.45000000             0.00000000      0.00000000      0.00000000
Au            1.78720903      1.28067091     34.54000000             0.00000000      0.00000000      0.00000000
Au            0.30935586      2.75852409     36.63000000             0.00000000      0.00000000      0.00000000
Au            4.74291537      1.28067091     30.36000000             0.00000000      0.00000000      0.00000000
Au            3.26506220      2.75852409     32.45000000             0.00000000      0.00000000      0.00000000
Au            4.74291537      1.28067091     34.54000000             0.00000000      0.00000000      0.00000000
Au            3.26506220      2.75852409     36.63000000             0.00000000      0.00000000      0.00000000
Au            7.69862172      1.28067091     30.36000000             0.00000000      0.00000000      0.00000000
Au            6.22076855      2.75852409     32.45000000             0.00000000      0.00000000      0.00000000
Au            7.69862172      1.28067091     34.54000000             0.00000000      0.00000000      0.00000000
Au            6.22076855      2.75852409     36.63000000             0.00000000      0.00000000      0.00000000
Au            1.78720903      4.23637726     30.36000000             0.00000000      0.00000000      0.00000000
Au            0.30935586      5.71423043     32.45000000             0.00000000      0.00000000      0.00000000
Au            1.78720903      4.23637726     34.54000000             0.00000000      0.00000000      0.00000000
Au            0.30935586      5.71423043     36.63000000             0.00000000      0.00000000      0.00000000
Au            4.74291537      4.23637726     30.36000000             0.00000000      0.00000000      0.00000000
Au            3.26506220      5.71423043     32.45000000             0.00000000      0.00000000      0.00000000
Au            4.74291537      4.23637726     34.54000000             0.00000000      0.00000000      0.00000000
Au            3.26506220      5.71423043     36.63000000             0.00000000      0.00000000      0.00000000
Au            7.69862172      4.23637726     30.36000000             0.00000000      0.00000000      0.00000000
Au            6.22076855      5.71423043     32.45000000             0.00000000      0.00000000      0.00000000
Au            7.69862172      4.23637726     34.54000000             0.00000000      0.00000000      0.00000000
Au            6.22076855      5.71423043     36.63000000             0.00000000      0.00000000      0.00000000
Au            1.78720903      7.19208360     30.36000000             0.00000000      0.00000000      0.00000000
Au            0.30935586      8.66993678     32.45000000             0.00000000      0.00000000      0.00000000
Au            1.78720903      7.19208360     34.54000000             0.00000000      0.00000000      0.00000000
Au            0.30935586      8.66993678     36.63000000             0.00000000      0.00000000      0.00000000
Au            4.74291537      7.19208360     30.36000000             0.00000000      0.00000000      0.00000000
Au            3.26506220      8.66993678     32.45000000             0.00000000      0.00000000      0.00000000
Au            4.74291537      7.19208360     34.54000000             0.00000000      0.00000000      0.00000000
Au            3.26506220      8.66993678     36.63000000             0.00000000      0.00000000      0.00000000
Au            7.69862172      7.19208360     30.36000000             0.00000000      0.00000000      0.00000000
Au            6.22076855      8.66993678     32.45000000             0.00000000      0.00000000      0.00000000
Au            7.69862172      7.19208360     34.54000000             0.00000000      0.00000000      0.00000000
Au            6.22076855      8.66993678     36.63000000             0.00000000      0.00000000      0.00000000
