# Projected DOS for atomic kind C at iteration step i = 0, E(Fermi) =     0.236230 a.u.
#     MO Eigenvalue [a.u.]      Occupation                 s                py                pz                px               d-2               d-1                d0               d+1               d+2
       1         -0.411041        2.000000        0.57144130        0.00001044        0.01347819        0.08368247        0.00000524        0.00000793        0.02872140        0.00108733        0.03660487
       2         -0.368750        2.000000        0.24531201        0.00000082        0.17374402        0.03147676        0.00000081        0.00000729        0.01498617        0.04434155        0.01287871
       3         -0.320617        2.000000        0.08349020        0.00000653        0.28206634        0.00210755        0.00000045        0.00001292        0.02858590        0.01449187        0.00898095
       4         -0.291345        2.000000        0.45002210        0.00000957        0.04477900        0.22721729        0.00000205        0.00002608        0.05543240        0.05507142        0.00226160
       5         -0.254582        2.000000        0.21565533        0.00001919        0.15500344        0.03365074        0.00000022        0.00000409        0.09538637        0.00849376        0.02545940
       6         -0.179961        2.000000        0.24409536        0.00002983        0.22572315        0.33434524        0.00002647        0.00000809        0.00720086        0.00521290        0.00012027
       7         -0.154725        2.000000        0.19545755        0.00000254        0.16817110        0.23340026        0.00000028        0.00001879        0.00354571        0.00354373        0.00629097
       8         -0.104071        2.000000        0.02235331        0.00003975        0.18814345        0.31040526        0.00000035        0.00000747        0.02270876        0.01371079        0.00878522
       9         -0.075787        2.000000        0.01615784        0.00004301        0.05161677        0.00054636        0.00000003        0.00000107        0.01417485        0.00365868        0.00311732
      10         -0.073418        2.000000        0.00025249        0.00000064        0.00190318        0.00068486        0.00000000        0.00000004        0.00025831        0.00007002        0.00005917
      11         -0.070163        2.000000        0.03774969        0.00011322        0.11594798        0.00168368        0.00000012        0.00000258        0.03110044        0.00881988        0.00777005
      12         -0.064573        2.000000        0.00040986        0.00000120        0.00298401        0.00071792        0.00000001        0.00000004        0.00055715        0.00003762        0.00003280
      13         -0.051661        2.000000        0.01518458        0.00007262        0.03465190        0.00327098        0.00000016        0.00000121        0.00935906        0.00467576        0.00314160
      14         -0.049588        2.000000        0.00278572        0.00001823        0.35825399        0.29852186        0.00000541        0.00000717        0.00184958        0.02177785        0.00009281
      15         -0.037822        2.000000        0.00123210        0.00000702        0.00919528        0.00080683        0.00000007        0.00000060        0.00181069        0.00003771        0.00023201
      16         -0.022497        2.000000        0.04414069        0.04302150        0.06549835        0.20417004        0.00213790        0.00303326        0.00299889        0.05650114        0.00950258
      17         -0.021523        2.000000        0.03022742        0.04546199        0.04290730        0.13759866        0.00349567        0.00533144        0.00235900        0.03841010        0.00665362
      18         -0.019968        2.000000        0.00000138        0.03227378        0.00002937        0.00000464        0.00192960        0.02007766        0.00000276        0.00000117        0.00000141
      19         -0.016973        2.000000        0.00099541        0.00000977        0.01839284        0.01916381        0.00000367        0.00000500        0.00076247        0.00342866        0.00030555
      20         -0.015091        2.000000        0.00679368        0.00001180        0.00346861        0.00272564        0.00000377        0.00000041        0.00474404        0.01582893        0.00004666
      21         -0.007161        2.000000        0.00100720        0.00000567        0.02424086        0.26878723        0.00000005        0.00000424        0.00066955        0.01212183        0.00312820
      22         -0.005105        2.000000        0.00023126        0.00000132        0.00251632        0.00006977        0.00000001        0.00000008        0.00047684        0.00000033        0.00013464
      23         -0.004851        2.000000        0.00016471        0.00000080        0.00159243        0.00007966        0.00000000        0.00000006        0.00034541        0.00000635        0.00004108
      24         -0.003349        2.000000        0.00000034        0.00048539        0.00000050        0.00000169        0.00002920        0.00001657        0.00000013        0.00000046        0.00000012
      25         -0.003319        2.000000        0.00008295        0.00000073        0.00040284        0.01600223        0.00000002        0.00000027        0.00006075        0.00093507        0.00023044
      26         -0.001208        2.000000        0.00181704        0.00001371        0.02257615        0.00050966        0.00000001        0.00000071        0.00429358        0.00000236        0.00084981
      27         -0.000778        2.000000        0.00008993        0.00000133        0.00002998        0.00012068        0.00000001        0.00000009        0.00003593        0.00002545        0.00000061
      28         -0.000088        2.000000        0.00004148        0.00000033        0.00357208        0.00160908        0.00000011        0.00000002        0.00019982        0.00013790        0.00001397
      29          0.000652        2.000000        0.00000485        0.00000002        0.00021199        0.00008443        0.00000001        0.00000000        0.00001814        0.00000655        0.00000282
      30          0.000753        2.000000        0.00000000        0.00000013        0.00000023        0.00000023        0.00000644        0.00000451        0.00000000        0.00000001        0.00000002
      31          0.001119        2.000000        0.00000085        0.00166412        0.00000146        0.00000462        0.00009481        0.00003812        0.00000040        0.00000121        0.00000033
      32          0.001200        2.000000        0.00019008        0.00000364        0.00108117        0.02371878        0.00000030        0.00000046        0.00017614        0.00170515        0.00056763
      33          0.001419        2.000000        0.00004335        0.00000020        0.00002469        0.00008072        0.00000006        0.00000001        0.00002996        0.00014218        0.00000298
      34          0.001535        2.000000        0.00000012        0.00018639        0.00000234        0.00000002        0.00001052        0.00009884        0.00000038        0.00000000        0.00000011
      35          0.002027        2.000000        0.00091026        0.00000658        0.00967188        0.00027213        0.00000001        0.00000036        0.00200715        0.00000681        0.00044500
      36          0.003469        2.000000        0.00000000        0.00000081        0.00000005        0.00000026        0.00002083        0.00001074        0.00000000        0.00000003        0.00000001
      37          0.005209        2.000000        0.00000133        0.00190053        0.00003142        0.00000016        0.00010710        0.00089670        0.00000454        0.00000003        0.00000142
      38          0.005403        2.000000        0.00038215        0.00000141        0.00017655        0.00038256        0.00000038        0.00000005        0.00032693        0.00103248        0.00000991
      39          0.005928        2.000000        0.00062336        0.00000357        0.00919789        0.00017311        0.00000002        0.00000053        0.00150251        0.00001914        0.00058586
      40          0.006400        2.000000        0.00124456        0.00000818        0.01589615        0.00041003        0.00000000        0.00000068        0.00306623        0.00000849        0.00049452
      41          0.007503        2.000000        0.00294672        0.00013245        0.19961465        0.26727812        0.00001833        0.00000687        0.00563990        0.01786842        0.01135475
      42          0.007759        2.000000        0.00027832        0.00001140        0.01841282        0.02399924        0.00000162        0.00000063        0.00057098        0.00162372        0.00097806
      43          0.008055        2.000000        0.00016846        0.00000141        0.00217348        0.00005256        0.00000000        0.00000009        0.00036872        0.00000227        0.00009260
      44          0.008412        2.000000        0.00000068        0.00000042        0.00004009        0.00005866        0.00002883        0.00001951        0.00000123        0.00000415        0.00000228
      45          0.008512        2.000000        0.00000554        0.00000003        0.00003061        0.00077360        0.00000000        0.00000002        0.00000599        0.00008105        0.00000733
      46          0.008594        2.000000        0.00000011        0.00042579        0.00000031        0.00000060        0.00002414        0.00000479        0.00000009        0.00000016        0.00000006
      47          0.009103        2.000000        0.00000340        0.00000004        0.00005828        0.00000067        0.00000000        0.00000000        0.00000648        0.00000128        0.00000902
      48          0.009393        2.000000        0.00001035        0.00000106        0.00025021        0.00027790        0.00000001        0.00000003        0.00000161        0.00002193        0.00000960
      49          0.009881        2.000000        0.00001484        0.00000012        0.00016937        0.00000474        0.00000000        0.00000001        0.00002570        0.00000009        0.00000615
      50          0.011388        2.000000        0.00000436        0.01769816        0.00000969        0.00002285        0.00096111        0.00012207        0.00000304        0.00000647        0.00000225
      51          0.012375        2.000000        0.00001310        0.00000005        0.00021934        0.00005527        0.00000001        0.00000001        0.00001392        0.00000074        0.00001233
      52          0.012444        2.000000        0.00180545        0.00002266        0.02647526        0.00043772        0.00000010        0.00000132        0.00462014        0.00000186        0.00115526
      53          0.012503        2.000000        0.00006859        0.00000041        0.00002549        0.00006537        0.00000000        0.00000010        0.00003653        0.00001025        0.00000230
      54          0.013704        2.000000        0.00023285        0.00002847        0.07354735        0.02411967        0.00000498        0.00000070        0.00126821        0.00051447        0.00158841
      55          0.014096        2.000000        0.00000550        0.00000004        0.00038369        0.00013507        0.00000001        0.00000000        0.00001963        0.00000649        0.00000215
      56          0.014313        2.000000        0.00182224        0.00002655        0.02883062        0.00043070        0.00000011        0.00000163        0.00508558        0.00000667        0.00125691
      57          0.015751        2.000000        0.00006070        0.00000215        0.00003457        0.00014991        0.00000002        0.00000010        0.00002720        0.00001589        0.00000904
      58          0.016108        2.000000        0.00000000        0.00000399        0.00000060        0.00000028        0.00004084        0.00001814        0.00000001        0.00000003        0.00000002
      59          0.016884        2.000000        0.00003363        0.00000024        0.00082733        0.00022327        0.00000004        0.00000002        0.00007394        0.00001238        0.00000795
      60          0.017832        2.000000        0.00000377        0.00000015        0.00000555        0.00012319        0.00000004        0.00000001        0.00000242        0.00005974        0.00000524
      61          0.017923        2.000000        0.00000027        0.00001605        0.00000607        0.00000006        0.00000048        0.00001110        0.00000090        0.00000001        0.00000029
      62          0.018262        2.000000        0.00169843        0.00004042        0.03409860        0.00037133        0.00000033        0.00000268        0.00516778        0.00005688        0.00169446
      63          0.018559        2.000000        0.00257656        0.00006325        0.04849066        0.00062839        0.00000064        0.00000486        0.00795315        0.00000866        0.00174883
      64          0.018992        2.000000        0.00000000        0.00000043        0.00000011        0.00000003        0.00000128        0.00000012        0.00000000        0.00000000        0.00000000
      65          0.019490        2.000000        0.00002482        0.00000022        0.00000940        0.00008485        0.00000005        0.00000001        0.00003103        0.00009089        0.00000262
      66          0.019562        2.000000        0.00000163        0.00033137        0.00002434        0.00000051        0.00001800        0.00015152        0.00000430        0.00000000        0.00000096
      67          0.020375        2.000000        0.00004452        0.00000097        0.00044609        0.00001682        0.00000002        0.00000010        0.00006087        0.00000054        0.00001789
      68          0.020736        2.000000        0.00000003        0.00000216        0.00000013        0.00000015        0.00000717        0.00000317        0.00000003        0.00000008        0.00000001
      69          0.020942        2.000000        0.00000404        0.00353581        0.00004351        0.00000169        0.00020135        0.00143454        0.00000858        0.00000001        0.00000173
      70          0.021225        2.000000        0.00044519        0.00000345        0.00018675        0.00119966        0.00000081        0.00000010        0.00046877        0.00142675        0.00002674
      71          0.022973        2.000000        0.00000232        0.00000031        0.00081658        0.00024111        0.00000006        0.00000001        0.00001424        0.00000435        0.00001145
      72          0.023015        2.000000        0.00000006        0.00075775        0.00000035        0.00000069        0.00004052        0.00000401        0.00000007        0.00000016        0.00000006
      73          0.023937        2.000000        0.00071343        0.00001517        0.00865458        0.00146725        0.00000101        0.00000078        0.00065067        0.00000582        0.00006579
      74          0.024086        2.000000        0.00000000        0.00000337        0.00000020        0.00000006        0.00001115        0.00000160        0.00000000        0.00000000        0.00000000
      75          0.025809        2.000000        0.00000001        0.00000078        0.00000039        0.00000038        0.00003835        0.00002428        0.00000002        0.00000004        0.00000001
      76          0.025905        2.000000        0.00023601        0.00000638        0.00680586        0.00005141        0.00000003        0.00000034        0.00096447        0.00006261        0.00045420
      77          0.026179        2.000000        0.00040190        0.00000929        0.00827907        0.00013519        0.00000008        0.00000061        0.00151348        0.00000161        0.00021676
      78          0.026462        2.000000        0.00000245        0.00000017        0.00005522        0.00002255        0.00000001        0.00000000        0.00000114        0.00000021        0.00001914
      79          0.026505        2.000000        0.00007741        0.00000979        0.00006274        0.00002833        0.00000029        0.00000024        0.00005625        0.00000863        0.00000167
      80          0.028124        2.000000        0.00000023        0.00196574        0.00000072        0.00000131        0.00009393        0.00000369        0.00000029        0.00000036        0.00000017
      81          0.028127        2.000000        0.00000272        0.00000026        0.00000326        0.00021477        0.00000001        0.00000001        0.00000329        0.00005043        0.00000107
      82          0.028837        2.000000        0.00004736        0.00000024        0.00002215        0.00004184        0.00000006        0.00000001        0.00003764        0.00010411        0.00000001
      83          0.028863        2.000000        0.00000003        0.00037764        0.00000006        0.00000004        0.00002477        0.00010047        0.00000002        0.00000000        0.00000000
      84          0.029159        2.000000        0.00000003        0.00000175        0.00000008        0.00000008        0.00001031        0.00000295        0.00000003        0.00000008        0.00000000
      85          0.030203        2.000000        0.00000814        0.07823699        0.00002588        0.00005389        0.00371857        0.00038555        0.00000930        0.00001403        0.00000642
      86          0.031633        2.000000        0.00036505        0.00000085        0.00510586        0.00084756        0.00000010        0.00000034        0.00035944        0.00000058        0.00003426
      87          0.032012        2.000000        0.00001101        0.00000148        0.00641569        0.00135491        0.00000039        0.00000002        0.00010954        0.00032930        0.00003994
      88          0.034966        2.000000        0.00200202        0.00008793        0.05981712        0.00048704        0.00000094        0.00000632        0.00832162        0.00016411        0.00274727
      89          0.035048        2.000000        0.00000000        0.00001605        0.00000019        0.00000030        0.00005142        0.00001150        0.00000001        0.00000005        0.00000001
      90          0.035429        2.000000        0.00002349        0.00001174        0.00002808        0.00007786        0.00000034        0.00000037        0.00001640        0.00000362        0.00001703
      91          0.035430        2.000000        0.00012490        0.00000438        0.00265485        0.00003707        0.00000006        0.00000037        0.00046341        0.00000205        0.00005541
      92          0.035775        2.000000        0.00000000        0.00000052        0.00000001        0.00000006        0.00000150        0.00000199        0.00000000        0.00000001        0.00000000
      93          0.036325        2.000000        0.00072029        0.00004902        0.02748567        0.00020168        0.00000076        0.00000348        0.00366125        0.00009815        0.00110322
      94          0.037077        2.000000        0.00000104        0.02584341        0.00001105        0.00001785        0.00117643        0.00044934        0.00000221        0.00000372        0.00000175
      95          0.037088        2.000000        0.00000054        0.00025571        0.00001102        0.00000017        0.00001177        0.00010003        0.00000171        0.00000002        0.00000045
      96          0.037122        2.000000        0.00002547        0.00000145        0.00001735        0.00068729        0.00000026        0.00000004        0.00003851        0.00024428        0.00001745
      97          0.037321        2.000000        0.00000073        0.00000031        0.00105466        0.00016808        0.00000007        0.00000001        0.00001634        0.00001094        0.00000518
      98          0.037471        2.000000        0.00035221        0.00001206        0.00324426        0.00040430        0.00000056        0.00000095        0.00031057        0.00000059        0.00003481
      99          0.041155        2.000000        0.00003173        0.37987541        0.00011233        0.00018262        0.01636140        0.00863391        0.00004436        0.00005039        0.00002907
     100          0.041821        2.000000        0.00056863        0.00018513        0.02689007        0.00017408        0.00000633        0.00000874        0.00364042        0.00015948        0.00117148
     101          0.042150        2.000000        0.00000001        0.00001258        0.00000013        0.00000011        0.00003135        0.00001084        0.00000002        0.00000003        0.00000000
     102          0.042654        2.000000        0.00000416        0.00001174        0.00000591        0.00001473        0.00000058        0.00000021        0.00000390        0.00000019        0.00000399
     103          0.042904        2.000000        0.00000174        0.00000001        0.00008563        0.00008880        0.00000001        0.00000000        0.00000003        0.00004395        0.00000014
     104          0.043129        2.000000        0.00000189        0.02395694        0.00000683        0.00001172        0.00101381        0.00068462        0.00000263        0.00000310        0.00000178
     105          0.043911        2.000000        0.00001180        0.00000535        0.00011250        0.00000924        0.00000026        0.00000145        0.00003758        0.00000736        0.00000745
     106          0.044084        2.000000        0.00000160        0.00539587        0.00001201        0.00000116        0.00030812        0.00179339        0.00000304        0.00000006        0.00000036
     107          0.044178        2.000000        0.00028893        0.00001029        0.00008924        0.00438999        0.00000202        0.00000026        0.00058674        0.00154323        0.00007305
     108          0.045278        2.000000        0.00001306        0.00000018        0.00017006        0.00000414        0.00000000        0.00000002        0.00002664        0.00000524        0.00000273
     109          0.045480        2.000000        0.00005111        0.00000226        0.00199147        0.00001166        0.00000002        0.00000016        0.00021329        0.00000881        0.00012081
     110          0.046030        2.000000        0.00031395        0.00002273        0.01666356        0.00009770        0.00000020        0.00000164        0.00198946        0.00008247        0.00069833
     111          0.047376        2.000000        0.00000005        0.00000005        0.00018262        0.00002816        0.00000002        0.00000000        0.00000837        0.00001140        0.00000151
     112          0.047537        2.000000        0.00001118        0.00001048        0.00018207        0.00003705        0.00000072        0.00000155        0.00000749        0.00000036        0.00000218
     113          0.047541        2.000000        0.00000095        0.00015299        0.00001546        0.00000303        0.00001041        0.00002375        0.00000075        0.00000003        0.00000022
     114          0.047570        2.000000        0.00000009        0.00148795        0.00000043        0.00000072        0.00005531        0.00007357        0.00000014        0.00000018        0.00000011
     115          0.047574        2.000000        0.00000578        0.00000002        0.00000224        0.00000062        0.00000000        0.00000000        0.00000593        0.00000887        0.00000062
     116          0.047969        2.000000        0.00012268        0.00000016        0.00186265        0.00036729        0.00000000        0.00000003        0.00008350        0.00000060        0.00000511
     117          0.049001        2.000000        0.00001523        0.00000073        0.00328021        0.00083196        0.00000024        0.00000002        0.00010078        0.00043212        0.00001432
     118          0.049405        2.000000        0.00000000        0.00001517        0.00000003        0.00000077        0.00004829        0.00000630        0.00000000        0.00000013        0.00000001
     119          0.049780        2.000000        0.00001519        0.00000441        0.00000602        0.00003008        0.00000010        0.00000043        0.00001311        0.00000065        0.00001333
     120          0.050004        2.000000        0.00000431        0.00000328        0.00002278        0.00001482        0.00000008        0.00000030        0.00000678        0.00000004        0.00000135
     121          0.050098        2.000000        0.00000115        0.00000002        0.00000033        0.00000495        0.00000000        0.00000000        0.00000249        0.00000388        0.00000000
     122          0.050368        2.000000        0.00000003        0.00020019        0.00000015        0.00000002        0.00001424        0.00005900        0.00000004        0.00000000        0.00000001
     123          0.050466        2.000000        0.00002487        0.00000024        0.00000779        0.00003226        0.00000005        0.00000001        0.00003908        0.00007373        0.00000006
     124          0.050528        2.000000        0.00000359        0.07149642        0.00002154        0.00003427        0.00272667        0.00377616        0.00000665        0.00000769        0.00000499
     125          0.050644        2.000000        0.00000011        0.00062847        0.00000039        0.00000007        0.00004048        0.00019727        0.00000011        0.00000001        0.00000002
     126          0.051661        2.000000        0.00000089        0.00000106        0.00011114        0.00000108        0.00000003        0.00000009        0.00000790        0.00000747        0.00001000
     127          0.052072        2.000000        0.00001018        0.00002324        0.00173753        0.00001325        0.00000090        0.00000386        0.00015036        0.00002477        0.00006772
     128          0.052232        2.000000        0.00000006        0.00000000        0.00000284        0.00000038        0.00000000        0.00000000        0.00000001        0.00000027        0.00000004
     129          0.052327        2.000000        0.00000001        0.00003303        0.00000001        0.00000002        0.00000050        0.00000777        0.00000000        0.00000001        0.00000000
     130          0.052386        2.000000        0.00000139        0.00723576        0.00000697        0.00000119        0.00042756        0.00192976        0.00000160        0.00000009        0.00000032
     131          0.052512        2.000000        0.00000004        0.00000016        0.00000001        0.00000093        0.00000014        0.00000019        0.00000008        0.00000024        0.00000001
     132          0.052571        2.000000        0.00039356        0.00002404        0.00014904        0.00992595        0.00000446        0.00000059        0.00087050        0.00250479        0.00011723
     133          0.052658        2.000000        0.00000000        0.00000007        0.00000000        0.00000003        0.00000003        0.00000002        0.00000000        0.00000001        0.00000000
     134          0.052989        2.000000        0.00001182        0.00000061        0.00258661        0.00060848        0.00000019        0.00000002        0.00007877        0.00034995        0.00001321
     135          0.054285        2.000000        0.00000050        0.08272071        0.00006807        0.00006403        0.00302092        0.00562555        0.00000438        0.00000761        0.00000544
     136          0.054425        2.000000        0.00000000        0.00000677        0.00000001        0.00000033        0.00000206        0.00000099        0.00000001        0.00000006        0.00000001
     137          0.054632        2.000000        0.00000000        0.00000345        0.00000001        0.00000004        0.00000171        0.00000044        0.00000000        0.00000001        0.00000000
     138          0.055156        2.000000        0.00032678        0.00002740        0.00048240        0.00930504        0.00000421        0.00000080        0.00070059        0.00211752        0.00010983
     139          0.055244        2.000000        0.00118513        0.00111340        0.01548704        0.00259836        0.00005579        0.00024266        0.00076112        0.00005083        0.00005267
     140          0.055253        2.000000        0.00041660        0.00279131        0.00545168        0.00091115        0.00015128        0.00070363        0.00026717        0.00001718        0.00001868
     141          0.056039        2.000000        0.00000537        0.00000413        0.00576021        0.00008499        0.00000002        0.00000043        0.00048330        0.00030120        0.00037032
     142          0.056335        2.000000        0.00000001        0.00000179        0.00000007        0.00000025        0.00001913        0.00000602        0.00000003        0.00000006        0.00000000
     143          0.056379        2.000000        0.00001398        0.00000584        0.00425200        0.00003907        0.00000007        0.00000052        0.00060700        0.00004465        0.00006124
     144          0.057275        2.000000        0.00000000        0.00000023        0.00000001        0.00000004        0.00000251        0.00000210        0.00000000        0.00000001        0.00000000