# Projected DOS for atomic kind S at iteration step i = 0, E(Fermi) =     0.236230 a.u.
#     MO Eigenvalue [a.u.]      Occupation                 s                py                pz                px               d-2               d-1                d0               d+1               d+2
       1         -0.411041        2.000000        0.08465063        0.00000024        0.03010873        0.00000095        0.00000000        0.00000011        0.00472488        0.00000051        0.00000103
       2         -0.368750        2.000000        0.28784287        0.00000049        0.01866801        0.00000183        0.00000000        0.00000022        0.00521241        0.00000096        0.00000493
       3         -0.320617        2.000000        0.37418604        0.00000007        0.00287980        0.00000014        0.00000000        0.00000003        0.00024109        0.00000002        0.00000018
       4         -0.291345        2.000000        0.00032627        0.00000000        0.00002733        0.00543529        0.00000002        0.00000000        0.00000038        0.00143870        0.00000002
       5         -0.254582        2.000000        0.20596087        0.00000105        0.07853729        0.00000328        0.00000000        0.00000029        0.00346781        0.00000047        0.00001338
       6         -0.179961        2.000000        0.00001111        0.00000000        0.00001928        0.02434948        0.00000014        0.00000000        0.00000084        0.00390662        0.00000001
       7         -0.154725        2.000000        0.03102643        0.00000134        0.15915072        0.00000573        0.00000000        0.00000025        0.00662657        0.00000037        0.00000959
       8         -0.104071        2.000000        0.00323879        0.00000593        0.17117287        0.00000435        0.00000000        0.00000031        0.00190011        0.00000027        0.00012038
       9         -0.075787        2.000000        0.00410018        0.00000122        0.07699873        0.00000320        0.00000000        0.00000003        0.00035539        0.00000000        0.00001271
      10         -0.073418        2.000000        0.00047547        0.00000017        0.00106624        0.00000008        0.00000000        0.00000000        0.00004658        0.00000000        0.00000074
      11         -0.070163        2.000000        0.00483790        0.00000397        0.18294498        0.00000840        0.00000000        0.00000010        0.00086741        0.00000001        0.00003346
      12         -0.064573        2.000000        0.00192278        0.00000037        0.00143061        0.00000023        0.00000000        0.00000000        0.00006641        0.00000000        0.00000138
      13         -0.051661        2.000000        0.00081170        0.00000604        0.06408316        0.00020948        0.00000000        0.00000005        0.00038433        0.00000078        0.00002043
      14         -0.049588        2.000000        0.00000291        0.00000005        0.00017203        0.17198666        0.00000012        0.00000000        0.00000022        0.00030778        0.00000000
      15         -0.037822        2.000000        0.00553397        0.00000621        0.00113750        0.00000024        0.00000000        0.00000001        0.00018610        0.00000001        0.00000484
      16         -0.022497        2.000000        0.00134868        0.15176017        0.00980879        0.00003946        0.00000002        0.00240829        0.00070133        0.00000198        0.00021609
      17         -0.021523        2.000000        0.00092768        0.22482514        0.00562207        0.00002892        0.00000002        0.00409004        0.00047068        0.00000152        0.00015632
      18         -0.019968        2.000000        0.00000299        0.37712959        0.00002393        0.00000010        0.00000003        0.00878092        0.00000011        0.00000000        0.00000005
      19         -0.016973        2.000000        0.00079425        0.00011924        0.01900305        0.00025459        0.00000000        0.00000350        0.00002369        0.00001277        0.00001105
      20         -0.015091        2.000000        0.00000045        0.00000026        0.00002718        0.31915886        0.00000002        0.00000001        0.00000011        0.01529723        0.00000018
      21         -0.007161        2.000000        0.00001090        0.00000013        0.00008224        0.12436230        0.00000002        0.00000001        0.00000897        0.01720932        0.00000120
      22         -0.005105        2.000000        0.00058335        0.00000120        0.00021495        0.00000102        0.00000000        0.00000014        0.00025363        0.00000015        0.00013240
      23         -0.004851        2.000000        0.00041402        0.00000072        0.00011793        0.00000495        0.00000000        0.00000011        0.00022339        0.00000058        0.00008455
      24         -0.003349        2.000000        0.00000001        0.00123440        0.00000002        0.00000004        0.00000000        0.00002101        0.00000000        0.00000001        0.00000001
      25         -0.003319        2.000000        0.00000080        0.00000002        0.00000286        0.00771223        0.00000000        0.00000000        0.00000073        0.00096859        0.00000005
      26         -0.001208        2.000000        0.00709994        0.00000425        0.00107698        0.00000056        0.00000000        0.00000108        0.00069619        0.00000003        0.00002080
      27         -0.000778        2.000000        0.00001266        0.00000066        0.00004351        0.00000074        0.00000000        0.00000005        0.00001430        0.00000002        0.00069142
      28         -0.000088        2.000000        0.00021544        0.00000022        0.00286445        0.00001766        0.00000000        0.00000002        0.00064942        0.00000503        0.00000879
      29          0.000652        2.000000        0.00006707        0.00000001        0.00044138        0.00000025        0.00000000        0.00000000        0.00000504        0.00000015        0.00000293
      30          0.000753        2.000000        0.00000000        0.00000001        0.00000000        0.00000004        0.00005366        0.00000000        0.00000000        0.00000001        0.00000000
      31          0.001119        2.000000        0.00000001        0.00265764        0.00000007        0.00000004        0.00000000        0.00000114        0.00000002        0.00000000        0.00000001
      32          0.001200        2.000000        0.00000036        0.00000007        0.00001121        0.00468535        0.00000001        0.00000000        0.00000027        0.00032205        0.00000005
      33          0.001419        2.000000        0.00000001        0.00000000        0.00000020        0.00286807        0.00000000        0.00000000        0.00000001        0.00017882        0.00000000
      34          0.001535        2.000000        0.00000020        0.00206064        0.00000092        0.00000000        0.00000000        0.00007866        0.00000027        0.00000000        0.00000000
      35          0.002027        2.000000        0.00123290        0.00000148        0.00257517        0.00000092        0.00000000        0.00000053        0.00247523        0.00000006        0.00000845
      36          0.003469        2.000000        0.00000000        0.00000003        0.00000000        0.00000003        0.00017718        0.00000000        0.00000000        0.00000000        0.00000000
      37          0.005209        2.000000        0.00000397        0.01327739        0.00000680        0.00000004        0.00000001        0.00008503        0.00000061        0.00000000        0.00000015
      38          0.005403        2.000000        0.00000032        0.00000005        0.00000044        0.01789317        0.00000000        0.00000000        0.00000015        0.00050845        0.00000004
      39          0.005928        2.000000        0.00156601        0.00000945        0.00106184        0.00000138        0.00000000        0.00000061        0.00039809        0.00000013        0.00115262
      40          0.006400        2.000000        0.00334025        0.00000979        0.00142115        0.00000110        0.00000000        0.00000105        0.00102222        0.00000004        0.00027896
      41          0.007503        2.000000        0.00002613        0.00000004        0.00005950        0.00570406        0.00000054        0.00000001        0.00016825        0.00227761        0.00000083
      42          0.007759        2.000000        0.00009773        0.00000035        0.00095761        0.00040811        0.00000006        0.00000001        0.00118854        0.00016804        0.00000001
      43          0.008055        2.000000        0.00031704        0.00000048        0.00029725        0.00000011        0.00000000        0.00000011        0.00012646        0.00000006        0.00000180
      44          0.008412        2.000000        0.00000000        0.00000012        0.00000001        0.00000047        0.00030043        0.00000000        0.00000000        0.00000033        0.00000000
      45          0.008512        2.000000        0.00000005        0.00000000        0.00000020        0.00120892        0.00000000        0.00000000        0.00000001        0.00019002        0.00000000
      46          0.008594        2.000000        0.00000001        0.00095320        0.00000001        0.00000000        0.00000001        0.00003903        0.00000001        0.00000000        0.00000000
      47          0.009103        2.000000        0.00000360        0.00000001        0.00001257        0.00000000        0.00000000        0.00000000        0.00000145        0.00000000        0.00001285
      48          0.009393        2.000000        0.00006213        0.00000000        0.00002725        0.00000014        0.00000000        0.00000003        0.00012531        0.00000014        0.00000000
      49          0.009881        2.000000        0.00000573        0.00000002        0.00001511        0.00000000        0.00000000        0.00000001        0.00001131        0.00000000        0.00000003
      50          0.011388        2.000000        0.00000022        0.01544995        0.00000048        0.00000001        0.00000001        0.00002299        0.00000009        0.00000000        0.00000020
      51          0.012375        2.000000        0.00016738        0.00000000        0.00043000        0.00000035        0.00000000        0.00000000        0.00000193        0.00000004        0.00007419
      52          0.012444        2.000000        0.00344298        0.00000218        0.00499650        0.00000048        0.00000000        0.00000120        0.00180175        0.00000002        0.00001847
      53          0.012503        2.000000        0.00003608        0.00000123        0.00007573        0.00000037        0.00000000        0.00000004        0.00000038        0.00000002        0.00034809
      54          0.013704        2.000000        0.00000093        0.00000002        0.00000208        0.04151925        0.00000009        0.00000000        0.00000045        0.00445606        0.00000015
      55          0.014096        2.000000        0.00000717        0.00000001        0.00034634        0.00000573        0.00000000        0.00000000        0.00003975        0.00000059        0.00000009
      56          0.014313        2.000000        0.00345753        0.00000086        0.00619658        0.00000192        0.00000000        0.00000126        0.00208709        0.00000035        0.00002337
      57          0.015751        2.000000        0.00000358        0.00000045        0.00000189        0.00000067        0.00000000        0.00000008        0.00000202        0.00000007        0.00151838
      58          0.016108        2.000000        0.00000000        0.00000011        0.00000000        0.00000043        0.00043935        0.00000000        0.00000000        0.00000005        0.00000000
      59          0.016884        2.000000        0.00016823        0.00000002        0.00088004        0.00000015        0.00000000        0.00000000        0.00027241        0.00000000        0.00000724
      60          0.017832        2.000000        0.00000013        0.00000000        0.00000016        0.00058127        0.00000001        0.00000000        0.00000000        0.00004771        0.00000001
      61          0.017923        2.000000        0.00000081        0.00039201        0.00000093        0.00000000        0.00000001        0.00003725        0.00000003        0.00000000        0.00000003
      62          0.018262        2.000000        0.00460870        0.00000047        0.00463584        0.00000134        0.00000000        0.00000155        0.00027022        0.00000036        0.00040178
      63          0.018559        2.000000        0.00735042        0.00000189        0.00600863        0.00000027        0.00000000        0.00000223        0.00052691        0.00000012        0.00002072
      64          0.018992        2.000000        0.00000000        0.00000006        0.00000000        0.00000009        0.00015009        0.00000000        0.00000000        0.00000001        0.00000000
      65          0.019490        2.000000        0.00000006        0.00000000        0.00000005        0.00088392        0.00000000        0.00000000        0.00000002        0.00000243        0.00000000
      66          0.019562        2.000000        0.00000435        0.00133711        0.00000227        0.00000000        0.00000000        0.00001743        0.00000055        0.00000000        0.00000002
      67          0.020375        2.000000        0.00003196        0.00000051        0.00010758        0.00000001        0.00000000        0.00000001        0.00009545        0.00000000        0.00000042
      68          0.020736        2.000000        0.00000001        0.00001020        0.00000000        0.00000120        0.00059864        0.00000003        0.00000000        0.00000003        0.00000000
      69          0.020942        2.000000        0.00000934        0.01776866        0.00000223        0.00000000        0.00000034        0.00002316        0.00000206        0.00000000        0.00000007
      70          0.021225        2.000000        0.00000062        0.00000000        0.00000058        0.02086376        0.00000002        0.00000000        0.00000031        0.00033043        0.00000001
      71          0.022973        2.000000        0.00000003        0.00000000        0.00000002        0.00107774        0.00000001        0.00000000        0.00000002        0.00026671        0.00000000
      72          0.023015        2.000000        0.00000003        0.00059900        0.00000005        0.00000000        0.00000001        0.00003872        0.00000001        0.00000000        0.00000000
      73          0.023937        2.000000        0.00219078        0.00000120        0.00842935        0.00000545        0.00000000        0.00000028        0.00211755        0.00000041        0.00000120
      74          0.024086        2.000000        0.00000000        0.00000024        0.00000000        0.00000019        0.00091864        0.00000002        0.00000000        0.00000001        0.00000000
      75          0.025809        2.000000        0.00000000        0.00000015        0.00000000        0.00000008        0.00052298        0.00000000        0.00000000        0.00000001        0.00000000
      76          0.025905        2.000000        0.00041239        0.00000040        0.00166650        0.00000023        0.00000000        0.00000027        0.00014950        0.00000007        0.00123829
      77          0.026179        2.000000        0.00083448        0.00000071        0.00159810        0.00000010        0.00000000        0.00000044        0.00035954        0.00000000        0.00072678
      78          0.026462        2.000000        0.00029447        0.00000001        0.00043980        0.00000002        0.00000000        0.00000001        0.00020377        0.00000000        0.00015798
      79          0.026505        2.000000        0.00047969        0.00000001        0.00066463        0.00000000        0.00000000        0.00000023        0.00022204        0.00000001        0.00010758
      80          0.028124        2.000000        0.00000001        0.00078723        0.00000002        0.00000009        0.00000001        0.00000016        0.00000000        0.00000001        0.00000001
      81          0.028127        2.000000        0.00000001        0.00000010        0.00000008        0.00072840        0.00000001        0.00000000        0.00000001        0.00008659        0.00000001
      82          0.028837        2.000000        0.00000001        0.00000002        0.00000001        0.00322764        0.00000031        0.00000000        0.00000000        0.00035162        0.00000000
      83          0.028863        2.000000        0.00000007        0.00257931        0.00000015        0.00000004        0.00000065        0.00017230        0.00000005        0.00000000        0.00000000
      84          0.029159        2.000000        0.00000000        0.00000308        0.00000000        0.00000166        0.00120231        0.00000007        0.00000000        0.00000009        0.00000000
      85          0.030203        2.000000        0.00000046        0.00850338        0.00000010        0.00000000        0.00000002        0.00177351        0.00000002        0.00000000        0.00000021
      86          0.031633        2.000000        0.00096597        0.00000187        0.00541088        0.00000998        0.00000000        0.00000001        0.00064162        0.00000013        0.00000001
      87          0.032012        2.000000        0.00000038        0.00000000        0.00000647        0.01524006        0.00000002        0.00000000        0.00000026        0.00055663        0.00000003
      88          0.034966        2.000000        0.00122925        0.00000012        0.01798559        0.00000085        0.00000000        0.00000381        0.00113519        0.00000019        0.00011587
      89          0.035048        2.000000        0.00000000        0.00000008        0.00000002        0.00000019        0.00203334        0.00000018        0.00000000        0.00000000        0.00000000
      90          0.035429        2.000000        0.00000075        0.00000026        0.00000240        0.00000012        0.00000000        0.00000030        0.00000011        0.00000000        0.00168470
      91          0.035430        2.000000        0.00005808        0.00000000        0.00083133        0.00000001        0.00000000        0.00000020        0.00017323        0.00000000        0.00013403
      92          0.035775        2.000000        0.00000000        0.00000000        0.00000000        0.00000000        0.00016400        0.00000005        0.00000000        0.00000000        0.00000000
      93          0.036325        2.000000        0.00162892        0.00000011        0.00511712        0.00000027        0.00000000        0.00000188        0.00003310        0.00000008        0.00001158
      94          0.037077        2.000000        0.00000181        0.00140074        0.00000168        0.00000002        0.00000002        0.00009540        0.00000058        0.00000000        0.00000001
      95          0.037088        2.000000        0.00000076        0.00132860        0.00000193        0.00000000        0.00000002        0.00000652        0.00000016        0.00000000        0.00000001
      96          0.037122        2.000000        0.00000054        0.00000003        0.00000102        0.00168125        0.00000001        0.00000000        0.00000023        0.00002228        0.00000002
      97          0.037321        2.000000        0.00000031        0.00000000        0.00000059        0.00356825        0.00000001        0.00000000        0.00000010        0.00068687        0.00000000
      98          0.037471        2.000000        0.00153759        0.00000380        0.00393169        0.00000165        0.00000000        0.00000112        0.00075726        0.00000045        0.00000073
      99          0.041155        2.000000        0.00000097        0.00011186        0.00000875        0.00000000        0.00000036        0.01197232        0.00000002        0.00000000        0.00000060
     100          0.041821        2.000000        0.00077040        0.00000299        0.00880412        0.00000009        0.00000000        0.00000676        0.00011304        0.00000009        0.00004449
     101          0.042150        2.000000        0.00000000        0.00000076        0.00000001        0.00000019        0.00260235        0.00000035        0.00000000        0.00000000        0.00000000
     102          0.042654        2.000000        0.00000003        0.00000021        0.00000052        0.00000004        0.00000000        0.00000032        0.00000015        0.00000000        0.00006765
     103          0.042904        2.000000        0.00000003        0.00000000        0.00000010        0.00109619        0.00000001        0.00000000        0.00000002        0.00009435        0.00000000
     104          0.043129        2.000000        0.00000011        0.00025816        0.00000033        0.00000000        0.00000005        0.00111564        0.00000001        0.00000000        0.00000002
     105          0.043911        2.000000        0.00001799        0.00000611        0.00001819        0.00000014        0.00000000        0.00000059        0.00001703        0.00000001        0.00135203
     106          0.044084        2.000000        0.00000270        0.01050804        0.00000082        0.00000011        0.00000001        0.00070170        0.00000223        0.00000000        0.00000047
     107          0.044178        2.000000        0.00000003        0.00000013        0.00000011        0.00866133        0.00000001        0.00000001        0.00000024        0.00026037        0.00000008
     108          0.045278        2.000000        0.00001428        0.00000005        0.00009791        0.00000001        0.00000000        0.00000000        0.00003639        0.00000000        0.00000795
     109          0.045480        2.000000        0.00000699        0.00000043        0.00082905        0.00000001        0.00000000        0.00000003        0.00001444        0.00000001        0.00001129
     110          0.046030        2.000000        0.00008631        0.00000128        0.00527160        0.00000012        0.00000000        0.00000041        0.00000025        0.00000005        0.00000344
     111          0.047376        2.000000        0.00000000        0.00000000        0.00000001        0.00027468        0.00000000        0.00000000        0.00000002        0.00000221        0.00000000
     112          0.047537        2.000000        0.00002317        0.00003073        0.00009921        0.00000045        0.00000000        0.00000125        0.00011603        0.00000013        0.00020274
     113          0.047541        2.000000        0.00000191        0.00042854        0.00000816        0.00000005        0.00000001        0.00001365        0.00000952        0.00000001        0.00001526
     114          0.047570        2.000000        0.00000001        0.00000699        0.00000000        0.00000000        0.00000000        0.00001092        0.00000001        0.00000000        0.00000000
     115          0.047574        2.000000        0.00000008        0.00000000        0.00000028        0.00027171        0.00000000        0.00000000        0.00000034        0.00003281        0.00000037
     116          0.047969        2.000000        0.00026793        0.00000038        0.00107057        0.00000059        0.00000000        0.00000003        0.00135848        0.00000003        0.00003482
     117          0.049001        2.000000        0.00000007        0.00000000        0.00000017        0.01064858        0.00000012        0.00000000        0.00000032        0.00002625        0.00000009
     118          0.049405        2.000000        0.00000000        0.00000002        0.00000000        0.00000019        0.00309642        0.00000001        0.00000000        0.00000001        0.00000000
     119          0.049780        2.000000        0.00000071        0.00000146        0.00000069        0.00000005        0.00000000        0.00000006        0.00000083        0.00000000        0.00088784
     120          0.050004        2.000000        0.00018041        0.00000052        0.00006534        0.00000001        0.00000000        0.00000005        0.00000010        0.00000000        0.00000123
     121          0.050098        2.000000        0.00000000        0.00000000        0.00000000        0.00003664        0.00000000        0.00000000        0.00000000        0.00000179        0.00000000
     122          0.050368        2.000000        0.00000003        0.00037573        0.00000000        0.00000000        0.00000000        0.00001534        0.00000005        0.00000000        0.00000000
     123          0.050466        2.000000        0.00000001        0.00000000        0.00000000        0.00070490        0.00000000        0.00000000        0.00000002        0.00000392        0.00000000
     124          0.050528        2.000000        0.00000047        0.00334307        0.00000018        0.00000000        0.00000002        0.00138234        0.00000042        0.00000000        0.00000004
     125          0.050644        2.000000        0.00000009        0.00105875        0.00000001        0.00000000        0.00000000        0.00003776        0.00000022        0.00000000        0.00000000
     126          0.051661        2.000000        0.00000092        0.00000024        0.00003046        0.00000001        0.00000000        0.00000001        0.00000827        0.00000001        0.00013021
     127          0.052072        2.000000        0.00000543        0.00001981        0.00047007        0.00000046        0.00000000        0.00000038        0.00018638        0.00000001        0.00001524
     128          0.052232        2.000000        0.00000000        0.00000000        0.00000002        0.00005793        0.00000000        0.00000000        0.00000000        0.00004645        0.00000000
     129          0.052327        2.000000        0.00000000        0.00001833        0.00000000        0.00000000        0.00000000        0.00003532        0.00000000        0.00000000        0.00000000
     130          0.052386        2.000000        0.00000092        0.01563710        0.00000013        0.00000016        0.00000000        0.00007853        0.00000124        0.00000000        0.00000004
     131          0.052512        2.000000        0.00000000        0.00000030        0.00000000        0.00000137        0.00000082        0.00000000        0.00000000        0.00000000        0.00000000
     132          0.052571        2.000000        0.00000011        0.00000014        0.00000024        0.01418967        0.00000001        0.00000000        0.00000049        0.00000127        0.00000001
     133          0.052658        2.000000        0.00000000        0.00000015        0.00000000        0.00000004        0.00000195        0.00000000        0.00000000        0.00000000        0.00000000
     134          0.052989        2.000000        0.00000030        0.00000000        0.00000036        0.00941518        0.00000001        0.00000000        0.00000085        0.00010037        0.00000003
     135          0.054285        2.000000        0.00000620        0.00812710        0.00001331        0.00000000        0.00000003        0.00178512        0.00001842        0.00000000        0.00000015
     136          0.054425        2.000000        0.00000000        0.00000057        0.00000000        0.00000003        0.00000968        0.00000013        0.00000000        0.00000000        0.00000000
     137          0.054632        2.000000        0.00000000        0.00000029        0.00000000        0.00000000        0.00000978        0.00000006        0.00000000        0.00000000        0.00000000
     138          0.055156        2.000000        0.00003589        0.00000020        0.00019104        0.01116861        0.00000012        0.00000013        0.00016991        0.00004507        0.00000002
     139          0.055244        2.000000        0.00154623        0.00199849        0.00858895        0.00016952        0.00000003        0.00000544        0.00754105        0.00000123        0.00000002
     140          0.055253        2.000000        0.00054407        0.00588782        0.00303159        0.00005321        0.00000018        0.00000183        0.00266111        0.00000042        0.00000002
     141          0.056039        2.000000        0.00032403        0.00000447        0.00145315        0.00000043        0.00000000        0.00000026        0.00051835        0.00000018        0.00050454
     142          0.056335        2.000000        0.00000000        0.00000055        0.00000001        0.00000034        0.00205746        0.00000003        0.00000000        0.00000000        0.00000001
     143          0.056379        2.000000        0.00049085        0.00000247        0.00079118        0.00000005        0.00000002        0.00000033        0.00021777        0.00000006        0.00030743
     144          0.057275        2.000000        0.00000000        0.00000000        0.00000000        0.00000004        0.00009892        0.00000000        0.00000000        0.00000000        0.00000000