# Projected DOS for atomic kind H at iteration step i = 0, E(Fermi) =     0.236230 a.u.
#     MO Eigenvalue [a.u.]      Occupation                 s                py                pz                px
       1         -0.411041        2.000000        0.05078326        0.00001727        0.00927675        0.04898089
       2         -0.368750        2.000000        0.01503907        0.00000354        0.00572659        0.02121288
       3         -0.320617        2.000000        0.00491632        0.00000124        0.01614127        0.00053816
       4         -0.291345        2.000000        0.10207550        0.00003135        0.02890044        0.02465637
       5         -0.254582        2.000000        0.01855784        0.00000042        0.00009263        0.00875927
       6         -0.179961        2.000000        0.12089309        0.00000594        0.00157410        0.02643805
       7         -0.154725        2.000000        0.05782985        0.00001087        0.02385390        0.00002937
       8         -0.104071        2.000000        0.13865028        0.00000926        0.00531817        0.00122783
       9         -0.075787        2.000000        0.00887977        0.00000084        0.00006780        0.00021250
      10         -0.073418        2.000000        0.00060351        0.00000001        0.00000921        0.00000496
      11         -0.070163        2.000000        0.02236247        0.00000210        0.00000936        0.00062394
      12         -0.064573        2.000000        0.00086747        0.00000000        0.00019258        0.00000023
      13         -0.051661        2.000000        0.01209717        0.00000143        0.00030441        0.00035884
      14         -0.049588        2.000000        0.00027668        0.00000040        0.02685622        0.00488700
      15         -0.037822        2.000000        0.00187411        0.00000006        0.00051970        0.00000006
      16         -0.022497        2.000000        0.14044273        0.00209370        0.00020721        0.00059664
      17         -0.021523        2.000000        0.09502472        0.00247418        0.00013514        0.00034688
      18         -0.019968        2.000000        0.00000543        0.00110769        0.00000169        0.00000098
      19         -0.016973        2.000000        0.00801308        0.00000034        0.00055469        0.00000293
      20         -0.015091        2.000000        0.00827214        0.00000058        0.00264262        0.00006043
      21         -0.007161        2.000000        0.02812734        0.00000169        0.00171466        0.00157517
      22         -0.005105        2.000000        0.00041228        0.00000001        0.00005514        0.00000120
      23         -0.004851        2.000000        0.00030078        0.00000000        0.00000187        0.00000561
      24         -0.003349        2.000000        0.00000103        0.00001925        0.00000001        0.00000000
      25         -0.003319        2.000000        0.00230480        0.00000008        0.00010572        0.00006639
      26         -0.001208        2.000000        0.00355733        0.00000007        0.00075887        0.00000097
      27         -0.000778        2.000000        0.00014984        0.00000007        0.00004087        0.00000739
      28         -0.000088        2.000000        0.00042025        0.00000001        0.00001736        0.00000546
      29          0.000652        2.000000        0.00002108        0.00000000        0.00000039        0.00000327
      30          0.000753        2.000000        0.00000014        0.00001584        0.00000002        0.00000000
      31          0.001119        2.000000        0.00000276        0.00009855        0.00000002        0.00000000
      32          0.001200        2.000000        0.00661348        0.00000010        0.00007393        0.00004141
      33          0.001419        2.000000        0.00010359        0.00000000        0.00000015        0.00000045
      34          0.001535        2.000000        0.00000037        0.00000181        0.00000001        0.00000002
      35          0.002027        2.000000        0.00168090        0.00000000        0.00004329        0.00000265
      36          0.003469        2.000000        0.00000011        0.00004732        0.00000006        0.00000000
      37          0.005209        2.000000        0.00000468        0.00007980        0.00000052        0.00000014
      38          0.005403        2.000000        0.00064038        0.00000004        0.00006873        0.00000041
      39          0.005928        2.000000        0.00138233        0.00000002        0.00024761        0.00000478
      40          0.006400        2.000000        0.00273106        0.00000001        0.00004825        0.00005212
      41          0.007503        2.000000        0.15581240        0.00000041        0.00013222        0.00001232
      42          0.007759        2.000000        0.01346823        0.00000004        0.00002683        0.00003076
      43          0.008055        2.000000        0.00036322        0.00000001        0.00000787        0.00000281
      44          0.008412        2.000000        0.00003331        0.00006346        0.00000024        0.00000000
      45          0.008512        2.000000        0.00009519        0.00000000        0.00003743        0.00000062
      46          0.008594        2.000000        0.00000036        0.00000861        0.00000002        0.00000002
      47          0.009103        2.000000        0.00000700        0.00000000        0.00000513        0.00000005
      48          0.009393        2.000000        0.00017863        0.00000002        0.00005247        0.00000445
      49          0.009881        2.000000        0.00003128        0.00000000        0.00000003        0.00000002
      50          0.011388        2.000000        0.00001322        0.00097321        0.00000021        0.00000007
      51          0.012375        2.000000        0.00000920        0.00000000        0.00001078        0.00000160
      52          0.012444        2.000000        0.00423218        0.00000016        0.00014744        0.00002886
      53          0.012503        2.000000        0.00010856        0.00000002        0.00006237        0.00000406
      54          0.013704        2.000000        0.02489013        0.00000001        0.00004086        0.00003099
      55          0.014096        2.000000        0.00004024        0.00000001        0.00000005        0.00000168
      56          0.014313        2.000000        0.00447010        0.00000018        0.00030509        0.00000710
      57          0.015751        2.000000        0.00014939        0.00000012        0.00006397        0.00000829
      58          0.016108        2.000000        0.00000022        0.00007558        0.00000010        0.00000000
      59          0.016884        2.000000        0.00003213        0.00000005        0.00000335        0.00000005
      60          0.017832        2.000000        0.00005755        0.00000000        0.00002798        0.00000467
      61          0.017923        2.000000        0.00000088        0.00000068        0.00000006        0.00000004
      62          0.018262        2.000000        0.00494633        0.00000041        0.00050634        0.00004951
      63          0.018559        2.000000        0.00747271        0.00000105        0.00030221        0.00009056
      64          0.018992        2.000000        0.00000003        0.00000001        0.00000000        0.00000000
      65          0.019490        2.000000        0.00007058        0.00000000        0.00000010        0.00000365
      66          0.019562        2.000000        0.00000375        0.00002292        0.00000013        0.00000003
      67          0.020375        2.000000        0.00009902        0.00000000        0.00001233        0.00000047
      68          0.020736        2.000000        0.00000012        0.00000115        0.00000000        0.00000000
      69          0.020942        2.000000        0.00000688        0.00013923        0.00000016        0.00000000
      70          0.021225        2.000000        0.00121879        0.00000011        0.00003583        0.00000839
      71          0.022973        2.000000        0.00028667        0.00000000        0.00001803        0.00000935
      72          0.023015        2.000000        0.00000030        0.00002274        0.00000004        0.00000002
      73          0.023937        2.000000        0.00010199        0.00000056        0.00014755        0.00004321
      74          0.024086        2.000000        0.00000006        0.00000112        0.00000000        0.00000000
      75          0.025809        2.000000        0.00000028        0.00006585        0.00000010        0.00000000
      76          0.025905        2.000000        0.00090667        0.00000000        0.00016331        0.00000322
      77          0.026179        2.000000        0.00138293        0.00000007        0.00000139        0.00003830
      78          0.026462        2.000000        0.00000697        0.00000007        0.00000096        0.00000630
      79          0.026505        2.000000        0.00008070        0.00000039        0.00006944        0.00000185
      80          0.028124        2.000000        0.00000065        0.00006663        0.00000004        0.00000005
      81          0.028127        2.000000        0.00003465        0.00000001        0.00004865        0.00000097
      82          0.028837        2.000000        0.00010115        0.00000002        0.00006586        0.00000734
      83          0.028863        2.000000        0.00000000        0.00000223        0.00000000        0.00000001
      84          0.029159        2.000000        0.00000010        0.00000011        0.00000003        0.00000000
      85          0.030203        2.000000        0.00002569        0.00415797        0.00000102        0.00000051
      86          0.031633        2.000000        0.00006605        0.00000002        0.00001813        0.00001119
      87          0.032012        2.000000        0.00072677        0.00000001        0.00005694        0.00000053
      88          0.034966        2.000000        0.00879623        0.00000092        0.00018981        0.00004291
      89          0.035048        2.000000        0.00000011        0.00002932        0.00000003        0.00000000
      90          0.035429        2.000000        0.00007837        0.00000062        0.00005661        0.00000529
      91          0.035430        2.000000        0.00046988        0.00000010        0.00001032        0.00000273
      92          0.035775        2.000000        0.00000002        0.00001844        0.00000003        0.00000000
      93          0.036325        2.000000        0.00389139        0.00000088        0.00012819        0.00006397
      94          0.037077        2.000000        0.00000652        0.00111564        0.00000094        0.00000030
      95          0.037088        2.000000        0.00000161        0.00000307        0.00000003        0.00000000
      96          0.037122        2.000000        0.00032436        0.00000003        0.00002140        0.00001189
      97          0.037321        2.000000        0.00022446        0.00000001        0.00002242        0.00001742
      98          0.037471        2.000000        0.00001214        0.00000072        0.00005873        0.00000187
      99          0.041155        2.000000        0.00008261        0.01885445        0.00000658        0.00000324
     100          0.041821        2.000000        0.00366766        0.00000725        0.00016336        0.00003248
     101          0.042150        2.000000        0.00000008        0.00000449        0.00000001        0.00000001
     102          0.042654        2.000000        0.00001486        0.00000049        0.00001134        0.00000026
     103          0.042904        2.000000        0.00000010        0.00000000        0.00001907        0.00000017
     104          0.043129        2.000000        0.00000517        0.00131494        0.00000035        0.00000012
     105          0.043911        2.000000        0.00003842        0.00000026        0.00003102        0.00000383
     106          0.044084        2.000000        0.00000199        0.00027846        0.00000008        0.00000000
     107          0.044178        2.000000        0.00242859        0.00000040        0.00000013        0.00006222
     108          0.045278        2.000000        0.00004466        0.00000001        0.00002501        0.00000188
     109          0.045480        2.000000        0.00028233        0.00000002        0.00000284        0.00000010
     110          0.046030        2.000000        0.00233066        0.00000020        0.00004687        0.00001084
     111          0.047376        2.000000        0.00003404        0.00000000        0.00000186        0.00000064
     112          0.047537        2.000000        0.00000830        0.00000021        0.00000420        0.00000118
     113          0.047541        2.000000        0.00000080        0.00000331        0.00000033        0.00000009
     114          0.047570        2.000000        0.00000027        0.00005651        0.00000004        0.00000002
     115          0.047574        2.000000        0.00000537        0.00000000        0.00001451        0.00000185
     116          0.047969        2.000000        0.00004289        0.00000002        0.00000348        0.00000318
     117          0.049001        2.000000        0.00029767        0.00000001        0.00003121        0.00000035
     118          0.049405        2.000000        0.00000026        0.00000964        0.00000001        0.00000000
     119          0.049780        2.000000        0.00004209        0.00000023        0.00004663        0.00000584
     120          0.050004        2.000000        0.00002124        0.00000017        0.00003077        0.00000045
     121          0.050098        2.000000        0.00000559        0.00000000        0.00000258        0.00000019
     122          0.050368        2.000000        0.00000002        0.00000224        0.00000000        0.00000001
     123          0.050466        2.000000        0.00006682        0.00000003        0.00005126        0.00000217
     124          0.050528        2.000000        0.00001296        0.00342091        0.00000143        0.00000083
     125          0.050644        2.000000        0.00000006        0.00003410        0.00000001        0.00000000
     126          0.051661        2.000000        0.00001362        0.00000002        0.00001162        0.00000251
     127          0.052072        2.000000        0.00021872        0.00000040        0.00002792        0.00000020
     128          0.052232        2.000000        0.00000090        0.00000000        0.00000004        0.00000011
     129          0.052327        2.000000        0.00000001        0.00000206        0.00000000        0.00000000
     130          0.052386        2.000000        0.00000114        0.00018974        0.00000001        0.00000008
     131          0.052512        2.000000        0.00000048        0.00000026        0.00000001        0.00000000
     132          0.052571        2.000000        0.00508335        0.00000116        0.00005086        0.00003068
     133          0.052658        2.000000        0.00000001        0.00000000        0.00000000        0.00000000
     134          0.052989        2.000000        0.00026632        0.00000001        0.00000704        0.00000015
     135          0.054285        2.000000        0.00001717        0.00359456        0.00000198        0.00000191
     136          0.054425        2.000000        0.00000012        0.00000225        0.00000000        0.00000000
     137          0.054632        2.000000        0.00000001        0.00000036        0.00000000        0.00000000
     138          0.055156        2.000000        0.00458139        0.00000129        0.00005101        0.00002460
     139          0.055244        2.000000        0.00032756        0.00004856        0.00002572        0.00005587
     140          0.055253        2.000000        0.00011346        0.00012102        0.00000947        0.00001977
     141          0.056039        2.000000        0.00054297        0.00000001        0.00053896        0.00000237
     142          0.056335        2.000000        0.00000015        0.00000271        0.00000001        0.00000000
     143          0.056379        2.000000        0.00054515        0.00000008        0.00002742        0.00002727
     144          0.057275        2.000000        0.00000002        0.00000336        0.00000002        0.00000000
     145          0.057311        2.000000        0.00004593        0.00000001        0.00011313        0.00001884
     146          0.057598        2.000000        0.00000017        0.00012005        0.00000010        0.00000001
     147          0.057767        2.000000        0.00000006        0.00000865        0.00000002        0.00000000
     148          0.057881        2.000000        0.00009559        0.00000027        0.00013928        0.00002972
     149          0.058686        2.000000        0.00000725        0.00000016        0.00004945        0.00001486
     150          0.059188        2.000000        0.01593797        0.00000382        0.00002044        0.00022208
     151          0.059244        2.000000        0.00003544        0.00000000        0.00003005        0.00000161
     152          0.059684        2.000000        0.00000162        0.00054619        0.00000047        0.00000012
     153          0.059703        2.000000        0.00000184        0.00009741        0.00000032        0.00000023
     154          0.060892        2.000000        0.00000006        0.00000518        0.00000001        0.00000000
     155          0.061069        2.000000        0.00000000        0.00000021        0.00000000        0.00000000
     156          0.062700        2.000000        0.00700815        0.00000193        0.00000438        0.00005322
     157          0.063013        2.000000        0.00006722        0.00007962        0.00000672        0.00000091
     158          0.063666        2.000000        0.01399455        0.00000216        0.00112922        0.00014213
     159          0.063983        2.000000        0.00000243        0.00002102        0.00000003        0.00000000
     160          0.064788        2.000000        0.00000003        0.00000832        0.00000002        0.00000000
     161          0.065152        2.000000        0.00000013        0.00000843        0.00000002        0.00000000
     162          0.065348        2.000000        0.00004189        0.00000003        0.00000646        0.00000794
     163          0.065400        2.000000        0.00017197        0.00000001        0.00001092        0.00000248
     164          0.065792        2.000000        0.00000178        0.00000003        0.00000002        0.00000095
     165          0.065921        2.000000        0.00000235        0.00104988        0.00000056        0.00000013
     166          0.066751        2.000000        0.00034263        0.00000005        0.00007038        0.00001398
     167          0.066753        2.000000        0.00000163        0.00000000        0.00000187        0.00000001
     168          0.066868        2.000000        0.00000003        0.00000289        0.00000001        0.00000000
     169          0.066963        2.000000        0.00000059        0.00002320        0.00000001        0.00000000
     170          0.067173        2.000000        0.00000493        0.00000736        0.00000001        0.00000005
     171          0.067761        2.000000        0.00012229        0.00000001        0.00001068        0.00000038
     172          0.068069        2.000000        0.00020401        0.00000007        0.00003224        0.00000168
     173          0.068205        2.000000        0.00000040        0.00000336        0.00000001        0.00000000
     174          0.068347        2.000000        0.00001565        0.00137440        0.00000100        0.00000034
     175          0.068431        2.000000        0.00565131        0.00000983        0.00002026        0.00005051
     176          0.068889        2.000000        0.04961037        0.00009160        0.00000185        0.00040065
     177          0.068951        2.000000        0.11271208        0.00000731        0.00000558        0.00091636
     178          0.069002        2.000000        0.00007334        0.00000248        0.00000001        0.00000059
     179          0.070074        2.000000        0.00009496        0.00000002        0.00000222        0.00000009
     180          0.070172        2.000000        0.00000062        0.00000230        0.00000013        0.00000002
     181          0.070398        2.000000        0.00000013        0.00000022        0.00000000        0.00000000
     182          0.070532        2.000000        0.00209273        0.00000175        0.00043190        0.00001980
     183          0.070580        2.000000        0.00005830        0.00000849        0.00000106        0.00000048
     184          0.070632        2.000000        0.01190237        0.00000454        0.00017858        0.00010354
     185          0.070897        2.000000        0.00001382        0.00009339        0.00000014        0.00000012
     186          0.070955        2.000000        0.00000709        0.00000442        0.00000001        0.00000007
     187          0.071197        2.000000        0.00020289        0.00000017        0.00000103        0.00001632
     188          0.071372        2.000000        0.00000001        0.00000160        0.00000000        0.00000000
     189          0.071372        2.000000        0.00000122        0.00000000        0.00000000        0.00000186
     190          0.071570        2.000000        0.00000029        0.00001499        0.00000002        0.00000000
     191          0.071668        2.000000        0.00000217        0.00000000        0.00000512        0.00000195
     192          0.071797        2.000000        0.00000045        0.00000079        0.00000000        0.00000000
     193          0.071847        2.000000        0.00003026        0.00000001        0.00002302        0.00000128
     194          0.071873        2.000000        0.00000005        0.00000972        0.00000001        0.00000000
     195          0.071898        2.000000        0.00000025        0.00000053        0.00000000        0.00000000
     196          0.072353        2.000000        0.00000040        0.00000105        0.00000000        0.00000000
     197          0.072407        2.000000        0.00000000        0.00000183        0.00000000        0.00000000
     198          0.072440        2.000000        0.00000019        0.00000063        0.00000000        0.00000000
     199          0.072510        2.000000        0.00000034        0.00000382        0.00000002        0.00000000
     200          0.072517        2.000000        0.00000000        0.00000052        0.00000000        0.00000000
     201          0.072587        2.000000        0.00003980        0.00000001        0.00000415        0.00000033
     202          0.073022        2.000000        0.00000000        0.00000052        0.00000000        0.00000000
     203          0.073116        2.000000        0.00000139        0.00000000        0.00000065        0.00000008
     204          0.073141        2.000000        0.00000128        0.00000006        0.00000004        0.00000132
     205          0.073324        2.000000        0.00000000        0.00000120        0.00000000        0.00000000
     206          0.073379        2.000000        0.00000920        0.00000000        0.00000433        0.00000057
     207          0.073434        2.000000        0.00000001        0.00000026        0.00000000        0.00000000
     208          0.073514        2.000000        0.00000011        0.00000000        0.00000004        0.00000000
     209          0.073762        2.000000        0.00000002        0.00000745        0.00000000        0.00000000
     210          0.073784        2.000000        0.00012849        0.00000002        0.00005697        0.00001011
     211          0.074071        2.000000        0.00000014        0.00003898        0.00000008        0.00000002
     212          0.075807        2.000000        0.00000169        0.00013186        0.00000003        0.00000000
     213          0.075906        2.000000        0.00016364        0.00000015        0.00002081        0.00000674
     214          0.075924        2.000000        0.00079698        0.00000041        0.00001121        0.00000626
     215          0.076659        2.000000        0.00001103        0.00016468        0.00000015        0.00000012
     216          0.078075        2.000000        0.00003381        0.00000002        0.00000501        0.00000396
     217          0.078196        2.000000        0.00040246        0.00000059        0.00007626        0.00000039
     218          0.078293        2.000000        0.00001590        0.00000000        0.00002667        0.00001210
     219          0.078738        2.000000        0.00000299        0.00003584        0.00000045        0.00000005
     220          0.078825        2.000000        0.00000004        0.00002811        0.00000003        0.00000001
     221          0.078926        2.000000        0.00215930        0.00000080        0.00000061        0.00002901
     222          0.080229        2.000000        0.00002617        0.00000002        0.00003008        0.00000371
     223          0.080487        2.000000        0.00007524        0.00000003        0.00000162        0.00000053
     224          0.080649        2.000000        0.00000014        0.00013407        0.00000022        0.00000000
     225          0.080704        2.000000        0.00000021        0.00014432        0.00000016        0.00000003
     226          0.080871        2.000000        0.00000320        0.00024482        0.00000018        0.00000005
     227          0.080898        2.000000        0.00009060        0.00000006        0.00021695        0.00002948
     228          0.080991        2.000000        0.00000043        0.00000001        0.00000007        0.00000001
     229          0.082114        2.000000        0.00000204        0.00012156        0.00000013        0.00000001
     230          0.082812        2.000000        0.00000001        0.00000045        0.00000000        0.00000000
     231          0.083316        2.000000        0.00003462        0.00000019        0.00004984        0.00001451
     232          0.083351        2.000000        0.00006471        0.00000003        0.00000141        0.00000039
     233          0.083397        2.000000        0.00003147        0.00000123        0.00000646        0.00000228
     234          0.083441        2.000000        0.00000294        0.00008923        0.00000037        0.00000003
     235          0.083559        2.000000        0.00048768        0.00000019        0.00000293        0.00000608
     236          0.083700        2.000000        0.00002381        0.00000196        0.00002968        0.00000037
     237          0.083709        2.000000        0.00000003        0.00003029        0.00000006        0.00000000
     238          0.083714        2.000000        0.00000065        0.00011148        0.00000076        0.00000004
     239          0.084686        2.000000        0.00014110        0.00000001        0.00010921        0.00000792
     240          0.084792        2.000000        0.00000162        0.00000001        0.00000392        0.00000854
     241          0.084943        2.000000        0.00000003        0.00000317        0.00000010        0.00000000
     242          0.085166        2.000000        0.00000073        0.00000000        0.00000041        0.00000000
     243          0.085289        2.000000        0.00052047        0.00000041        0.00000492        0.00000440
     244          0.085299        2.000000        0.00000274        0.00010430        0.00000008        0.00000005
     245          0.085433        2.000000        0.00000001        0.00000208        0.00000000        0.00000000
     246          0.085705        2.000000        0.00000543        0.00000000        0.00000223        0.00000014
     247          0.085876        2.000000        0.00000001        0.00000531        0.00000000        0.00000000
     248          0.085909        2.000000        0.00001753        0.00000001        0.00001277        0.00000001
     249          0.086209        2.000000        0.00000094        0.00000002        0.00000212        0.00000159
     250          0.086264        2.000000        0.00000004        0.00000059        0.00000000        0.00000000
     251          0.086367        2.000000        0.00000671        0.00000005        0.00000304        0.00000134
     252          0.086824        2.000000        0.00000002        0.00002424        0.00000011        0.00000001
     253          0.086856        2.000000        0.00000000        0.00000058        0.00000000        0.00000000
     254          0.087174        2.000000        0.00007785        0.00000245        0.00000809        0.00000982
     255          0.087197        2.000000        0.00000094        0.00002257        0.00000001        0.00000001
     256          0.087205        2.000000        0.00027481        0.00000012        0.00001745        0.00000009
     257          0.087231        2.000000        0.00006494        0.00000028        0.00002577        0.00000537
     258          0.087743        2.000000        0.00001559        0.00000176        0.00001457        0.00001231
     259          0.087928        2.000000        0.00004434        0.00000003        0.00000703        0.00000083