# Projected DOS for atomic kind Au at iteration step i = 0, E(Fermi) =     0.236230 a.u.
#     MO Eigenvalue [a.u.]      Occupation                 s                py                pz                px               d-2               d-1                d0               d+1               d+2
       1         -0.411041        2.000000        0.00626731        0.00748340        0.01189680        0.00671696        0.00000270        0.00123600        0.00002661        0.00118712        0.00159867
       2         -0.368750        2.000000        0.02339364        0.02625425        0.02852469        0.02578637        0.00000959        0.00571421        0.00023234        0.00577760        0.00784538
       3         -0.320617        2.000000        0.03774091        0.03774535        0.02933852        0.03879044        0.00001444        0.01012944        0.00111914        0.01039118        0.01608351
       4         -0.291345        2.000000        0.00031586        0.00004167        0.00157497        0.00016632        0.00000967        0.00001147        0.00008956        0.00005129        0.00002602
       5         -0.254582        2.000000        0.03671097        0.02809764        0.01511256        0.02912538        0.00001009        0.00949492        0.00296782        0.00965049        0.01976296
       6         -0.179961        2.000000        0.00133628        0.00002226        0.00269098        0.00063501        0.00017432        0.00000694        0.00030813        0.00072579        0.00013946
       7         -0.154725        2.000000        0.03814193        0.01426012        0.00827576        0.01263563        0.00000191        0.00492911        0.00653599        0.00489018        0.02135345
       8         -0.104071        2.000000        0.04055409        0.00729216        0.00962647        0.00928336        0.00000111        0.00248389        0.01554533        0.00248238        0.02492830
       9         -0.075787        2.000000        0.74993331        0.00272518        0.04695438        0.00232974        0.00001329        0.00015500        0.00683060        0.00016866        0.01094155
      10         -0.073418        2.000000        0.90600488        0.00032644        0.08540684        0.00035790        0.00000236        0.00018310        0.00138955        0.00018151        0.00071174
      11         -0.070163        2.000000        0.40633473        0.00854437        0.10356363        0.00731772        0.00002992        0.00078423        0.02563384        0.00084775        0.03206206
      12         -0.064573        2.000000        0.87223427        0.00051008        0.11143646        0.00054239        0.00000229        0.00039830        0.00405373        0.00038789        0.00121191
      13         -0.051661        2.000000        0.55698522        0.00697180        0.22618247        0.00611608        0.00002192        0.00135814        0.02900718        0.00149164        0.02322986
      14         -0.049588        2.000000        0.02983409        0.00080208        0.00351090        0.01303635        0.01728852        0.00142837        0.00039594        0.03703127        0.00886981
      15         -0.037822        2.000000        0.60561062        0.00146225        0.32694628        0.00163792        0.00005459        0.00167646        0.03437697        0.00161858        0.00403120
      16         -0.022497        2.000000        0.07478736        0.02153914        0.02223932        0.00280007        0.04195612        0.06065889        0.01067108        0.00691534        0.01780326
      17         -0.021523        2.000000        0.09918434        0.03264810        0.01886356        0.00304934        0.06526122        0.09263857        0.00766207        0.01061046        0.02353382
      18         -0.019968        2.000000        0.14758980        0.05808468        0.00466106        0.00396881        0.11959300        0.16528154        0.00160510        0.01980611        0.03803463
      19         -0.016973        2.000000        0.44793945        0.00555166        0.33499113        0.00698349        0.00015278        0.00088611        0.10518531        0.00089337        0.02555635
      20         -0.015091        2.000000        0.16267965        0.00404453        0.00348578        0.06271027        0.13442880        0.02788039        0.00270187        0.18220822        0.04077688
      21         -0.007161        2.000000        0.15296065        0.00235788        0.00145685        0.07284280        0.10422343        0.03480829        0.00464215        0.11522089        0.02842828
      22         -0.005105        2.000000        0.39297712        0.41432791        0.00772331        0.00012785        0.00094605        0.00966473        0.04164129        0.00112832        0.12637738
      23         -0.004851        2.000000        0.39386081        0.00022676        0.00783136        0.41529318        0.00100442        0.00111392        0.04165030        0.00975971        0.12587455
      24         -0.003349        2.000000        0.39520614        0.41745370        0.00834401        0.00000805        0.00146193        0.00979952        0.04062076        0.00078827        0.12450744
      25         -0.003319        2.000000        0.37713543        0.00008305        0.00940592        0.38911889        0.01093638        0.00561949        0.03835155        0.02181765        0.11865407
      26         -0.001208        2.000000        0.37286772        0.00218959        0.34047974        0.00087275        0.01004233        0.01550657        0.19669070        0.01493374        0.00313675
      27         -0.000778        2.000000        0.38713231        0.25470393        0.02793535        0.14187471        0.00007959        0.01935668        0.03773735        0.01029093        0.11962363
      28         -0.000088        2.000000        0.33405440        0.08988102        0.02257850        0.17030990        0.07990763        0.09003796        0.02954125        0.09880080        0.07510963
      29          0.000652        2.000000        0.28845375        0.04773041        0.01176522        0.07862044        0.17025542        0.17363311        0.01465289        0.17703099        0.03698738
      30          0.000753        2.000000        0.24202777        0.00296989        0.00025309        0.00296478        0.26165935        0.24564157        0.00002733        0.24437441        0.00000052
      31          0.001119        2.000000        0.24066090        0.00571944        0.00077679        0.00385984        0.25242495        0.25406177        0.00013240        0.23715005        0.00064767
      32          0.001200        2.000000        0.23316134        0.00458499        0.00123674        0.00950686        0.24100915        0.22546305        0.00038437        0.24381954        0.00164233
      33          0.001419        2.000000        0.37742260        0.00026853        0.02898442        0.37556010        0.01336004        0.00978338        0.03461375        0.04536574        0.11116597
      34          0.001535        2.000000        0.38009564        0.38062233        0.02915931        0.00023859        0.01088287        0.04237504        0.03461877        0.00809220        0.11147363
      35          0.002027        2.000000        0.25691843        0.04275115        0.03111081        0.03950613        0.17961898        0.18078742        0.04064052        0.18224267        0.02508212
      36          0.003469        2.000000        0.23327680        0.01218762        0.00108473        0.01217297        0.27482767        0.23401293        0.00007877        0.23210054        0.00000049
      37          0.005209        2.000000        0.22635054        0.02683624        0.00428612        0.01481160        0.24906008        0.24195614        0.00107164        0.21378279        0.00544250
      38          0.005403        2.000000        0.22462190        0.01576587        0.00441654        0.02946749        0.24552297        0.20863228        0.00121347        0.24193441        0.00700048
      39          0.005928        2.000000        0.34865377        0.28832509        0.05178294        0.03107759        0.02236980        0.07855141        0.03383039        0.02615039        0.10132779
      40          0.006400        2.000000        0.32668054        0.00686790        0.04888794        0.27231940        0.04783032        0.04545301        0.03387220        0.10286059        0.08519329
      41          0.007503        2.000000        0.07376502        0.00645167        0.00725368        0.01664393        0.08309113        0.05967622        0.00477586        0.07511623        0.00417171
      42          0.007759        2.000000        0.21608140        0.03182141        0.00586520        0.03336610        0.23937996        0.20071714        0.00208254        0.20518051        0.00328262
      43          0.008055        2.000000        0.09538700        0.00670854        0.01126980        0.00894821        0.00011352        0.00115357        0.70562032        0.00148357        0.16533866
      44          0.008412        2.000000        0.22211502        0.02740717        0.00265475        0.02737450        0.29372131        0.21406236        0.00018020        0.21192677        0.00000369
      45          0.008512        2.000000        0.35582316        0.00219476        0.05483204        0.32472154        0.02976291        0.02141133        0.02571636        0.09526367        0.08783761
      46          0.008594        2.000000        0.36240341        0.33826878        0.05658676        0.00149184        0.02011442        0.08893376        0.02624828        0.01429356        0.09020188
      47          0.009103        2.000000        0.08201437        0.00416542        0.00504655        0.00169775        0.00000073        0.00082086        0.22226309        0.00035598        0.68351340
      48          0.009393        2.000000        0.14652159        0.00005583        0.12446028        0.00008008        0.00003427        0.00004965        0.69092343        0.00004248        0.03680913
      49          0.009881        2.000000        0.08058241        0.00077093        0.00520051        0.00106892        0.00000255        0.00012931        0.40033682        0.00018393        0.51144007
      50          0.011388        2.000000        0.20864411        0.04594137        0.01039517        0.02684692        0.24536449        0.22913277        0.00163584        0.18840844        0.00834022
      51          0.012375        2.000000        0.16091947        0.00702159        0.14383914        0.00046895        0.00000991        0.00221069        0.55505927        0.00029742        0.12916330
      52          0.012444        2.000000        0.12229834        0.01438549        0.05947189        0.01253320        0.02078061        0.02064911        0.64679383        0.02003808        0.03385745
      53          0.012503        2.000000        0.09584410        0.00335817        0.04276658        0.00850700        0.00001512        0.00188833        0.28200497        0.00326385        0.56150588
      54          0.013704        2.000000        0.16785857        0.02774021        0.00823991        0.04811844        0.20639268        0.13075575        0.00400973        0.21643862        0.01819996
      55          0.014096        2.000000        0.07469407        0.00047748        0.02090803        0.00074724        0.00002455        0.00012270        0.25348178        0.00020971        0.64834020
      56          0.014313        2.000000        0.19676303        0.03681655        0.09884002        0.03370349        0.10128544        0.08104376        0.29453284        0.08034353        0.02265891
      57          0.015751        2.000000        0.34103274        0.16944745        0.08744040        0.13234964        0.00001481        0.07663509        0.02831945        0.06073668        0.10197525
      58          0.016108        2.000000        0.20982937        0.04674530        0.00458691        0.04670832        0.32573142        0.18377947        0.00045403        0.18158450        0.00000093
      59          0.016884        2.000000        0.32832796        0.11548891        0.09432290        0.15246200        0.01355891        0.06314797        0.09199633        0.08154628        0.05660627
      60          0.017832        2.000000        0.33483375        0.00262180        0.08493910        0.28894773        0.02117266        0.01212620        0.01726001        0.17477150        0.06240766
      61          0.017923        2.000000        0.33540756        0.28871259        0.08453175        0.00289511        0.02315695        0.17337226        0.01688472        0.01342503        0.06114611
      62          0.018262        2.000000        0.10748617        0.01431698        0.03981225        0.01405289        0.06490599        0.03758597        0.18393131        0.03965722        0.43969750
      63          0.018559        2.000000        0.12917336        0.01730641        0.05041681        0.01723991        0.08872649        0.05088419        0.20972442        0.05064210        0.30263359
      64          0.018992        2.000000        0.00078758        0.00026251        0.00001829        0.00026687        0.99729376        0.00060758        0.00000134        0.00060976        0.00000005
      65          0.019490        2.000000        0.02780902        0.00591659        0.00135113        0.00878129        0.03997401        0.02594348        0.00020742        0.88856792        0.00024443
      66          0.019562        2.000000        0.03485150        0.00975465        0.00165108        0.00765872        0.05190784        0.85836487        0.00033284        0.03335219        0.00020513
      67          0.020375        2.000000        0.07816239        0.00082132        0.03896120        0.00064761        0.00010257        0.00048021        0.24768971        0.00035548        0.63184393
      68          0.020736        2.000000        0.00073379        0.00035947        0.00003198        0.00036497        0.99590998        0.00107027        0.00000402        0.00089470        0.00000652
      69          0.020942        2.000000        0.16002790        0.05691645        0.01528459        0.03500740        0.21005987        0.36105725        0.00174001        0.12652002        0.01020310
      70          0.021225        2.000000        0.16336370        0.03768449        0.01402130        0.05690451        0.21883940        0.13063433        0.00148154        0.33933143        0.01152225
      71          0.022973        2.000000        0.01362425        0.00164255        0.00249623        0.01879258        0.01289898        0.00424130        0.00072597        0.94196517        0.00086393
      72          0.023015        2.000000        0.00880241        0.01667254        0.00184594        0.00084197        0.00659905        0.96068814        0.00037332        0.00214089        0.00057116
      73          0.023937        2.000000        0.19019752        0.02643196        0.06713891        0.02578515        0.11811088        0.07637088        0.29843015        0.07834331        0.09457721
      74          0.024086        2.000000        0.00054273        0.00047689        0.00001875        0.00050668        0.99634030        0.00058632        0.00000158        0.00058983        0.00000022
      75          0.025809        2.000000        0.20000840        0.06843204        0.00577127        0.06838322        0.38234324        0.13759266        0.00138906        0.13542564        0.00000078
      76          0.025905        2.000000        0.30323333        0.22119757        0.11316967        0.00406154        0.00554238        0.21848237        0.04720651        0.00792993        0.06605452
      77          0.026179        2.000000        0.30258194        0.00164021        0.11274497        0.22395727        0.01087321        0.00635908        0.03791368        0.23350980        0.05491901
      78          0.026462        2.000000        0.10892459        0.03029880        0.04793601        0.02280835        0.08376259        0.04254832        0.12662555        0.03438792        0.50149663
      79          0.026505        2.000000        0.13244603        0.02992256        0.04861921        0.03811383        0.10650825        0.04337754        0.13755125        0.05327261        0.40831679
      80          0.028124        2.000000        0.30740268        0.23977333        0.11116833        0.00144821        0.01091221        0.28377752        0.00873981        0.00390593        0.02995064
      81          0.028127        2.000000        0.30523930        0.00307649        0.10858334        0.23472092        0.02201284        0.00826248        0.00922051        0.27698857        0.03072026
      82          0.028837        2.000000        0.02018934        0.00413096        0.00368002        0.03518593        0.02501382        0.00434004        0.00131795        0.90015885        0.00197569
      83          0.028863        2.000000        0.01728196        0.03401083        0.00351850        0.00323321        0.02004301        0.91274259        0.00101353        0.00336391        0.00153461
      84          0.029159        2.000000        0.00322046        0.00178044        0.00008845        0.00181495        0.98787687        0.00208740        0.00002511        0.00188112        0.00000242
      85          0.030203        2.000000        0.15965347        0.05665224        0.01299066        0.05283373        0.29213339        0.20019372        0.00417094        0.12299550        0.00145470
      86          0.031633        2.000000        0.08771762        0.01576850        0.07219172        0.01647902        0.00610574        0.01675760        0.15350191        0.01792778        0.59971020
      87          0.032012        2.000000        0.15349107        0.05701044        0.01107304        0.06683923        0.27506194        0.09994373        0.00158131        0.30179476        0.00835408
      88          0.034966        2.000000        0.10663877        0.03361193        0.06898247        0.02345809        0.01820891        0.04392415        0.12112262        0.02606860        0.45484937
      89          0.035048        2.000000        0.06676650        0.03090142        0.00141920        0.03095950        0.81492849        0.02610552        0.00137818        0.02539737        0.00000101
      90          0.035429        2.000000        0.26816438        0.08506817        0.12285745        0.09168422        0.00008401        0.19405391        0.00532503        0.21480674        0.01594767
      91          0.035430        2.000000        0.03571261        0.00392982        0.06947367        0.00706652        0.01287115        0.00240749        0.08694659        0.00896074        0.76760900
      92          0.035775        2.000000        0.14123495        0.06660845        0.00241636        0.06657866        0.64077984        0.03990393        0.00313996        0.03915097        0.00000023
      93          0.036325        2.000000        0.19355352        0.09161613        0.00798478        0.09191139        0.38934853        0.05702839        0.00956075        0.05950901        0.05528650
      94          0.037077        2.000000        0.01908343        0.04937609        0.00573216        0.00389386        0.01944852        0.86938970        0.00078241        0.00117792        0.00098548
      95          0.037088        2.000000        0.25363662        0.16776243        0.11551396        0.00110141        0.01104738        0.43419578        0.00429397        0.00140774        0.00931659
      96          0.037122        2.000000        0.25386115        0.00108856        0.11566800        0.16834730        0.01122461        0.00143958        0.00460433        0.43017814        0.01049317
      97          0.037321        2.000000        0.05315073        0.01616763        0.00969648        0.06186936        0.08178290        0.00413523        0.00389857        0.75989724        0.00362513
      98          0.037471        2.000000        0.23363388        0.07792504        0.11475926        0.06906884        0.01748720        0.21318598        0.01797945        0.19507588        0.05021641
      99          0.041155        2.000000        0.10848198        0.05403085        0.02359330        0.03249121        0.19693570        0.12007369        0.02130379        0.00006729        0.00665922
     100          0.041821        2.000000        0.06686320        0.02108810        0.08622303        0.01350492        0.00436544        0.06880120        0.07415175        0.04018480        0.57840047
     101          0.042150        2.000000        0.00029344        0.00142193        0.00002369        0.00155449        0.99059027        0.00163672        0.00001052        0.00180412        0.00000149
     102          0.042654        2.000000        0.00763162        0.00029489        0.08677793        0.00018796        0.00000409        0.00101010        0.02976768        0.00068061        0.87350385
     103          0.042904        2.000000        0.19163418        0.00702228        0.09494638        0.09765507        0.04869954        0.00043999        0.00753283        0.53088734        0.01975203
     104          0.043129        2.000000        0.18919574        0.09415807        0.07950296        0.01766659        0.12050389        0.44340563        0.01007768        0.00116620        0.01594503
     105          0.043911        2.000000        0.19815023        0.04550242        0.10895329        0.05956647        0.00052043        0.22544901        0.03169525        0.29875201        0.02973230
     106          0.044084        2.000000        0.07678293        0.04785991        0.00910810        0.02426250        0.21533937        0.52142261        0.02152991        0.05924282        0.00543961
     107          0.044178        2.000000        0.06752500        0.02125942        0.00718100        0.04817510        0.18438217        0.05207885        0.01696211        0.57878787        0.00525107
     108          0.045278        2.000000        0.03724300        0.08977547        0.02389599        0.00335406        0.00013423        0.08458826        0.54550469        0.01762483        0.19742927
     109          0.045480        2.000000        0.06129947        0.01184459        0.03930442        0.07889272        0.00096967        0.05106210        0.44078927        0.12173575        0.19055488
     110          0.046030        2.000000        0.05953649        0.02927121        0.04721435        0.04117595        0.00328591        0.11302896        0.31208495        0.06988328        0.29689682
     111          0.047376        2.000000        0.00143614        0.00026519        0.00075713        0.09016838        0.00290379        0.00015741        0.65858112        0.01821138        0.22697383
     112          0.047537        2.000000        0.02529081        0.05609817        0.01408634        0.01643706        0.00162971        0.11914130        0.51923028        0.03468934        0.21265632
     113          0.047541        2.000000        0.11464006        0.05146823        0.06876992        0.00307022        0.01671100        0.60538405        0.06794004        0.00908950        0.06223777
     114          0.047570        2.000000        0.00124326        0.09035202        0.00104173        0.00005574        0.00017023        0.01522009        0.66124131        0.00001985        0.22896249
     115          0.047574        2.000000        0.12554575        0.00216934        0.07504245        0.05025004        0.01840928        0.00726053        0.03510667        0.63220498        0.05365953
     116          0.047969        2.000000        0.01305593        0.01702077        0.00686080        0.05366671        0.00496086        0.02000506        0.55264819        0.09258709        0.23397015
     117          0.049001        2.000000        0.05485878        0.01967517        0.00806761        0.03541432        0.16375875        0.01497066        0.02076535        0.64837364        0.01843526
     118          0.049405        2.000000        0.00026636        0.00223700        0.00001248        0.00247326        0.97989598        0.00540225        0.00003493        0.00649999        0.00000050
     119          0.049780        2.000000        0.12312058        0.02539306        0.08314509        0.03122359        0.00001840        0.25848827        0.10883968        0.28660873        0.08209287
     120          0.050004        2.000000        0.12531582        0.02835635        0.08423235        0.02485717        0.00140474        0.30538872        0.07526531        0.25103603        0.10378949
     121          0.050098        2.000000        0.00269757        0.00016898        0.00118637        0.00885818        0.00681595        0.00057006        0.01374948        0.95946716        0.00642660
     122          0.050368        2.000000        0.00231784        0.01485513        0.00116294        0.00003401        0.00543647        0.90670974        0.04836044        0.00006081        0.02039551
     123          0.050466        2.000000        0.00697077        0.00011358        0.00539438        0.07512172        0.00292773        0.00086095        0.55844635        0.12913947        0.22001784
     124          0.050528        2.000000        0.02207784        0.01559450        0.00972861        0.00381444        0.05040417        0.78529021        0.00454704        0.00444915        0.01785342
     125          0.050644        2.000000        0.00582328        0.06896884        0.00403151        0.00021880        0.00446193        0.19962935        0.51098956        0.00145709        0.20242166
     126          0.051661        2.000000        0.02308501        0.02943137        0.01226251        0.01659143        0.00005520        0.15318542        0.43195501        0.09564810        0.23744839
     127          0.052072        2.000000        0.02731078        0.01350067        0.01757088        0.02312881        0.00296687        0.09185461        0.35208292        0.18420389        0.28440375
     128          0.052232        2.000000        0.06236841        0.00193337        0.03927772        0.02140847        0.01522510        0.00247329        0.13791359        0.58946195        0.12982906
     129          0.052327        2.000000        0.05912705        0.02068203        0.03824897        0.00139440        0.01240201        0.60682253        0.13361461        0.00182184        0.12578950
     130          0.052386        2.000000        0.03146150        0.03833633        0.02015035        0.00371883        0.04129406        0.72796859        0.03848546        0.02287012        0.05020103
     131          0.052512        2.000000        0.00001976        0.00210737        0.00001359        0.00002380        0.00964144        0.98299294        0.00001941        0.00516625        0.00001039
     132          0.052571        2.000000        0.02500238        0.00330799        0.01456005        0.03689178        0.04001293        0.02105192        0.02302000        0.76124000        0.04156482
     133          0.052658        2.000000        0.00001041        0.00001633        0.00000555        0.00213258        0.01000124        0.00531334        0.00000919        0.98250308        0.00000595
     134          0.052989        2.000000        0.02516821        0.00933091        0.00292602        0.03013732        0.09474675        0.01435463        0.08600918        0.67022732        0.05365938
     135          0.054285        2.000000        0.01982956        0.03593106        0.00263544        0.00676242        0.07847785        0.55336982        0.11170207        0.01387970        0.07232893
     136          0.054425        2.000000        0.00011215        0.00822816        0.00002508        0.00008815        0.03633420        0.95216950        0.00009433        0.00289678        0.00002863
     137          0.054632        2.000000        0.00010464        0.00007610        0.00002349        0.00828776        0.03883428        0.00246359        0.00007846        0.95009975        0.00001576
     138          0.055156        2.000000        0.02081799        0.00447787        0.00906019        0.02392172        0.08730380        0.03618087        0.01471379        0.73883587        0.03534406
     139          0.055244        2.000000        0.03160152        0.01243132        0.03035972        0.00781267        0.03191807        0.29400480        0.07817408        0.09658099        0.37526116
     140          0.055253        2.000000        0.02139047        0.01892800        0.01516223        0.00487103        0.06773890        0.61951235        0.03448421        0.05062432        0.14411583
     141          0.056039        2.000000        0.08156885        0.04887017        0.07651031        0.00009053        0.00014599        0.48190703        0.17636541        0.00429552        0.11934648
     142          0.056335        2.000000        0.00000499        0.00602297        0.00000269        0.00573550        0.69691713        0.15506729        0.00001170        0.13413903        0.00001002
     143          0.056379        2.000000        0.07725287        0.00018559        0.07746402        0.05413925        0.00004697        0.00116124        0.20245060        0.45930119        0.12056380
     144          0.057275        2.000000        0.00001983        0.01207492        0.00003365        0.00611040        0.09827854        0.60530685        0.00004228        0.27794810        0.00007817