SIESTA 1.3.7  -- [1.3f1 release] (04 Feb 2004)
Architecture  : 
Compiler flags:  -O3  -g -traceback
PARALLEL version

* Running on    2 nodes in parallel
>> Start of run:   2-DEC-2013  14:25:30

                           ***********************       
                           *  WELCOME TO SIESTA  *       
                           ***********************       

reinit: Reading from standard input
************************** Dump of input data file ****************************
#
SystemName                   mol            # Descriptive name of the system
SystemLabel                  mol            # Short name for naming files
NumberOfSpecies              1             # Number of species
NumberOfAtoms                2           # Number of atoms
%block ChemicalSpeciesLabel
 1    1   H
%endblock ChemicalSpeciesLabel
# ps
%block Ps.lmax
  H     3
%endblock Ps.lmax
# Basis
PAO.BasisType                split         # Type of basis ('nones', 'nonodes', 'split')
PAO.SplitNorm  0.15
%block PAO.Basis                           # basis
H     2      0.00
 n=1    0    2   E      2.07      0.50
   5.75  1.5
   1.000   1.000
 n=2    1    1   E      0.89      0.01
   5.500
   1.000
%endblock PAO.Basis
# lattice vectors
LatticeConstant              1.0 Ang
%block LatticeVectors
         8.86712000        0.00000000        0.00000000
         0.00000        8.86712000        0.00000000
         0.00000000        0.00000000       38.72
%endblock LatticeVectors
# coordinates
AtomicCoordinatesFormat      Ang
%block AtomicCoordinatesAndAtomicSpecies
    3.25353201    5.72009504   18.92650888   1  H          1
    3.25943356    5.72541265   19.67644339   1  H          2
%endblock AtomicCoordinatesAndAtomicSpecies
# constrains in relaxation
%block GeometryConstraints
   position 1
%endblock GeometryConstraints
# real space mesh grid
MeshCutoff                   200.0 Ry
# reciprocal space
%block kgrid_Monkhorst_Pack
  1   0   0    0.0
  0   1   0    0.0
  0   0   1    0.0
%endblock kgrid_Monkhorst_Pack
#ProcessorY                   4
#BlockSize                    100
%block ExternalElectricField
   0.000 0.000 0.0 V/Ang
%endblock ExternalElectricField
# functional
xc.functional                GGA           # 'LDA', 'GGA'
xc.authors                   PBE           # 'CA'='PZ', 'PW92', 'PBE'
# scf
MaxSCFIterations             300
DM.MixingWeight              0.02
DM.Tolerance                 1.0E-4
DM.UseSaveDM                 T
DM.NumberPulay               6             # Pulay convergency accelerator
SolutionMethod               diagon
ElectronicTemperature        300 K         # Default value
# MD options
MD.TypeOfRun                 cg            # Type of dynamics:
MD.VariableCell              false         # if vary cell
MD.NumCGsteps                0             # Number of CG steps for relaxation
MD.MaxCGDispl                0.08 Ang     # Maximum atomic displacement at one step
MD.MaxForceTol               0.01 eV/Ang   # Tolerance in the maximum force min(fx, fy, fz)
MD.MaxStressTol              0.1 Gpa
COOP.write T
MD.FCDispl                 0.02 ang
MD.FCIR                    T
MD.FCEigenVectors          T
MD.FCRead                  F
MD.FCAtomRestart           46
MD.FCAxisRestart           1
#Siesta Output Flags
SaveHS                       T           # Hamiltonian and overlap in sparse
SaveRHO                      T
WriteMullikenPop             1
WriteForces                  T
WriteCoorStep                T
SaveElectrostaticPotential   T             # Hartree Potential file
#WriteWaveFunctions  T
************************** End of input data file *****************************

reinit: -----------------------------------------------------------------------
reinit: System Name: mol                                                        
reinit: -----------------------------------------------------------------------
reinit: System Label: mol                 
reinit: -----------------------------------------------------------------------

initatom: Reading input for the pseudopotentials and atomic orbitals ----------
 Species number:            1  Label: H Atomic number:           1
Ground state valence configuration:   1s01
Reading pseudopotential information in formatted form from H.psf
relmxkb: Read Max KB Ang. Momentum=    3 for species H

<basis_specs>
===============================================================================
H                    Z=   1    Mass=  1.0100        Charge=  0.0000    
Lmxo=1 Lmxkb=3     BasisType=split      Semic=F
L=0  Nsemic=0  Cnfigmx=1
          n=1  nzeta=2  polorb=0
               vcte:    2.0700    
               rinn:   0.50000    
                rcs:    5.7500      1.5000    
            lambdas:    1.0000      1.0000    
L=1  Nsemic=0  Cnfigmx=2
          n=1  nzeta=1  polorb=0
               vcte:   0.89000    
               rinn:   0.10000E-01
                rcs:    5.5000    
            lambdas:    1.0000    
-------------------------------------------------------------------------------
L=0  Nkbl=1  erefs: 0.17977+309
L=1  Nkbl=1  erefs: 0.17977+309
L=2  Nkbl=1  erefs: 0.17977+309
L=3  Nkbl=1  erefs: 0.17977+309
===============================================================================
</basis_specs>

atom: Called for H   (Z =   1)

read_vps: Pseudopotential generation method:
read_vps: ATM3      Troullier-Martins                       

read_vps: Valence configuration (pseudopotential and basis set generation):
1s( 1.00) rc: 1.89
2p( 0.00) rc: 1.80
3d( 0.00) rc: 1.49
4f( 0.00) rc: 1.49
read_vps: Spin-orbit interaction is not included in this calculation
Total valence charge:    1.00000

xc_check: Exchange-correlation functional:
xc_check: GGA Perdew, Burke & Ernzerhof 1996
V l=0 = -2*Zval/r beyond r=  1.8658
V l=1 = -2*Zval/r beyond r=  1.7970
V l=2 = -2*Zval/r beyond r=  1.8196
V l=3 = -2*Zval/r beyond r=  1.8196
All V_l potentials equal beyond r=  1.8658
This should be close to max(r_c) in ps generation
All pots = -2*Zval/r beyond r=  1.8658

VLOCAL1: 99.0% of the norm of Vloc inside     12.470 Ry
VLOCAL1: 99.9% of the norm of Vloc inside     28.418 Ry
atom: Maximum radius for 4*pi*r*r*local-pseudopot. charge    2.16811
atom: Maximum radius for r*vlocal+2*Zval:    1.84256
GHOST: No ghost state for L =  0
GHOST: No ghost state for L =  1
GHOST: No ghost state for L =  2
GHOST: No ghost state for L =  3

KBgen: Kleinman-Bylander projectors: 
   l= 0   rc=  2.011274   el= -0.477200   Ekb= -1.572097   kbcos= -0.493163
   l= 1   rc=  2.141150   el=  0.001076   Ekb= -0.356432   kbcos= -0.050277
   l= 2   rc=  2.195416   el=  0.002010   Ekb= -0.177656   kbcos= -0.007774
   l= 3   rc=  2.251056   el=  0.003122   Ekb= -0.068270   kbcos= -0.002268

KBgen: Total number of  Kleinman-Bylander projectors:   16
atom: -------------------------------------------------------------------------

atom: SANKEY-TYPE ORBITALS:
atom: Selected multiple-zeta basis: split     

SPLIT: Orbitals with angular momentum L= 0

SPLIT: Basis orbitals for state 1s

   izeta = 1
                 lambda =    1.000000
                     rc =    5.752124
                 energy =   -0.469599
                kinetic =    0.919264
    potential(screened) =   -1.388863
       potential(ionic) =   -1.911599

   izeta = 2
                 rmatch =    1.527112
              splitnorm =    0.807394
                 energy =    2.126033
                kinetic =    5.261681
    potential(screened) =   -3.135649
       potential(ionic) =   -3.696632

SPLIT: Orbitals with angular momentum L= 1

SPLIT: Basis orbitals for state 2p

   izeta = 1
                 lambda =    1.000000
                     rc =    5.471469
                 energy =    0.371359
                kinetic =    0.737398
    potential(screened) =   -0.366040
       potential(ionic) =   -0.791603
atom: Total number of Sankey-type orbitals:  5

atm_pop: Valence configuration(local Pseudopot. screening):
 1s( 1.00)                                                            
 2p( 0.00)                                                            
Vna: chval, zval:    1.00000   1.00000

Vna:  Cut-off radius for the neutral-atom potential:   5.752124

atom: _________________________________________________________________________

prinput: Basis input ----------------------------------------------------------

PAO.BasisType split     

%block ChemicalSpeciesLabel
    1    1 H                       # Species index, atomic number, species label
%endblock ChemicalSpeciesLabel

%block PAO.Basis                 # Define Basis set
H           2                    # Species label, number of l-shells
 n=1   0   2                         # n, l, Nzeta 
   5.752      1.527   
   1.000      1.000   
 n=2   1   1                         # n, l, Nzeta 
   5.471   
   1.000   
%endblock PAO.Basis

prinput: ----------------------------------------------------------------------


siesta: ******************** Simulation parameters ****************************
siesta:
siesta: The following are some of the parameters of the simulation.
siesta: A complete list of the parameters used, including defect values,
siesta: can be found in file out.fdf
siesta:
coor:   Atomic-coordinates input format  =     Cartesian coordinates
coor:                                          (in Angstroms)
redata: Number of spin components        =     1
redata: SpinOrbit                        =     0
redata: Long output                      =     F
redata: Number of Atomic Species         =     1
redata: Charge density info will appear in .RHO file
redata: Write Mulliken Pop.              =     Atomic and Orbital charges
redata: Mesh Cutoff                      =   200.0000  Ry
redata: Net charge of the system         =     0.0000 |e|
redata: Max. number of SCF Iter          =   300
redata: One Pulay mixing every           =     6 iterations
redata: Mix DM in first SCF step ?       =     F
redata: Write Pulay info on disk?        =     F
redata: New DM Mixing Weight             =     0.0200
redata: No kicks to SCF
redata: DM Mixing Weight for Kicks       =     0.5000
redata: DM Tolerance for SCF             =     0.000100
redata: Use continuation files for DM    =     T
redata: Neglect nonoverlap interactions  =     F
redata: Method of Calculation            =     Diagonalization
redata: Divide and Conquer               =     F
redata: Electronic Temperature           =     0.0019  Ry
redata: Fix the spin of the system       =     F
redata: Dynamics option                  =     CG coord. optimization
redata: Variable cell                    =     F
redata: Use continuation files for CG    =     F
redata: Maximum number of CG moves       =     0
redata: Max atomic displ per move        =     0.1512  Bohr
redata: Force tolerance                  =     0.0004  Ry/Bohr
redata: ***********************************************************************

siesta: Atomic coordinates (Bohr) and species
siesta:      6.14829  10.80942  35.76593  1        1
siesta:      6.15944  10.81947  37.18310  1        2

initatomlists: Number of atoms, orbitals, and projectors:      2    10    32

siesta: System type = molecule  
 Nodes, Orbitals           2          10
 blocksizedefault           4

* ProcessorY, Blocksize:    1   4

 Using EM.ParallelOverKNum =           1
 label:           1 H                              1 s      
 label:           2 H                              1 s      
 label:           3 H                              1 py     
 label:           4 H                              1 pz     
 label:           5 H                              1 px     
 label:           6 H                              2 s      
 label:           7 H                              2 s      
 label:           8 H                              2 py     
 label:           9 H                              2 pz     
 label:          10 H                              2 px     
 
* Maximum dynamic memory allocated =     1 MB

siesta:                 ==============================
                            Begin CG move =      0
                        ==============================

outcoor: Atomic coordinates (Ang):                          
    3.25353201    5.72009504   18.92650888   1  H          1
    3.25943356    5.72541265   19.67644339   1  H          2

read_ldau The LDA+U method used is from Czyzky PRB 49 14211

iodm: Reading Density Matrix from files

mol.DM                           

InitMesh: MESH =    80 x    80 x   360 =     2304000
InitMesh: Mesh cutoff (required, used) =   200.000   224.966 Ry
 
* Maximum dynamic memory allocated =    68 MB

stepf: Fermi-Dirac step function

siesta: Program's energy decomposition (eV):
siesta: Eions   =        26.074526
siesta: Ena     =         4.296173
siesta: Ekin    =        26.391330
siesta: Enl     =       -17.162833
siesta: DEna    =        -1.459885
siesta: DUscf   =         0.252088
siesta: DUext   =         0.000000
siesta: Exc     =       -17.578227
siesta: eta*DQ  =         0.000000
siesta: Emadel  =         0.000000
siesta: Eharris =       -31.335881
siesta: Eso     =         0.000000
siesta: Etot    =       -31.335881
siesta: FreeEng =       -31.335881

siesta: iscf   Eharris(eV)      E_KS(eV)   FreeEng(eV)     dDmax   Ef(eV)
siesta:    1      -31.3359      -31.3359      -31.3359   0.00000  -4.8933
timer: Routine,Calls,Time,% = IterSCF        1       3.426  80.24

siesta: E_KS(eV) =              -31.3359

siesta: E_KS - E_eggbox =       -31.3359

siesta: Atomic forces (eV/Ang):
     1    0.000294   -0.000274    0.000427
     2    0.000131   -0.000256   -0.001403
----------------------------------------
 Tot    0.000425   -0.000530   -0.000976
----------------------------------------
 Max    0.001403
 Res    0.000632    sqrt( Sum f_i^2 / 3N )
----------------------------------------
 Max    0.001403    constrained
 
mulliken: Atomic and Orbital Populations:

Species: H                   
Atom  Qatom  Qorb
               1s      1s      2py     2pz     2px     
   1  1.000   0.903   0.083   0.000   0.014   0.000
   2  1.000   0.903   0.083   0.000   0.014   0.000

mulliken: Qtot =    2.000
 
* Maximum dynamic memory allocated =    68 MB

Save Hamiltonian matrix and wave function for COOP/COHP


siesta: Eigenvalues (eV):
  ik is    eps
   1  1 -11.09   1.51   4.21   4.21   9.78  10.89  10.89  17.66  43.45  89.89
siesta: Fermi energy =      -4.893323 eV

siesta: Program's energy decomposition (eV):
siesta:-Eions   =     -26.074526
siesta: Ena     =       4.296173
siesta: Ekin    =      26.391330
siesta: Enl     =     -17.162833
siesta: DEna    =      -1.459885
siesta: DUscf   =       0.252088
siesta: DUext   =       0.000000
siesta: Exc     =     -17.578227
siesta: eta*DQ  =       0.000000
siesta: Emadel  =       0.000000
siesta: Ekinion =       0.000000
siesta: Eharris =     -31.335881
siesta: Eso     =       0.000000
siesta: Etot    =     -31.335881
siesta: FreeEng =     -31.335881

siesta: Final energy (eV):
siesta:       Kinetic =      26.391330
siesta:       Hartree =      35.543478
siesta:    Ext. field =       0.000000
siesta:   Exch.-corr. =     -17.578227
siesta:  Ion-electron =     -97.073834
siesta:       Ion-ion =      21.381372
siesta:       Ekinion =       0.000000
siesta:         Total =     -31.335881

siesta: Stress tensor (static) (eV/Ang**3):
siesta:     0.000000    0.000000    0.000000
siesta:     0.000000    0.000000    0.000000
siesta:     0.000000    0.000000    0.000000

siesta: Cell volume =       3044.391638 Ang**3

siesta: Pressure (static):
siesta:                Solid            Molecule  Units
siesta:           0.00000000          0.00000000  Ry/Bohr**3
siesta:          -0.00000036         -0.00000028  eV/Ang**3
siesta:          -0.00057662         -0.00045615  kBar

siesta: Total spin polarization (Qup-Qdown) =    0.000000
siesta: Spin vector =    0.000000    0.000000    0.000000
siesta: No SpinPolK block detected...

siesta: Electric dipole (a.u.)  =    0.000004   -0.000004    0.000000
siesta: Electric dipole (Debye) =    0.000010   -0.000011    0.000000
 
* Maximum dynamic memory allocated : Node    0 =    69 MB
* Maximum dynamic memory allocated : Node    1 =    68 MB
* Maximum memory occured during redistribXZ                   

timer: CPU execution times:
timer:  Routine       Calls   Time/call    Tot.time        %
timer:  siesta            1       9.018       9.018    99.99
timer:  Setup             1       0.779       0.779     8.64
timer:  bands             1       0.000       0.000     0.00
timer:  writewave         2       0.005       0.011     0.12
timer:  KSV_init          1       0.002       0.002     0.02
timer:  IterMD            1       5.422       5.422    60.12
timer:  hsparse           2       0.000       0.000     0.00
timer:  overfsm           2       0.023       0.047     0.52
timer:  IterSCF           2       2.666       5.332    59.12
timer:  kinefsm           2       0.013       0.026     0.29
timer:  nlefsm            2       0.191       0.382     4.24
timer:  DHSCF             3       2.537       7.612    84.40
timer:  DHSCF1            1       0.536       0.536     5.94
timer:  DHSCF2            1       0.822       0.822     9.11
timer:  REORD            42       0.008       0.339     3.76
timer:  POISON            4       0.643       2.572    28.51
timer:  DHSCF3            3       2.011       6.032    66.88
timer:  rhoofd            3       0.028       0.084     0.93
timer:  CELLXC            3       0.469       1.407    15.60
timer:  vmat              2       0.012       0.024     0.27
timer:  diagon            1       0.024       0.024     0.27
timer:  rdiag             2       0.015       0.030     0.33
timer:  DHSCF4            1       0.206       0.206     2.28
timer:  dfscf             1       0.170       0.170     1.88
  
>> End of run:   2-DEC-2013  14:25:36
