SIESTA 1.3.7  -- [1.3f1 release] (04 Feb 2004)
Architecture  : 
Compiler flags:  -O3
PARALLEL version

* Running on    4 nodes in parallel
>> Start of run:   5-OCT-2013   3:38:19

                           ***********************       
                           *  WELCOME TO SIESTA  *       
                           ***********************       

reinit: Reading from standard input
************************** Dump of input data file ****************************
#
SystemName                   mol            # Descriptive name of the system
SystemLabel                  mol            # Short name for naming files
NumberOfSpecies              1             # Number of species
NumberOfAtoms                2           # Number of atoms
%block ChemicalSpeciesLabel
 1    1   H
%endblock ChemicalSpeciesLabel
# ps
%block Ps.lmax
  H     3
%endblock Ps.lmax
# Basis
PAO.BasisType                split         # Type of basis ('nones', 'nonodes', 'split')
PAO.SplitNorm  0.15
%block PAO.Basis                           # basis
H     2      0.00
 n=1    0    2   E      2.07      0.50
   5.75  1.5
   1.000   1.000
 n=2    1    1   E      0.89      0.01
   5.500
   1.000
%endblock PAO.Basis
# lattice vectors
LatticeConstant              1.0 Ang
%block LatticeVectors
         20.00000        0.00000000       0.00000000
         0.00000        20.0000000        0.00000000
         0.00000000      0.00000000      20.0000
%endblock LatticeVectors
# coordinates
AtomicCoordinatesFormat      Ang
%block AtomicCoordinatesAndAtomicSpecies
    0.00000000    0.00000000   -0.00998254   1  H          1
    0.00000000    0.00000000    0.73998166   1  H          2
%endblock AtomicCoordinatesAndAtomicSpecies
# constrains in relaxation
#%block GeometryConstraints
#   position   from  1 to  54
#   position   from  -1 to  -45
#%endblock GeometryConstraints
# real space mesh grid
MeshCutoff                   800.0 Ry
%block GridCellSampling
  0.5  0.5   0.0
  0.5  0.0   0.5
  0.0  0.5   0.5
%endblock GridCellSampling
# reciprocal space
%block kgrid_Monkhorst_Pack
  1   0   0    0.0
  0   1   0    0.0
  0   0   1    0.0
%endblock kgrid_Monkhorst_Pack
#ProcessorY                   4
#BlockSize                    100
%block ExternalElectricField
   0.000 0.000 0.000 V/Ang
%endblock ExternalElectricField
# functional
xc.functional                GGA           # 'LDA', 'GGA'
xc.authors                   PBE           # 'CA'='PZ', 'PW92', 'PBE'
# scf
MaxSCFIterations             300
DM.MixingWeight              0.02
DM.Tolerance                 2.0E-5
DM.UseSaveDM                 T
DM.NumberPulay               6             # Pulay convergency accelerator
SolutionMethod               diagon
ElectronicTemperature        300 K         # Default value
# MD options
MD.TypeOfRun                 fc            # Type of dynamics:
MD.VariableCell              false         # if vary cell
MD.NumCGsteps                300             # Number of CG steps for relaxation
MD.MaxCGDispl                0.08 Ang     # Maximum atomic displacement at one step
MD.MaxForceTol               0.01 eV/Ang   # Tolerance in the maximum force min(fx, fy, fz)
MD.MaxStressTol              0.1 Gpa
MD.FCDispl                 0.02 ang
MD.FCIR                    T
MD.FCEigenVectors          T
MD.FCRead                  F
MD.FCAtomRestart           46
MD.FCAxisRestart           1
MD.InitialTimeStep         1
MD.FinalTimeStep           10
MD.LengthTimeStep          1.0 fs
MD.InitialTemperature      100.0 K
MD.TargetTemperature       100.0 K
#MD.TargetPressure          3.0 Gpa
#Siesta Output Flags
SaveHS                       F           # Hamiltonian and overlap in sparse
SaveRHO                      F
WriteMullikenPop             1
WriteForces                  T
WriteCoorStep                T
SaveElectrostaticPotential   T             # Hartree Potential file
************************** End of input data file *****************************

reinit: -----------------------------------------------------------------------
reinit: System Name: mol                                                        
reinit: -----------------------------------------------------------------------
reinit: System Label: mol                 
reinit: -----------------------------------------------------------------------

initatom: Reading input for the pseudopotentials and atomic orbitals ----------
 Species number:            1  Label: H Atomic number:           1
Ground state valence configuration:   1s01
Reading pseudopotential information in formatted form from H.psf
relmxkb: Read Max KB Ang. Momentum=    3 for species H

<basis_specs>
===============================================================================
H                    Z=   1    Mass=  1.0100        Charge=  0.0000    
Lmxo=1 Lmxkb=3     BasisType=split      Semic=F
L=0  Nsemic=0  Cnfigmx=1
          n=1  nzeta=2  polorb=0
               vcte:    2.0700    
               rinn:   0.50000    
                rcs:    5.7500      1.5000    
            lambdas:    1.0000      1.0000    
L=1  Nsemic=0  Cnfigmx=2
          n=1  nzeta=1  polorb=0
               vcte:   0.89000    
               rinn:   0.10000E-01
                rcs:    5.5000    
            lambdas:    1.0000    
-------------------------------------------------------------------------------
L=0  Nkbl=1  erefs: 0.17977+309
L=1  Nkbl=1  erefs: 0.17977+309
L=2  Nkbl=1  erefs: 0.17977+309
L=3  Nkbl=1  erefs: 0.17977+309
===============================================================================
</basis_specs>

atom: Called for H   (Z =   1)

read_vps: Pseudopotential generation method:
read_vps: ATM3      Troullier-Martins                       

read_vps: Valence configuration (pseudopotential and basis set generation):
1s( 1.00) rc: 1.89
2p( 0.00) rc: 1.80
3d( 0.00) rc: 1.49
4f( 0.00) rc: 1.49
read_vps: Spin-orbit interaction is not included in this calculation
Total valence charge:    1.00000

xc_check: Exchange-correlation functional:
xc_check: GGA Perdew, Burke & Ernzerhof 1996
V l=0 = -2*Zval/r beyond r=  1.8658
V l=1 = -2*Zval/r beyond r=  1.7970
V l=2 = -2*Zval/r beyond r=  1.8196
V l=3 = -2*Zval/r beyond r=  1.8196
All V_l potentials equal beyond r=  1.8658
This should be close to max(r_c) in ps generation
All pots = -2*Zval/r beyond r=  1.8658

VLOCAL1: 99.0% of the norm of Vloc inside     12.470 Ry
VLOCAL1: 99.9% of the norm of Vloc inside     28.418 Ry
atom: Maximum radius for 4*pi*r*r*local-pseudopot. charge    2.16811
atom: Maximum radius for r*vlocal+2*Zval:    1.84256
GHOST: No ghost state for L =  0
GHOST: No ghost state for L =  1
GHOST: No ghost state for L =  2
GHOST: No ghost state for L =  3

KBgen: Kleinman-Bylander projectors: 
   l= 0   rc=  2.011274   el= -0.477200   Ekb= -1.572097   kbcos= -0.493163
   l= 1   rc=  2.141150   el=  0.001076   Ekb= -0.356432   kbcos= -0.050277
   l= 2   rc=  2.195416   el=  0.002010   Ekb= -0.177656   kbcos= -0.007774
   l= 3   rc=  2.251056   el=  0.003122   Ekb= -0.068270   kbcos= -0.002268

KBgen: Total number of  Kleinman-Bylander projectors:   16
atom: -------------------------------------------------------------------------

atom: SANKEY-TYPE ORBITALS:
atom: Selected multiple-zeta basis: split     

SPLIT: Orbitals with angular momentum L= 0

SPLIT: Basis orbitals for state 1s

   izeta = 1
                 lambda =    1.000000
                     rc =    5.752124
                 energy =   -0.469599
                kinetic =    0.919264
    potential(screened) =   -1.388863
       potential(ionic) =   -1.911599

   izeta = 2
                 rmatch =    1.527112
              splitnorm =    0.807394
                 energy =    2.126033
                kinetic =    5.261681
    potential(screened) =   -3.135649
       potential(ionic) =   -3.696632

SPLIT: Orbitals with angular momentum L= 1

SPLIT: Basis orbitals for state 2p

   izeta = 1
                 lambda =    1.000000
                     rc =    5.471469
                 energy =    0.371359
                kinetic =    0.737398
    potential(screened) =   -0.366040
       potential(ionic) =   -0.791603
atom: Total number of Sankey-type orbitals:  5

atm_pop: Valence configuration(local Pseudopot. screening):
 1s( 1.00)                                                            
 2p( 0.00)                                                            
Vna: chval, zval:    1.00000   1.00000

Vna:  Cut-off radius for the neutral-atom potential:   5.752124

atom: _________________________________________________________________________

prinput: Basis input ----------------------------------------------------------

PAO.BasisType split     

%block ChemicalSpeciesLabel
    1    1 H                       # Species index, atomic number, species label
%endblock ChemicalSpeciesLabel

%block PAO.Basis                 # Define Basis set
H           2                    # Species label, number of l-shells
 n=1   0   2                         # n, l, Nzeta 
   5.752      1.527   
   1.000      1.000   
 n=2   1   1                         # n, l, Nzeta 
   5.471   
   1.000   
%endblock PAO.Basis

prinput: ----------------------------------------------------------------------


siesta: ******************** Simulation parameters ****************************
siesta:
siesta: The following are some of the parameters of the simulation.
siesta: A complete list of the parameters used, including defect values,
siesta: can be found in file out.fdf
siesta:
coor:   Atomic-coordinates input format  =     Cartesian coordinates
coor:                                          (in Angstroms)
redata: Number of spin components        =     1
redata: SpinOrbit                        =     0
redata: Long output                      =     F
redata: Number of Atomic Species         =     1
redata: Charge density info will appear in .RHO file
redata: Write Mulliken Pop.              =     Atomic and Orbital charges
redata: Mesh Cutoff                      =   800.0000  Ry
redata: Net charge of the system         =     0.0000 |e|
redata: Max. number of SCF Iter          =   300
redata: One Pulay mixing every           =     6 iterations
redata: Mix DM in first SCF step ?       =     F
redata: Write Pulay info on disk?        =     F
redata: New DM Mixing Weight             =     0.0200
redata: No kicks to SCF
redata: DM Mixing Weight for Kicks       =     0.5000
redata: DM Tolerance for SCF             =     0.000020
redata: Use continuation files for DM    =     T
redata: Neglect nonoverlap interactions  =     F
redata: Method of Calculation            =     Diagonalization
redata: Divide and Conquer               =     F
redata: Electronic Temperature           =     0.0019  Ry
redata: Fix the spin of the system       =     F
redata: Dynamics option                  =     Force Constants Matrix Calculation
redata: Atomic displ for force constants =     0.0378  Bohr
redata: First atom to move               =      1
redata: Last atom to move                =      2
redata: Read previous FC                 =     F
redata: Acoustic sum rule                =     T
redata: Calculate Eigen Vectors          =     T
redata: Calculate Infrared Intensity     =     T
redata: ***********************************************************************

siesta: Atomic coordinates (Bohr) and species
siesta:      0.00000   0.00000  -0.01886  1        1
siesta:      0.00000   0.00000   1.39836  1        2

initatomlists: Number of atoms, orbitals, and projectors:      2    10    32

siesta: System type = molecule  
 Nodes, Orbitals           4          10
 blocksizedefault           2

* ProcessorY, Blocksize:    2   2

 Using EM.ParallelOverKNum =           1
 label:           1 H                              1 s      
 label:           2 H                              1 s      
 label:           3 H                              1 py     
 label:           4 H                              1 pz     
 label:           5 H                              1 px     
 label:           6 H                              2 s      
 label:           7 H                              2 s      
 label:           8 H                              2 py     
 label:           9 H                              2 pz     
 label:          10 H                              2 px     
 
* Maximum dynamic memory allocated =     1 MB

siesta:                 ==============================
                        Begin FC step =     0 of    12
                            Undisplaced coordinates
                        ==============================

outcoor: Atomic coordinates (Ang):                          
    0.00000000    0.00000000   -0.00998254   1  H          1
    0.00000000    0.00000000    0.73998166   1  H          2

read_ldau The LDA+U method used is from Czyzky PRB 49 14211

iodm: Reading Density Matrix from files

mol.DM                           

InitMesh: MESH =   360 x   360 x   360 =    46656000
InitMesh: Mesh cutoff (required, used) =   800.000   895.461 Ry
 
* Maximum dynamic memory allocated =   583 MB

stepf: Fermi-Dirac step function

siesta: Program's energy decomposition (eV):
siesta: Eions   =        26.074526
siesta: Ena     =         4.296329
siesta: Ekin    =        26.390811
siesta: Enl     =       -17.162485
siesta: DEna    =        -1.459766
siesta: DUscf   =         0.252034
siesta: DUext   =         0.000000
siesta: Exc     =       -17.578084
siesta: eta*DQ  =         0.000000
siesta: Emadel  =         0.000000
siesta: Eharris =       -31.335947
siesta: Eso     =         0.000000
siesta: Etot    =       -31.335688
siesta: FreeEng =       -31.335688

siesta: iscf   Eharris(eV)      E_KS(eV)   FreeEng(eV)     dDmax   Ef(eV)
siesta:    1      -31.3359      -31.3357      -31.3357   0.00002  -4.9011
timer: Routine,Calls,Time,% = IterSCF        1      74.832  96.64
grdsam: Reading %block GridCellSampling
grdsam: Grid-cell sampling, point   0
grdsam: Generating displacements for grid-cell sampling
grdsam: Grid-cell sampling, point   1
grdsam: Grid-cell sampling, point   2
grdsam: Grid-cell sampling, point   3

siesta: E_KS(eV) =              -31.3360

siesta: E_KS - E_eggbox =       -31.3360

siesta: Atomic forces (eV/Ang):
     1    0.000000    0.000000    0.000088
     2    0.000000    0.000000    0.000031
----------------------------------------
 Tot    0.000000    0.000000    0.000119
----------------------------------------
 Max    0.000088
 Res    0.000038    sqrt( Sum f_i^2 / 3N )
----------------------------------------
 Max    0.000088    constrained
 
mulliken: Atomic and Orbital Populations:

Species: H                   
Atom  Qatom  Qorb
               1s      1s      2py     2pz     2px     
   1  1.000   0.903   0.083   0.000   0.014   0.000
   2  1.000   0.903   0.083   0.000   0.014   0.000

mulliken: Qtot =    2.000
 
* Maximum dynamic memory allocated =   583 MB

siesta:                 ==============================
                        Begin FC step =     1 of    12
                            displace atom        1
                            in direction         1
                        by  -0.0378 Bohr =  -0.0200 Ang
                        ==============================

outcoor: Atomic coordinates (Ang):                          
   -0.02000000    0.00000000   -0.00998254   1  H          1
    0.00000000    0.00000000    0.73998166   1  H          2

siesta: iscf   Eharris(eV)      E_KS(eV)   FreeEng(eV)     dDmax   Ef(eV)
siesta:    1      -31.3359      -31.3359      -31.3359   0.00065  -4.8991
siesta:    2      -31.3359      -31.3359      -31.3359   0.00002  -4.9000
siesta:    3      -31.3359      -31.3359      -31.3359   0.00001  -4.9000
grdsam: Grid-cell sampling, point   0
grdsam: Grid-cell sampling, point   1
grdsam: Grid-cell sampling, point   2
grdsam: Grid-cell sampling, point   3

siesta: E_KS(eV) =              -31.3360

siesta: Atomic forces (eV/Ang):
     1    0.000307    0.000000    0.009425
     2   -0.000295    0.000000   -0.009416
----------------------------------------
 Tot    0.000012    0.000000    0.000009
----------------------------------------
 Max    0.009425
 Res    0.005442    sqrt( Sum f_i^2 / 3N )
----------------------------------------
 Max    0.009425    constrained
 
mulliken: Atomic and Orbital Populations:

Species: H                   
Atom  Qatom  Qorb
               1s      1s      2py     2pz     2px     
   1  1.000   0.903   0.083   0.000   0.014   0.000
   2  1.000   0.903   0.083   0.000   0.014   0.000

mulliken: Qtot =    2.000
 
* Maximum dynamic memory allocated =   584 MB

siesta:                 ==============================
                        Begin FC step =     2 of    12
                            displace atom        1
                            in direction         1
                        by   0.0378 Bohr =   0.0200 Ang
                        ==============================

outcoor: Atomic coordinates (Ang):                          
    0.02000000    0.00000000   -0.00998254   1  H          1
    0.00000000    0.00000000    0.73998166   1  H          2

siesta: iscf   Eharris(eV)      E_KS(eV)   FreeEng(eV)     dDmax   Ef(eV)
siesta:    1      -31.3359      -31.3359      -31.3359   0.00129  -4.9001
siesta:    2      -31.3359      -31.3359      -31.3359   0.00005  -4.8999
siesta:    3      -31.3359      -31.3359      -31.3359   0.00000  -4.8999
grdsam: Grid-cell sampling, point   0
grdsam: Grid-cell sampling, point   1
grdsam: Grid-cell sampling, point   2
grdsam: Grid-cell sampling, point   3

siesta: E_KS(eV) =              -31.3360

siesta: Atomic forces (eV/Ang):
     1   -0.000273    0.000000    0.009685
     2    0.000261    0.000000   -0.009676
----------------------------------------
 Tot   -0.000012    0.000000    0.000009
----------------------------------------
 Max    0.009685
 Res    0.005591    sqrt( Sum f_i^2 / 3N )
----------------------------------------
 Max    0.009685    constrained
 
mulliken: Atomic and Orbital Populations:

Species: H                   
Atom  Qatom  Qorb
               1s      1s      2py     2pz     2px     
   1  1.000   0.903   0.083   0.000   0.014   0.000
   2  1.000   0.903   0.083   0.000   0.014   0.000

mulliken: Qtot =    2.000
 
* Maximum dynamic memory allocated =   584 MB

siesta:                 ==============================
                        Begin FC step =     3 of    12
                            displace atom        1
                            in direction         2
                        by  -0.0378 Bohr =  -0.0200 Ang
                        ==============================

outcoor: Atomic coordinates (Ang):                          
    0.00000000   -0.02000000   -0.00998254   1  H          1
    0.00000000    0.00000000    0.73998166   1  H          2

siesta: iscf   Eharris(eV)      E_KS(eV)   FreeEng(eV)     dDmax   Ef(eV)
siesta:    1      -31.3359      -31.3359      -31.3359   0.00065  -4.8999
siesta:    2      -31.3359      -31.3359      -31.3359   0.00002  -4.8999
siesta:    3      -31.3359      -31.3359      -31.3359   0.00000  -4.8999
grdsam: Grid-cell sampling, point   0
grdsam: Grid-cell sampling, point   1
grdsam: Grid-cell sampling, point   2
grdsam: Grid-cell sampling, point   3

siesta: E_KS(eV) =              -31.3360

siesta: Atomic forces (eV/Ang):
     1    0.000000    0.000270    0.009647
     2    0.000000   -0.000258   -0.009638
----------------------------------------
 Tot    0.000000    0.000012    0.000009
----------------------------------------
 Max    0.009647
 Res    0.005569    sqrt( Sum f_i^2 / 3N )
----------------------------------------
 Max    0.009647    constrained
 
mulliken: Atomic and Orbital Populations:

Species: H                   
Atom  Qatom  Qorb
               1s      1s      2py     2pz     2px     
   1  1.000   0.903   0.083   0.000   0.014   0.000
   2  1.000   0.903   0.083   0.000   0.014   0.000

mulliken: Qtot =    2.000
 
* Maximum dynamic memory allocated =   584 MB

siesta:                 ==============================
                        Begin FC step =     4 of    12
                            displace atom        1
                            in direction         2
                        by   0.0378 Bohr =   0.0200 Ang
                        ==============================

outcoor: Atomic coordinates (Ang):                          
    0.00000000    0.02000000   -0.00998254   1  H          1
    0.00000000    0.00000000    0.73998166   1  H          2

siesta: iscf   Eharris(eV)      E_KS(eV)   FreeEng(eV)     dDmax   Ef(eV)
siesta:    1      -31.3359      -31.3359      -31.3359   0.00129  -4.9000
siesta:    2      -31.3359      -31.3359      -31.3359   0.00005  -4.8999
siesta:    3      -31.3359      -31.3359      -31.3359   0.00000  -4.8999
grdsam: Grid-cell sampling, point   0
grdsam: Grid-cell sampling, point   1
grdsam: Grid-cell sampling, point   2
grdsam: Grid-cell sampling, point   3

siesta: E_KS(eV) =              -31.3360

siesta: Atomic forces (eV/Ang):
     1    0.000000   -0.000270    0.009655
     2    0.000000    0.000258   -0.009646
----------------------------------------
 Tot    0.000000   -0.000012    0.000009
----------------------------------------
 Max    0.009655
 Res    0.005574    sqrt( Sum f_i^2 / 3N )
----------------------------------------
 Max    0.009655    constrained
 
mulliken: Atomic and Orbital Populations:

Species: H                   
Atom  Qatom  Qorb
               1s      1s      2py     2pz     2px     
   1  1.000   0.903   0.083   0.000   0.014   0.000
   2  1.000   0.903   0.083   0.000   0.014   0.000

mulliken: Qtot =    2.000
 
* Maximum dynamic memory allocated =   584 MB

siesta:                 ==============================
                        Begin FC step =     5 of    12
                            displace atom        1
                            in direction         3
                        by  -0.0378 Bohr =  -0.0200 Ang
                        ==============================

outcoor: Atomic coordinates (Ang):                          
    0.00000000    0.00000000   -0.02998254   1  H          1
    0.00000000    0.00000000    0.73998166   1  H          2

siesta: iscf   Eharris(eV)      E_KS(eV)   FreeEng(eV)     dDmax   Ef(eV)
siesta:    1      -31.3293      -31.3274      -31.3274   0.00501  -4.7794
siesta:    2      -31.3291      -31.3291      -31.3291   0.00061  -4.8386
siesta:    3      -31.3291      -31.3290      -31.3290   0.00021  -4.8325
siesta:    4      -31.3291      -31.3291      -31.3291   0.00002  -4.8331
grdsam: Grid-cell sampling, point   0
grdsam: Grid-cell sampling, point   1
grdsam: Grid-cell sampling, point   2
grdsam: Grid-cell sampling, point   3

siesta: E_KS(eV) =              -31.3291

siesta: Atomic forces (eV/Ang):
     1    0.000000    0.000222    0.666184
     2    0.000000   -0.000222   -0.666146
----------------------------------------
 Tot    0.000000    0.000000    0.000038
----------------------------------------
 Max    0.666184
 Res    0.384611    sqrt( Sum f_i^2 / 3N )
----------------------------------------
 Max    0.666184    constrained
 
mulliken: Atomic and Orbital Populations:

Species: H                   
Atom  Qatom  Qorb
               1s      1s      2py     2pz     2px     
   1  1.000   0.907   0.079   0.000   0.014   0.000
   2  1.000   0.907   0.079   0.000   0.014   0.000

mulliken: Qtot =    2.000
 
* Maximum dynamic memory allocated =   584 MB

siesta:                 ==============================
                        Begin FC step =     6 of    12
                            displace atom        1
                            in direction         3
                        by   0.0378 Bohr =   0.0200 Ang
                        ==============================

outcoor: Atomic coordinates (Ang):                          
    0.00000000    0.00000000    0.01001746   1  H          1
    0.00000000    0.00000000    0.73998166   1  H          2

siesta: iscf   Eharris(eV)      E_KS(eV)   FreeEng(eV)     dDmax   Ef(eV)
siesta:    1      -31.3291      -31.3210      -31.3210   0.01022  -5.0840
siesta:    2      -31.3284      -31.3283      -31.3283   0.00136  -4.9559
siesta:    3      -31.3284      -31.3276      -31.3276   0.00043  -4.9706
siesta:    4      -31.3284      -31.3284      -31.3284   0.00009  -4.9676
siesta:    5      -31.3284      -31.3284      -31.3284   0.00009  -4.9676
siesta:    6      -31.3284      -31.3284      -31.3284   0.00009  -4.9676
siesta:    7      -31.3284      -31.3284      -31.3284   0.00009  -4.9676
siesta:    8      -31.3284      -31.3284      -31.3284   0.00009  -4.9676
siesta:    9      -31.3284      -31.3284      -31.3284   0.00008  -4.9677
siesta:   10      -31.3284      -31.3284      -31.3284   0.00008  -4.9677
siesta:   11      -31.3284      -31.3284      -31.3284   0.00008  -4.9677
siesta:   12      -31.3284      -31.3284      -31.3284   0.00008  -4.9677
siesta:   13      -31.3284      -31.3284      -31.3284   0.00008  -4.9677
siesta:   14      -31.3284      -31.3284      -31.3284   0.00008  -4.9677
siesta:   15      -31.3284      -31.3284      -31.3284   0.00007  -4.9678
siesta:   16      -31.3284      -31.3284      -31.3284   0.00007  -4.9678
siesta:   17      -31.3284      -31.3284      -31.3284   0.00007  -4.9678
siesta:   18      -31.3284      -31.3284      -31.3284   0.00007  -4.9678
siesta:   19      -31.3284      -31.3284      -31.3284   0.00007  -4.9678
siesta:   20      -31.3284      -31.3284      -31.3284   0.00007  -4.9678
siesta:   21      -31.3284      -31.3284      -31.3284   0.00006  -4.9678
siesta:   22      -31.3284      -31.3284      -31.3284   0.00006  -4.9679
siesta:   23      -31.3284      -31.3284      -31.3284   0.00006  -4.9679
siesta:   24      -31.3284      -31.3284      -31.3284   0.00006  -4.9679
siesta:   25      -31.3284      -31.3284      -31.3284   0.00006  -4.9679
siesta:   26      -31.3284      -31.3284      -31.3284   0.00006  -4.9679
siesta:   27      -31.3284      -31.3284      -31.3284   0.00006  -4.9679
siesta:   28      -31.3284      -31.3284      -31.3284   0.00006  -4.9679
siesta:   29      -31.3284      -31.3284      -31.3284   0.00005  -4.9679
siesta:   30      -31.3284      -31.3284      -31.3284   0.00005  -4.9680
siesta:   31      -31.3284      -31.3284      -31.3284   0.00005  -4.9680
siesta:   32      -31.3284      -31.3284      -31.3284   0.00005  -4.9680
siesta:   33      -31.3284      -31.3284      -31.3284   0.00005  -4.9680
siesta:   34      -31.3284      -31.3284      -31.3284   0.00005  -4.9680
siesta:   35      -31.3284      -31.3284      -31.3284   0.00005  -4.9680
siesta:   36      -31.3284      -31.3284      -31.3284   0.00005  -4.9680
siesta:   37      -31.3284      -31.3284      -31.3284   0.00005  -4.9680
siesta:   38      -31.3284      -31.3284      -31.3284   0.00004  -4.9680
siesta:   39      -31.3284      -31.3284      -31.3284   0.00004  -4.9681
siesta:   40      -31.3284      -31.3284      -31.3284   0.00004  -4.9681
siesta:   41      -31.3284      -31.3284      -31.3284   0.00004  -4.9681
siesta:   42      -31.3284      -31.3284      -31.3284   0.00004  -4.9681
siesta:   43      -31.3284      -31.3284      -31.3284   0.00004  -4.9681
siesta:   44      -31.3284      -31.3284      -31.3284   0.00004  -4.9681
siesta:   45      -31.3284      -31.3284      -31.3284   0.00004  -4.9681
siesta:   46      -31.3284      -31.3284      -31.3284   0.00004  -4.9681
siesta:   47      -31.3284      -31.3284      -31.3284   0.00004  -4.9681
siesta:   48      -31.3284      -31.3284      -31.3284   0.00004  -4.9681
siesta:   49      -31.3284      -31.3284      -31.3284   0.00003  -4.9681
siesta:   50      -31.3284      -31.3284      -31.3284   0.00003  -4.9681
siesta:   51      -31.3284      -31.3284      -31.3284   0.00003  -4.9682
siesta:   52      -31.3284      -31.3284      -31.3284   0.00003  -4.9682
siesta:   53      -31.3284      -31.3284      -31.3284   0.00003  -4.9682
siesta:   54      -31.3284      -31.3284      -31.3284   0.00003  -4.9682
siesta:   55      -31.3284      -31.3284      -31.3284   0.00003  -4.9682
siesta:   56      -31.3284      -31.3284      -31.3284   0.00003  -4.9682
siesta:   57      -31.3284      -31.3284      -31.3284   0.00003  -4.9682
siesta:   58      -31.3284      -31.3284      -31.3284   0.00003  -4.9682
siesta:   59      -31.3284      -31.3284      -31.3284   0.00003  -4.9682
siesta:   60      -31.3284      -31.3284      -31.3284   0.00003  -4.9682
siesta:   61      -31.3284      -31.3284      -31.3284   0.00003  -4.9682
siesta:   62      -31.3284      -31.3284      -31.3284   0.00003  -4.9682
siesta:   63      -31.3284      -31.3284      -31.3284   0.00003  -4.9682
siesta:   64      -31.3284      -31.3284      -31.3284   0.00002  -4.9682
siesta:   65      -31.3284      -31.3284      -31.3284   0.00002  -4.9682
siesta:   66      -31.3284      -31.3284      -31.3284   0.00002  -4.9682
siesta:   67      -31.3284      -31.3284      -31.3284   0.00002  -4.9683
siesta:   68      -31.3284      -31.3284      -31.3284   0.00002  -4.9683
siesta:   69      -31.3284      -31.3284      -31.3284   0.00002  -4.9683
siesta:   70      -31.3284      -31.3284      -31.3284   0.00002  -4.9683
siesta:   71      -31.3284      -31.3284      -31.3284   0.00002  -4.9683
siesta:   72      -31.3284      -31.3284      -31.3284   0.00002  -4.9683
siesta:   73      -31.3284      -31.3284      -31.3284   0.00002  -4.9683
siesta:   74      -31.3284      -31.3284      -31.3284   0.00002  -4.9683
grdsam: Grid-cell sampling, point   0
grdsam: Grid-cell sampling, point   1
grdsam: Grid-cell sampling, point   2
grdsam: Grid-cell sampling, point   3

siesta: E_KS(eV) =              -31.3284

siesta: Atomic forces (eV/Ang):
     1    0.000000    0.000000   -0.778319
     2    0.000000    0.000000    0.778276
----------------------------------------
 Tot    0.000000    0.000000   -0.000043
----------------------------------------
 Max    0.778319
 Res    0.449350    sqrt( Sum f_i^2 / 3N )
----------------------------------------
 Max    0.778319    constrained
 
mulliken: Atomic and Orbital Populations:

Species: H                   
Atom  Qatom  Qorb
               1s      1s      2py     2pz     2px     
   1  1.000   0.898   0.088   0.000   0.014   0.000
   2  1.000   0.898   0.088   0.000   0.014   0.000

mulliken: Qtot =    2.000
 
* Maximum dynamic memory allocated =   584 MB

siesta:                 ==============================
                        Begin FC step =     7 of    12
                            displace atom        2
                            in direction         1
                        by  -0.0378 Bohr =  -0.0200 Ang
                        ==============================

outcoor: Atomic coordinates (Ang):                          
    0.00000000    0.00000000   -0.00998254   1  H          1
   -0.02000000    0.00000000    0.73998166   1  H          2

siesta: iscf   Eharris(eV)      E_KS(eV)   FreeEng(eV)     dDmax   Ef(eV)
siesta:    1      -31.3361      -31.3340      -31.3340   0.00523  -4.8420
siesta:    2      -31.3359      -31.3359      -31.3359   0.00067  -4.9059
siesta:    3      -31.3359      -31.3357      -31.3357   0.00023  -4.8989
siesta:    4      -31.3359      -31.3359      -31.3359   0.00002  -4.8996
siesta:    5      -31.3359      -31.3359      -31.3359   0.00002  -4.8996
siesta:    6      -31.3359      -31.3359      -31.3359   0.00002  -4.8996
siesta:    7      -31.3359      -31.3359      -31.3359   0.00002  -4.8996
grdsam: Grid-cell sampling, point   0
grdsam: Grid-cell sampling, point   1
grdsam: Grid-cell sampling, point   2
grdsam: Grid-cell sampling, point   3

siesta: E_KS(eV) =              -31.3359

siesta: Atomic forces (eV/Ang):
     1   -0.000529    0.000000    0.011089
     2    0.000519    0.000000   -0.010917
----------------------------------------
 Tot   -0.000010    0.000000    0.000173
----------------------------------------
 Max    0.011089
 Res    0.006360    sqrt( Sum f_i^2 / 3N )
----------------------------------------
 Max    0.011089    constrained
 
mulliken: Atomic and Orbital Populations:

Species: H                   
Atom  Qatom  Qorb
               1s      1s      2py     2pz     2px     
   1  1.000   0.903   0.083   0.000   0.014   0.000
   2  1.000   0.903   0.083   0.000   0.014   0.000

mulliken: Qtot =    2.000
 
* Maximum dynamic memory allocated =   584 MB

siesta:                 ==============================
                        Begin FC step =     8 of    12
                            displace atom        2
                            in direction         1
                        by   0.0378 Bohr =   0.0200 Ang
                        ==============================

outcoor: Atomic coordinates (Ang):                          
    0.00000000    0.00000000   -0.00998254   1  H          1
    0.02000000    0.00000000    0.73998166   1  H          2

siesta: iscf   Eharris(eV)      E_KS(eV)   FreeEng(eV)     dDmax   Ef(eV)
siesta:    1      -31.3359      -31.3359      -31.3359   0.00128  -4.8997
siesta:    2      -31.3359      -31.3359      -31.3359   0.00005  -4.8999
siesta:    3      -31.3359      -31.3359      -31.3359   0.00000  -4.8999
grdsam: Grid-cell sampling, point   0
grdsam: Grid-cell sampling, point   1
grdsam: Grid-cell sampling, point   2
grdsam: Grid-cell sampling, point   3

siesta: E_KS(eV) =              -31.3360

siesta: Atomic forces (eV/Ang):
     1    0.000255    0.000000    0.009678
     2   -0.000245    0.000000   -0.009505
----------------------------------------
 Tot    0.000010    0.000000    0.000173
----------------------------------------
 Max    0.009678
 Res    0.005540    sqrt( Sum f_i^2 / 3N )
----------------------------------------
 Max    0.009678    constrained
 
mulliken: Atomic and Orbital Populations:

Species: H                   
Atom  Qatom  Qorb
               1s      1s      2py     2pz     2px     
   1  1.000   0.903   0.083   0.000   0.014   0.000
   2  1.000   0.903   0.083   0.000   0.014   0.000

mulliken: Qtot =    2.000
 
* Maximum dynamic memory allocated =   584 MB

siesta:                 ==============================
                        Begin FC step =     9 of    12
                            displace atom        2
                            in direction         2
                        by  -0.0378 Bohr =  -0.0200 Ang
                        ==============================

outcoor: Atomic coordinates (Ang):                          
    0.00000000    0.00000000   -0.00998254   1  H          1
    0.00000000   -0.02000000    0.73998166   1  H          2

siesta: iscf   Eharris(eV)      E_KS(eV)   FreeEng(eV)     dDmax   Ef(eV)
siesta:    1      -31.3359      -31.3359      -31.3359   0.00065  -4.9000
siesta:    2      -31.3359      -31.3359      -31.3359   0.00002  -4.8999
siesta:    3      -31.3359      -31.3359      -31.3359   0.00000  -4.8999
grdsam: Grid-cell sampling, point   0
grdsam: Grid-cell sampling, point   1
grdsam: Grid-cell sampling, point   2
grdsam: Grid-cell sampling, point   3

siesta: E_KS(eV) =              -31.3360

siesta: Atomic forces (eV/Ang):
     1    0.000000   -0.000257    0.009761
     2    0.000000    0.000247   -0.009588
----------------------------------------
 Tot    0.000000   -0.000010    0.000173
----------------------------------------
 Max    0.009761
 Res    0.005588    sqrt( Sum f_i^2 / 3N )
----------------------------------------
 Max    0.009761    constrained
 
mulliken: Atomic and Orbital Populations:

Species: H                   
Atom  Qatom  Qorb
               1s      1s      2py     2pz     2px     
   1  1.000   0.903   0.083   0.000   0.014   0.000
   2  1.000   0.903   0.083   0.000   0.014   0.000

mulliken: Qtot =    2.000
 
* Maximum dynamic memory allocated =   584 MB

siesta:                 ==============================
                        Begin FC step =    10 of    12
                            displace atom        2
                            in direction         2
                        by   0.0378 Bohr =   0.0200 Ang
                        ==============================

outcoor: Atomic coordinates (Ang):                          
    0.00000000    0.00000000   -0.00998254   1  H          1
    0.00000000    0.02000000    0.73998166   1  H          2

siesta: iscf   Eharris(eV)      E_KS(eV)   FreeEng(eV)     dDmax   Ef(eV)
siesta:    1      -31.3359      -31.3359      -31.3359   0.00129  -4.9000
siesta:    2      -31.3359      -31.3359      -31.3359   0.00005  -4.8999
siesta:    3      -31.3359      -31.3359      -31.3359   0.00000  -4.8999
grdsam: Grid-cell sampling, point   0
grdsam: Grid-cell sampling, point   1
grdsam: Grid-cell sampling, point   2
grdsam: Grid-cell sampling, point   3

siesta: E_KS(eV) =              -31.3360

siesta: Atomic forces (eV/Ang):
     1    0.000000    0.000258    0.009760
     2    0.000000   -0.000248   -0.009588
----------------------------------------
 Tot    0.000000    0.000010    0.000173
----------------------------------------
 Max    0.009760
 Res    0.005588    sqrt( Sum f_i^2 / 3N )
----------------------------------------
 Max    0.009760    constrained
 
mulliken: Atomic and Orbital Populations:

Species: H                   
Atom  Qatom  Qorb
               1s      1s      2py     2pz     2px     
   1  1.000   0.903   0.083   0.000   0.014   0.000
   2  1.000   0.903   0.083   0.000   0.014   0.000

mulliken: Qtot =    2.000
 
* Maximum dynamic memory allocated =   584 MB

siesta:                 ==============================
                        Begin FC step =    11 of    12
                            displace atom        2
                            in direction         3
                        by  -0.0378 Bohr =  -0.0200 Ang
                        ==============================

outcoor: Atomic coordinates (Ang):                          
    0.00000000    0.00000000   -0.00998254   1  H          1
    0.00000000    0.00000000    0.71998166   1  H          2

siesta: iscf   Eharris(eV)      E_KS(eV)   FreeEng(eV)     dDmax   Ef(eV)
siesta:    1      -31.3285      -31.3264      -31.3264   0.00522  -5.0277
siesta:    2      -31.3284      -31.3283      -31.3283   0.00070  -4.9620
siesta:    3      -31.3284      -31.3281      -31.3281   0.00023  -4.9695
siesta:    4      -31.3284      -31.3284      -31.3284   0.00003  -4.9683
siesta:    5      -31.3284      -31.3284      -31.3284   0.00002  -4.9683
siesta:    6      -31.3284      -31.3284      -31.3284   0.00002  -4.9683
siesta:    7      -31.3284      -31.3284      -31.3284   0.00002  -4.9683
siesta:    8      -31.3284      -31.3284      -31.3284   0.00002  -4.9683
siesta:    9      -31.3284      -31.3284      -31.3284   0.00002  -4.9683
siesta:   10      -31.3284      -31.3284      -31.3284   0.00002  -4.9683
siesta:   11      -31.3284      -31.3284      -31.3284   0.00002  -4.9683
siesta:   12      -31.3284      -31.3284      -31.3284   0.00002  -4.9683
siesta:   13      -31.3284      -31.3284      -31.3284   0.00002  -4.9683
siesta:   14      -31.3284      -31.3284      -31.3284   0.00002  -4.9683
siesta:   15      -31.3284      -31.3284      -31.3284   0.00002  -4.9683
grdsam: Grid-cell sampling, point   0
grdsam: Grid-cell sampling, point   1
grdsam: Grid-cell sampling, point   2
grdsam: Grid-cell sampling, point   3

siesta: E_KS(eV) =              -31.3284

siesta: Atomic forces (eV/Ang):
     1    0.000000   -0.000069   -0.778450
     2    0.000000    0.000069    0.778756
----------------------------------------
 Tot    0.000000    0.000000    0.000306
----------------------------------------
 Max    0.778756
 Res    0.449527    sqrt( Sum f_i^2 / 3N )
----------------------------------------
 Max    0.778756    constrained
 
mulliken: Atomic and Orbital Populations:

Species: H                   
Atom  Qatom  Qorb
               1s      1s      2py     2pz     2px     
   1  1.000   0.898   0.088   0.000   0.014   0.000
   2  1.000   0.898   0.088   0.000   0.014   0.000

mulliken: Qtot =    2.000
 
* Maximum dynamic memory allocated =   584 MB

siesta:                 ==============================
                        Begin FC step =    12 of    12
                            displace atom        2
                            in direction         3
                        by   0.0378 Bohr =   0.0200 Ang
                        ==============================

outcoor: Atomic coordinates (Ang):                          
    0.00000000    0.00000000   -0.00998254   1  H          1
    0.00000000    0.00000000    0.75998166   1  H          2

siesta: iscf   Eharris(eV)      E_KS(eV)   FreeEng(eV)     dDmax   Ef(eV)
siesta:    1      -31.3298      -31.3218      -31.3218   0.01025  -4.7228
siesta:    2      -31.3291      -31.3291      -31.3291   0.00125  -4.8442
siesta:    3      -31.3291      -31.3284      -31.3284   0.00043  -4.8314
siesta:    4      -31.3291      -31.3291      -31.3291   0.00008  -4.8324
siesta:    5      -31.3291      -31.3291      -31.3291   0.00008  -4.8324
siesta:    6      -31.3291      -31.3291      -31.3291   0.00008  -4.8325
siesta:    7      -31.3291      -31.3291      -31.3291   0.00008  -4.8325
siesta:    8      -31.3291      -31.3291      -31.3291   0.00008  -4.8325
siesta:    9      -31.3291      -31.3291      -31.3291   0.00007  -4.8325
siesta:   10      -31.3291      -31.3291      -31.3291   0.00007  -4.8325
siesta:   11      -31.3291      -31.3291      -31.3291   0.00007  -4.8326
siesta:   12      -31.3291      -31.3291      -31.3291   0.00007  -4.8326
siesta:   13      -31.3291      -31.3291      -31.3291   0.00007  -4.8326
siesta:   14      -31.3291      -31.3291      -31.3291   0.00007  -4.8326
siesta:   15      -31.3291      -31.3291      -31.3291   0.00006  -4.8326
siesta:   16      -31.3291      -31.3291      -31.3291   0.00006  -4.8326
siesta:   17      -31.3291      -31.3291      -31.3291   0.00006  -4.8327
siesta:   18      -31.3291      -31.3291      -31.3291   0.00006  -4.8327
siesta:   19      -31.3291      -31.3291      -31.3291   0.00006  -4.8327
siesta:   20      -31.3291      -31.3291      -31.3291   0.00006  -4.8327
siesta:   21      -31.3291      -31.3291      -31.3291   0.00006  -4.8327
siesta:   22      -31.3291      -31.3291      -31.3291   0.00005  -4.8327
siesta:   23      -31.3291      -31.3291      -31.3291   0.00005  -4.8328
siesta:   24      -31.3291      -31.3291      -31.3291   0.00005  -4.8328
siesta:   25      -31.3291      -31.3291      -31.3291   0.00005  -4.8328
siesta:   26      -31.3291      -31.3291      -31.3291   0.00005  -4.8328
siesta:   27      -31.3291      -31.3291      -31.3291   0.00005  -4.8328
siesta:   28      -31.3291      -31.3291      -31.3291   0.00005  -4.8328
siesta:   29      -31.3291      -31.3291      -31.3291   0.00005  -4.8328
siesta:   30      -31.3291      -31.3291      -31.3291   0.00005  -4.8328
siesta:   31      -31.3291      -31.3291      -31.3291   0.00004  -4.8329
siesta:   32      -31.3291      -31.3291      -31.3291   0.00004  -4.8329
siesta:   33      -31.3291      -31.3291      -31.3291   0.00004  -4.8329
siesta:   34      -31.3291      -31.3291      -31.3291   0.00004  -4.8329
siesta:   35      -31.3291      -31.3291      -31.3291   0.00004  -4.8329
siesta:   36      -31.3291      -31.3291      -31.3291   0.00004  -4.8329
siesta:   37      -31.3291      -31.3291      -31.3291   0.00004  -4.8329
siesta:   38      -31.3291      -31.3291      -31.3291   0.00004  -4.8329
siesta:   39      -31.3291      -31.3291      -31.3291   0.00004  -4.8329
siesta:   40      -31.3291      -31.3291      -31.3291   0.00004  -4.8330
siesta:   41      -31.3291      -31.3291      -31.3291   0.00004  -4.8330
siesta:   42      -31.3291      -31.3291      -31.3291   0.00003  -4.8330
siesta:   43      -31.3291      -31.3291      -31.3291   0.00003  -4.8330
siesta:   44      -31.3291      -31.3291      -31.3291   0.00003  -4.8330
siesta:   45      -31.3291      -31.3291      -31.3291   0.00003  -4.8330
siesta:   46      -31.3291      -31.3291      -31.3291   0.00003  -4.8330
siesta:   47      -31.3291      -31.3291      -31.3291   0.00003  -4.8330
siesta:   48      -31.3291      -31.3291      -31.3291   0.00003  -4.8330
siesta:   49      -31.3291      -31.3291      -31.3291   0.00003  -4.8330
siesta:   50      -31.3291      -31.3291      -31.3291   0.00003  -4.8330
siesta:   51      -31.3291      -31.3291      -31.3291   0.00003  -4.8331
siesta:   52      -31.3291      -31.3291      -31.3291   0.00003  -4.8331
siesta:   53      -31.3291      -31.3291      -31.3291   0.00003  -4.8331
siesta:   54      -31.3291      -31.3291      -31.3291   0.00003  -4.8331
siesta:   55      -31.3291      -31.3291      -31.3291   0.00003  -4.8331
siesta:   56      -31.3291      -31.3291      -31.3291   0.00002  -4.8331
siesta:   57      -31.3291      -31.3291      -31.3291   0.00002  -4.8331
siesta:   58      -31.3291      -31.3291      -31.3291   0.00002  -4.8331
siesta:   59      -31.3291      -31.3291      -31.3291   0.00002  -4.8331
siesta:   60      -31.3291      -31.3291      -31.3291   0.00002  -4.8331
siesta:   61      -31.3291      -31.3291      -31.3291   0.00002  -4.8331
siesta:   62      -31.3291      -31.3291      -31.3291   0.00002  -4.8331
siesta:   63      -31.3291      -31.3291      -31.3291   0.00002  -4.8331
siesta:   64      -31.3291      -31.3291      -31.3291   0.00002  -4.8331
siesta:   65      -31.3291      -31.3291      -31.3291   0.00002  -4.8331
siesta:   66      -31.3291      -31.3291      -31.3291   0.00002  -4.8332
grdsam: Grid-cell sampling, point   0
grdsam: Grid-cell sampling, point   1
grdsam: Grid-cell sampling, point   2
grdsam: Grid-cell sampling, point   3

siesta: E_KS(eV) =              -31.3291

siesta: Atomic forces (eV/Ang):
     1    0.000000    0.000000    0.666156
     2    0.000000    0.000000   -0.666045
----------------------------------------
 Tot    0.000000    0.000000    0.000111
----------------------------------------
 Max    0.666156
 Res    0.384573    sqrt( Sum f_i^2 / 3N )
----------------------------------------
 Max    0.666156    constrained
 
mulliken: Atomic and Orbital Populations:

Species: H                   
Atom  Qatom  Qorb
               1s      1s      2py     2pz     2px     
   1  1.000   0.907   0.079   0.000   0.014   0.000
   2  1.000   0.907   0.079   0.000   0.014   0.000

mulliken: Qtot =    2.000
 
* Maximum dynamic memory allocated =   584 MB

outcoor: Final (unrelaxed) atomic coordinates (Ang):        
    0.00000000    0.00000000   -0.00998254   1  H          1
    0.00000000    0.00000000    0.73998166   1  H          2

siesta: Eigenvalues (eV):
  ik is    eps
   1  1 -10.97   1.35   4.18   4.18   9.67  10.77  10.77  17.35  44.23  89.13
siesta: Fermi energy =      -4.833151 eV

siesta: Program's energy decomposition (eV):
siesta:-Eions   =     -26.074526
siesta: Ena     =       4.056698
siesta: Ekin    =      25.969235
siesta: Enl     =     -16.711679
siesta: DEna    =      -1.361230
siesta: DUscf   =       0.229507
siesta: DUext   =       0.000000
siesta: Exc     =     -17.437115
siesta: eta*DQ  =       0.000000
siesta: Emadel  =       0.000000
siesta: Ekinion =       0.000000
siesta: Eharris =     -31.329124
siesta: Eso     =       0.000000
siesta: Etot    =     -31.329110
siesta: FreeEng =     -31.329110

siesta: Final energy (eV):
siesta:       Kinetic =      25.969235
siesta:       Hartree =      28.977234
siesta:    Ext. field =       0.000000
siesta:   Exch.-corr. =     -17.437115
siesta:  Ion-electron =     -83.469230
siesta:       Ion-ion =      14.630766
siesta:       Ekinion =       0.000000
siesta:         Total =     -31.329110

siesta: Atomic forces (eV/Ang):
siesta:    1    0.000000    0.000000    0.666156
siesta:    2    0.000000    0.000000   -0.666045
siesta: ----------------------------------------
siesta:  Tot    0.000000    0.000000    0.000111

siesta: Stress tensor (static) (eV/Ang**3):
siesta:     0.000000    0.000000    0.000000
siesta:     0.000000    0.000000    0.000000
siesta:     0.000000    0.000000    0.000064

siesta: Cell volume =       8000.000000 Ang**3

siesta: Pressure (static):
siesta:                Solid            Molecule  Units
siesta:          -0.00000023          0.00000000  Ry/Bohr**3
siesta:          -0.00002137          0.00000000  eV/Ang**3
siesta:          -0.03424252         -0.00000409  kBar

siesta: Total spin polarization (Qup-Qdown) =    0.000000
siesta: Spin vector =    0.000000    0.000000    0.000000
siesta: No SpinPolK block detected...

siesta: Electric dipole (a.u.)  =    0.000000    0.000000    0.000000
siesta: Electric dipole (Debye) =    0.000000    0.000000    0.000000

siesta: Vibrational frequency (cm^-1) & IR (a.u.) (Acoustic sum rule):
 eigenvalue #    1   omega =   -0.000035    IR =    0.000000 
 eigenvalue #    2   omega =   -0.000029    IR =    0.000000 
 eigenvalue #    3   omega =   -0.000001    IR =    0.000000 
 eigenvalue #    4   omega =   83.307559    IR =    0.000000 
 eigenvalue #    5   omega =   94.929423    IR =    0.000000 
 eigenvalue #    6   omega = 4409.763821    IR =    0.000000 
 
* Maximum dynamic memory allocated : Node    0 =   584 MB
* Maximum dynamic memory allocated : Node    1 =   580 MB
* Maximum dynamic memory allocated : Node    2 =   583 MB
* Maximum dynamic memory allocated : Node    3 =   580 MB
* Maximum memory occured during redistribXZ                   

timer: CPU execution times:
timer:  Routine       Calls   Time/call    Tot.time        %
timer:  siesta            1   10200.567   10200.567   100.00
timer:  Setup             1       2.472       2.472     0.02
timer:  bands             1       0.004       0.004     0.00
timer:  writewave         1       0.008       0.008     0.00
timer:  KSV_init          1       0.003       0.003     0.00
timer:  IterMD           13     778.596   10121.742    99.23
timer:  hsparse          14       0.001       0.018     0.00
timer:  overfsm          26       0.004       0.101     0.00
timer:  IterSCF         201      50.338   10118.025    99.19
timer:  kinefsm          26       0.001       0.031     0.00
timer:  nlefsm           26       0.034       0.884     0.01
timer:  DHSCF           241      42.278   10189.029    99.89
timer:  DHSCF1            1      12.740      12.740     0.12
timer:  DHSCF2           53      24.350    1290.575    12.65
timer:  REORD          3000       0.147     441.788     4.33
timer:  POISON          294      22.359    6573.646    64.44
timer:  DHSCF3          241      36.500    8796.460    86.24
timer:  rhoofd          241       0.270      64.954     0.64
timer:  CELLXC          241       4.779    1151.706    11.29
timer:  vmat            201       0.134      26.986     0.26
timer:  diagon          188       0.019       3.607     0.04
timer:  rdiag           188       0.014       2.546     0.02
timer:  DHSCF4           52       1.503      78.174     0.77
timer:  dfscf            52       1.207      62.758     0.62
  
>> End of run:   5-OCT-2013   4:24:50
