ATOMS
H             0.00000000      0.00000000     -0.01093506            -0.02674173      0.70660093     -0.00005652
H             0.00000000      0.00000000      0.74094157             0.02674173     -0.70660093      0.00005652
