ATOMS
H             0.00000000      0.00000000     -0.01093506            -0.70710673      0.00025945      0.00005047
H             0.00000000      0.00000000      0.74094157            -0.70710673      0.00025945      0.00005047
