ATOMS
H             0.00000000      0.00000000     -0.01093506             0.70660092      0.02674174      0.00013686
H             0.00000000      0.00000000      0.74094157            -0.70660092     -0.02674174     -0.00013686
