 its           1
 iter_nr           0
 its           2
 iter_nr           0
 its           3
 iter_nr           0
 its           4
 iter_nr           0
 its           5
 iter_nr           0
 its           6
 iter_nr           0
 its           7
 iter_nr           0
 its           8
 iter_nr           0
 its           9
 iter_nr           0
 its          10
 iter_nr           0
 its          11
 iter_nr           0
 its          12
 iter_nr           0
 its          13
 iter_nr           0
 its          14
 iter_nr           0
 its          15
 iter_nr           0
 its          16
 iter_nr           0
 its          17
 iter_nr           0
 its          18
 iter_nr           0
 its          19
 iter_nr           0
 its          20
 iter_nr           0
 its          21
 iter_nr           0
 its          22
 iter_nr           0
 its          23
 iter_nr           0
 its          24
 iter_nr           0
 its          25
 iter_nr           0
 its          26
 iter_nr           0
 its          27
 iter_nr           0
 its          28
 iter_nr           0
 its          29
 iter_nr           0
 its          30
 iter_nr           0
 its          31
 iter_nr           0
 its          32
 iter_nr           0
 its          33
 iter_nr           0
 its          34
 iter_nr           0
 its          35
 iter_nr           0
                                             1
 DBCSR| Split modifier for TAS multiplication algorithm                  1.0E+00


  **** **** ******  **  PROGRAM STARTED AT               2023-09-12 09:26:26.382
 ***** ** ***  *** **   PROGRAM STARTED ON                             nid005731
 **    ****   ******    PROGRAM STARTED BY                                cahart
 ***** **    ** ** **   PROGRAM PROCESS ID                                117479
  **** **  *******  **  PROGRAM STARTED IN /mnt/lustre/a2fs-work2/work/e05/e05/c
                                           ahart/postdoc/transport/AuH2/cp2k-sme
                                           agol/archer_pbe/geo_opt/NEnergReal-64
                                           _kpoints-3-3-20_omp-1_ParallelOverKNu
                                           m-1/1.5

 CP2K| version string:                 CP2K version 2022.1 (Development Version)
 CP2K| source code revision number:                                  git:5518aa6
 CP2K| cp2kflags: omp libint fftw3 libxc elpa parallel mpi3 scalapack mkl       
 CP2K| is freely available from                            https://www.cp2k.org/
 CP2K| Program compiled at                          Tue 12 Sep 09:20:02 BST 2023
 CP2K| Program compiled on                                                  ln01
 CP2K| Program compiled for                                                local
 CP2K| Data directory path    /work/e05/e05/cahart/smeagol/smgl/cp2k-private-ser
 CP2K| Input file name                                                   4_V.inp

 GLOBAL| Force Environment number                                              1
 GLOBAL| Basis set file name                                        BASIS_MOLOPT
 GLOBAL| Potential file name                                      GTH_POTENTIALS
 GLOBAL| MM Potential file name                                     MM_POTENTIAL
 GLOBAL| Coordinate file name                                             em.xyz
 GLOBAL| Method name                                                        CP2K
 GLOBAL| Project name                                                          V
 GLOBAL| Run type                                                        GEO_OPT
 GLOBAL| FFT library                                                       FFTW3
 GLOBAL| Diagonalization library                                            ELPA
 GLOBAL| Minimum number of eigenvectors for ELPA usage                        16
 GLOBAL| Orthonormality check for eigenvectors                          DISABLED
 GLOBAL| Matrix multiplication library                                 ScaLAPACK
 GLOBAL| All-to-all communication in single precision                          F
 GLOBAL| FFTs using library dependent lengths                                  T
 GLOBAL| Grid backend                                                       AUTO
 GLOBAL| Global print level                                               MEDIUM
 GLOBAL| MPI I/O enabled                                                       T
 GLOBAL| Total number of message passing processes                            64
 GLOBAL| Number of threads for this process                                    1
 GLOBAL| This output is from process                                           0
 GLOBAL| Stack size for threads created by OpenMP (OMP_STACKSIZE)        default
 GLOBAL| CPU model name                          AMD EPYC 7742 64-Core Processor
 GLOBAL| CPUID                                                              1002

 MEMORY| system memory details [Kb]
 MEMORY|                        rank 0           min           max       average
 MEMORY| MemTotal            263341976     263341976     263341976     263341976
 MEMORY| MemFree             242127932     242127932     242128184     242128180
 MEMORY| Buffers                     0             0             0             0
 MEMORY| Cached                4475880       4475880       4475880       4475880
 MEMORY| Slab                  3178664       3178604       3178664       3178604
 MEMORY| SReclaimable           128804        128804        128804        128804
 MEMORY| MemLikelyFree       246732616     246732616     246732868     246732864


 *** Fundamental physical constants (SI units) ***

 *** Literature: B. J. Mohr and B. N. Taylor,
 ***             CODATA recommended values of the fundamental physical
 ***             constants: 2006, Web Version 5.1
 ***             http://physics.nist.gov/constants

 Speed of light in vacuum [m/s]                             2.99792458000000E+08
 Magnetic constant or permeability of vacuum [N/A**2]       1.25663706143592E-06
 Electric constant or permittivity of vacuum [F/m]          8.85418781762039E-12
 Planck constant (h) [J*s]                                  6.62606896000000E-34
 Planck constant (h-bar) [J*s]                              1.05457162825177E-34
 Elementary charge [C]                                      1.60217648700000E-19
 Electron mass [kg]                                         9.10938215000000E-31
 Electron g factor [ ]                                     -2.00231930436220E+00
 Proton mass [kg]                                           1.67262163700000E-27
 Fine-structure constant                                    7.29735253760000E-03
 Rydberg constant [1/m]                                     1.09737315685270E+07
 Avogadro constant [1/mol]                                  6.02214179000000E+23
 Boltzmann constant [J/K]                                   1.38065040000000E-23
 Atomic mass unit [kg]                                      1.66053878200000E-27
 Bohr radius [m]                                            5.29177208590000E-11

 *** Conversion factors ***

 [u] -> [a.u.]                                              1.82288848426455E+03
 [Angstrom] -> [Bohr] = [a.u.]                              1.88972613288564E+00
 [a.u.] = [Bohr] -> [Angstrom]                              5.29177208590000E-01
 [a.u.] -> [s]                                              2.41888432650478E-17
 [a.u.] -> [fs]                                             2.41888432650478E-02
 [a.u.] -> [J]                                              4.35974393937059E-18
 [a.u.] -> [N]                                              8.23872205491840E-08
 [a.u.] -> [K]                                              3.15774647902944E+05
 [a.u.] -> [kJ/mol]                                         2.62549961709828E+03
 [a.u.] -> [kcal/mol]                                       6.27509468713739E+02
 [a.u.] -> [Pa]                                             2.94210107994716E+13
 [a.u.] -> [bar]                                            2.94210107994716E+08
 [a.u.] -> [atm]                                            2.90362800883016E+08
 [a.u.] -> [eV]                                             2.72113838565563E+01
 [a.u.] -> [Hz]                                             6.57968392072181E+15
 [a.u.] -> [1/cm] (wave numbers)                            2.19474631370540E+05
 [a.u./Bohr**2] -> [1/cm]                                   5.14048714338585E+03
 

 CELL_TOP| Volume [angstrom^3]:                                      3044.391638
 CELL_TOP| Vector a [angstrom     8.867     0.000     0.000   |a| =     8.867120
 CELL_TOP| Vector b [angstrom     0.000     8.867     0.000   |b| =     8.867120
 CELL_TOP| Vector c [angstrom     0.000     0.000    38.720   |c| =    38.720000
 CELL_TOP| Angle (b,c), alpha [degree]:                                90.000000
 CELL_TOP| Angle (a,c), beta  [degree]:                                90.000000
 CELL_TOP| Angle (a,b), gamma [degree]:                                90.000000
 CELL_TOP| Numerically orthorhombic:                                         YES
 CELL_TOP| Periodicity                                                       XYZ

 GENERATE|  Preliminary Number of Bonds generated:                             0
 GENERATE|  Achieved consistency in connectivity generation.

 CELL| Volume [angstrom^3]:                                          3044.391638
 CELL| Vector a [angstrom]:       8.867     0.000     0.000   |a| =     8.867120
 CELL| Vector b [angstrom]:       0.000     8.867     0.000   |b| =     8.867120
 CELL| Vector c [angstrom]:       0.000     0.000    38.720   |c| =    38.720000
 CELL| Angle (b,c), alpha [degree]:                                    90.000000
 CELL| Angle (a,c), beta  [degree]:                                    90.000000
 CELL| Angle (a,b), gamma [degree]:                                    90.000000
 CELL| Numerically orthorhombic:                                             YES
 CELL| Periodicity                                                           XYZ

 CELL_REF| Volume [angstrom^3]:                                      3044.391638
 CELL_REF| Vector a [angstrom     8.867     0.000     0.000   |a| =     8.867120
 CELL_REF| Vector b [angstrom     0.000     8.867     0.000   |b| =     8.867120
 CELL_REF| Vector c [angstrom     0.000     0.000    38.720   |c| =    38.720000
 CELL_REF| Angle (b,c), alpha [degree]:                                90.000000
 CELL_REF| Angle (a,c), beta  [degree]:                                90.000000
 CELL_REF| Angle (a,b), gamma [degree]:                                90.000000
 CELL_REF| Numerically orthorhombic:                                         YES
 CELL_REF| Periodicity                                                       XYZ

 *** WARNING in cryssym.F:165 :: Symmetry library SPGLIB not available ***


 *******************************************************************************
                                    Kpoints
 *******************************************************************************
 BRILLOUIN| K-point scheme                                        Monkhorst-Pack
 BRILLOUIN| K-Point grid                                             3    3    1
 BRILLOUIN| Accuracy in Symmetry determination                      0.100000E-07
 BRILLOUIN| K-Point point group symmetrization                               OFF
 BRILLOUIN| Wavefunction type                                            COMPLEX
 BRILLOUIN| Use full k-point grid     
 BRILLOUIN| List of Kpoints [2 Pi/Bohr]                                        9
 BRILLOUIN| Number           Weight            X              Y              Z
 BRILLOUIN|     1           0.11111       -0.33333       -0.33333        0.00000
 BRILLOUIN|     2           0.11111       -0.33333        0.00000        0.00000
 BRILLOUIN|     3           0.11111       -0.33333        0.33333        0.00000
 BRILLOUIN|     4           0.11111        0.00000       -0.33333        0.00000
 BRILLOUIN|     5           0.11111        0.00000        0.00000        0.00000
 BRILLOUIN|     6           0.11111        0.00000        0.33333        0.00000
 BRILLOUIN|     7           0.11111        0.33333       -0.33333        0.00000
 BRILLOUIN|     8           0.11111        0.33333        0.00000        0.00000
 BRILLOUIN|     9           0.11111        0.33333        0.33333        0.00000
 *******************************************************************************

 *******************************************************************************
 *******************************************************************************
 **                                                                           **
 **     #####                         ##              ##                      **
 **    ##   ##            ##          ##              ##                      **
 **   ##     ##                       ##            ######                    **
 **   ##     ##  ##   ##  ##   #####  ##  ##   ####   ##    #####    #####    **
 **   ##     ##  ##   ##  ##  ##      ## ##   ##      ##   ##   ##  ##   ##   **
 **   ##  ## ##  ##   ##  ##  ##      ####     ###    ##   ######   ######    **
 **    ##  ###   ##   ##  ##  ##      ## ##      ##   ##   ##       ##        **
 **     #######   #####   ##   #####  ##  ##  ####    ##    #####   ##        **
 **           ##                                                    ##        **
 **                                                                           **
 **                                                ... make the atoms dance   **
 **                                                                           **
 **            Copyright (C) by CP2K developers group (2000-2022)             **
 **                      J. Chem. Phys. 152, 194103 (2020)                    **
 **                                                                           **
 *******************************************************************************

 DFT| Spin restricted Kohn-Sham (RKS) calculation                            RKS
 DFT| Multiplicity                                                             2
 DFT| Number of spin states                                                    1
 DFT| Charge                                                                   0
 DFT| Self-interaction correction (SIC)                                       NO
 DFT| Cutoffs: density                                              1.000000E-10
 DFT|          gradient                                             1.000000E-10
 DFT|          tau                                                  1.000000E-10
 DFT|          cutoff_smoothing_range                               0.000000E+00
 DFT| XC density smoothing                                                  NONE
 DFT| XC derivatives                                                          PW

 FUNCTIONAL| PBE:
 FUNCTIONAL| J.P.Perdew, K.Burke, M.Ernzerhof, Phys. Rev. Letter, vol. 77, n 18,
 FUNCTIONAL|  pp. 3865-3868, (1996){spin unpolarized}                           


 QS| Method:                                                                 GPW
 QS| Density plane wave grid type                        NON-SPHERICAL FULLSPACE
 QS| Number of grid levels:                                                    4
 QS| Density cutoff [a.u.]:                                                300.0
 QS| Multi grid cutoff [a.u.]: 1) grid level                               300.0
 QS|                           2) grid level                               100.0
 QS|                           3) grid level                                33.3
 QS|                           4) grid level                                11.1
 QS| Grid level progression factor:                                          3.0
 QS| Relative density cutoff [a.u.]:                                        30.0
 QS| Interaction thresholds: eps_pgf_orb:                                1.0E-05
 QS|                         eps_filter_matrix:                          0.0E+00
 QS|                         eps_core_charge:                            1.0E-12
 QS|                         eps_rho_gspace:                             1.0E-10
 QS|                         eps_rho_rspace:                             1.0E-10
 QS|                         eps_gvg_rspace:                             1.0E-05
 QS|                         eps_ppl:                                    1.0E-02
 QS|                         eps_ppnl:                                   1.0E-07


 ATOMIC KIND INFORMATION

  1. Atomic kind: Au                                    Number of atoms:     111

     Orbital Basis Set                                         SZV-MOLOPT-SR-GTH

       Number of orbital shell sets:                                           1
       Number of orbital shells:                                               3
       Number of primitive Cartesian functions:                                5
       Number of Cartesian basis functions:                                   10
       Number of spherical basis functions:                                    9
       Norm type:                                                              2

       Normalised Cartesian orbitals:

                        Set   Shell   Orbital            Exponent    Coefficient

                          1       1    2s                2.950008       0.074626
                                                         1.563057      -0.007898
                                                         0.666664      -0.297688
                                                         0.251083       0.136809
                                                         0.081714       0.088198

                          1       2    3px               2.950008       0.148824
                                                         1.563057       0.025430
                                                         0.666664      -0.123003
                                                         0.251083       0.033648
                                                         0.081714       0.059008
                          1       2    3py               2.950008       0.148824
                                                         1.563057       0.025430
                                                         0.666664      -0.123003
                                                         0.251083       0.033648
                                                         0.081714       0.059008
                          1       2    3pz               2.950008       0.148824
                                                         1.563057       0.025430
                                                         0.666664      -0.123003
                                                         0.251083       0.033648
                                                         0.081714       0.059008

                          1       3    4dx2              2.950008      -0.139595
                                                         1.563057       1.319655
                                                         0.666664       0.377081
                                                         0.251083       0.046872
                                                         0.081714       0.001393
                          1       3    4dxy              2.950008      -0.241786
                                                         1.563057       2.285709
                                                         0.666664       0.653124
                                                         0.251083       0.081185
                                                         0.081714       0.002412
                          1       3    4dxz              2.950008      -0.241786
                                                         1.563057       2.285709
                                                         0.666664       0.653124
                                                         0.251083       0.081185
                                                         0.081714       0.002412
                          1       3    4dy2              2.950008      -0.139595
                                                         1.563057       1.319655
                                                         0.666664       0.377081
                                                         0.251083       0.046872
                                                         0.081714       0.001393
                          1       3    4dyz              2.950008      -0.241786
                                                         1.563057       2.285709
                                                         0.666664       0.653124
                                                         0.251083       0.081185
                                                         0.081714       0.002412
                          1       3    4dz2              2.950008      -0.139595
                                                         1.563057       1.319655
                                                         0.666664       0.377081
                                                         0.251083       0.046872
                                                         0.081714       0.001393

       Atomic covalent radius [Angstrom]:                                  1.340

       Atomic van der Waals radius [Angstrom]:                             1.660

     GTH Potential information for                                   GTH-PBE-q11

       Description:                       Goedecker-Teter-Hutter pseudopotential
                                           Goedecker et al., PRB 54, 1703 (1996)
                                          Hartwigsen et al., PRB 58, 3641 (1998)
                                                      Krack, TCA 114, 145 (2005)

       Gaussian exponent of the core charge distribution:               1.436369
       Electronic configuration (s p d ...):                           1   0  10

       Parameters of the local part of the GTH pseudopotential:

                          rloc        C1          C2          C3          C4
                        0.590000   10.517179

       Parameters of the non-local part of the GTH pseudopotential:

                   l      r(l)      h(i,j,l)

                   0    0.543847    5.786811   -2.250680
                                   -2.250680    2.905615
                   1    0.609173    4.284049   -4.071285
                                   -4.071285    4.817210
                   2    0.437309   -7.403281    3.010193
                                    3.010193   -3.413238

  2. Atomic kind: H                                     Number of atoms:       2

     Orbital Basis Set                                        DZVP-MOLOPT-SR-GTH

       Number of orbital shell sets:                                           1
       Number of orbital shells:                                               3
       Number of primitive Cartesian functions:                                5
       Number of Cartesian basis functions:                                    5
       Number of spherical basis functions:                                    5
       Norm type:                                                              2

       Normalised Cartesian orbitals:

                        Set   Shell   Orbital            Exponent    Coefficient

                          1       1    2s               10.068468      -0.133023
                                                         2.680223      -0.177618
                                                         0.791502      -0.258419
                                                         0.239116      -0.107525
                                                         0.082193      -0.014019

                          1       2    3s               10.068468       0.344673
                                                         2.680223       1.819821
                                                         0.791502      -0.999069
                                                         0.239116       0.017430
                                                         0.082193       0.082660

                          1       3    3px              10.068468       0.155326
                                                         2.680223       0.367157
                                                         0.791502       0.311480
                                                         0.239116       0.080105
                                                         0.082193       0.033440
                          1       3    3py              10.068468       0.155326
                                                         2.680223       0.367157
                                                         0.791502       0.311480
                                                         0.239116       0.080105
                                                         0.082193       0.033440
                          1       3    3pz              10.068468       0.155326
                                                         2.680223       0.367157
                                                         0.791502       0.311480
                                                         0.239116       0.080105
                                                         0.082193       0.033440

       Atomic covalent radius [Angstrom]:                                  0.320

       Atomic van der Waals radius [Angstrom]:                             1.090

     GTH Potential information for                                    GTH-PBE-q1

       Description:                       Goedecker-Teter-Hutter pseudopotential
                                           Goedecker et al., PRB 54, 1703 (1996)
                                          Hartwigsen et al., PRB 58, 3641 (1998)
                                                      Krack, TCA 114, 145 (2005)

       Gaussian exponent of the core charge distribution:              12.500000
       Electronic configuration (s p d ...):                                   1

       Parameters of the local part of the GTH pseudopotential:

                          rloc        C1          C2          C3          C4
                        0.200000   -4.178900    0.724463


 MOLECULE KIND INFORMATION


 All atoms are their own molecule, skipping detailed information


 TOTAL NUMBERS AND MAXIMUM NUMBERS

  Total number of            - Atomic kinds:                                   2
                             - Atoms:                                        113
                             - Shell sets:                                   113
                             - Shells:                                       339
                             - Primitive Cartesian functions:                565
                             - Cartesian basis functions:                   1120
                             - Spherical basis functions:                   1009

  Maximum angular momentum of- Orbital basis functions:                        2
                             - Local part of the GTH pseudopotential:          2
                             - Non-local part of the GTH pseudopotential:      4


 MODULE QUICKSTEP: ATOMIC COORDINATES IN ANGSTROM

   Atom Kind Element         X             Y             Z       Z(eff)     Mass
      1    1 Au   79      1.787000      1.281000      0.000000  11.0000 196.9666
      2    1 Au   79      0.309000      2.759000      2.090000  11.0000 196.9666
      3    1 Au   79      1.787000      1.281000      4.180000  11.0000 196.9666
      4    1 Au   79      0.309000      2.759000      6.270000  11.0000 196.9666
      5    1 Au   79      4.743000      1.281000      0.000000  11.0000 196.9666
      6    1 Au   79      3.265000      2.759000      2.090000  11.0000 196.9666
      7    1 Au   79      4.743000      1.281000      4.180000  11.0000 196.9666
      8    1 Au   79      3.265000      2.759000      6.270000  11.0000 196.9666
      9    1 Au   79      7.699000      1.281000      0.000000  11.0000 196.9666
     10    1 Au   79      6.221000      2.759000      2.090000  11.0000 196.9666
     11    1 Au   79      7.699000      1.281000      4.180000  11.0000 196.9666
     12    1 Au   79      6.221000      2.759000      6.270000  11.0000 196.9666
     13    1 Au   79      1.787000      4.236000      0.000000  11.0000 196.9666
     14    1 Au   79      0.309000      5.714000      2.090000  11.0000 196.9666
     15    1 Au   79      1.787000      4.236000      4.180000  11.0000 196.9666
     16    1 Au   79      0.309000      5.714000      6.270000  11.0000 196.9666
     17    1 Au   79      4.743000      4.236000      0.000000  11.0000 196.9666
     18    1 Au   79      3.265000      5.714000      2.090000  11.0000 196.9666
     19    1 Au   79      4.743000      4.236000      4.180000  11.0000 196.9666
     20    1 Au   79      3.265000      5.714000      6.270000  11.0000 196.9666
     21    1 Au   79      7.699000      4.236000      0.000000  11.0000 196.9666
     22    1 Au   79      6.221000      5.714000      2.090000  11.0000 196.9666
     23    1 Au   79      7.699000      4.236000      4.180000  11.0000 196.9666
     24    1 Au   79      6.221000      5.714000      6.270000  11.0000 196.9666
     25    1 Au   79      1.787000      7.192000      0.000000  11.0000 196.9666
     26    1 Au   79      0.309000      8.670000      2.090000  11.0000 196.9666
     27    1 Au   79      1.787000      7.192000      4.180000  11.0000 196.9666
     28    1 Au   79      0.309000      8.670000      6.270000  11.0000 196.9666
     29    1 Au   79      4.743000      7.192000      0.000000  11.0000 196.9666
     30    1 Au   79      3.265000      8.670000      2.090000  11.0000 196.9666
     31    1 Au   79      4.743000      7.192000      4.180000  11.0000 196.9666
     32    1 Au   79      3.265000      8.670000      6.270000  11.0000 196.9666
     33    1 Au   79      7.699000      7.192000      0.000000  11.0000 196.9666
     34    1 Au   79      6.221000      8.670000      2.090000  11.0000 196.9666
     35    1 Au   79      7.699000      7.192000      4.180000  11.0000 196.9666
     36    1 Au   79      6.221000      8.670000      6.270000  11.0000 196.9666
     37    1 Au   79      1.787000      1.281000      8.360000  11.0000 196.9666
     38    1 Au   79      1.787000      4.236000      8.360000  11.0000 196.9666
     39    1 Au   79      1.787000      7.192000      8.360000  11.0000 196.9666
     40    1 Au   79      4.743000      1.281000      8.360000  11.0000 196.9666
     41    1 Au   79      4.743000      4.236000      8.360000  11.0000 196.9666
     42    1 Au   79      4.743000      7.192000      8.360000  11.0000 196.9666
     43    1 Au   79      7.699000      1.281000      8.360000  11.0000 196.9666
     44    1 Au   79      7.699000      4.236000      8.360000  11.0000 196.9666
     45    1 Au   79      7.699000      7.192000      8.360000  11.0000 196.9666
     46    1 Au   79      0.309000      2.759000     10.450000  11.0000 196.9666
     47    1 Au   79      0.309000      5.714000     10.450000  11.0000 196.9666
     48    1 Au   79      0.309000      8.670000     10.450000  11.0000 196.9666
     49    1 Au   79      3.265000      2.759000     10.450000  11.0000 196.9666
     50    1 Au   79      3.265000      5.714000     10.450000  11.0000 196.9666
     51    1 Au   79      3.265000      8.670000     10.450000  11.0000 196.9666
     52    1 Au   79      6.221000      2.759000     10.450000  11.0000 196.9666
     53    1 Au   79      6.221000      5.714000     10.450000  11.0000 196.9666
     54    1 Au   79      6.221000      8.670000     10.450000  11.0000 196.9666
     55    1 Au   79      1.767000      4.215000     12.446000  11.0000 196.9666
     56    1 Au   79      1.766000      7.214000     12.446000  11.0000 196.9666
     57    1 Au   79      4.765000      4.213000     12.446000  11.0000 196.9666
     58    1 Au   79      4.767000      7.214000     12.445000  11.0000 196.9666
     59    1 Au   79      3.270932      5.718890     14.451439  11.0000 196.9666
     60    1 Au   79      3.492865      5.932516     17.135471  11.0000 196.9666
     61    2 H     1      3.209250      5.659807     18.925096   1.0000   1.0079
     62    2 H     1      3.325638      5.772092     19.795115   1.0000   1.0079
     63    1 Au   79      3.042494      5.498844     21.584734  11.0000 196.9666
     64    1 Au   79      3.261206      5.710306     24.269238  11.0000 196.9666
     65    1 Au   79      1.765000      4.213000     26.275000  11.0000 196.9666
     66    1 Au   79      1.765000      7.214000     26.274000  11.0000 196.9666
     67    1 Au   79      4.765000      4.214000     26.274000  11.0000 196.9666
     68    1 Au   79      4.765000      7.214000     26.275000  11.0000 196.9666
     69    1 Au   79      0.309000      2.759000     28.270000  11.0000 196.9666
     70    1 Au   79      0.309000      5.714000     28.270000  11.0000 196.9666
     71    1 Au   79      0.309000      8.670000     28.270000  11.0000 196.9666
     72    1 Au   79      3.265000      2.759000     28.270000  11.0000 196.9666
     73    1 Au   79      3.265000      5.714000     28.270000  11.0000 196.9666
     74    1 Au   79      3.265000      8.670000     28.270000  11.0000 196.9666
     75    1 Au   79      6.221000      2.759000     28.270000  11.0000 196.9666
     76    1 Au   79      6.221000      5.714000     28.270000  11.0000 196.9666
     77    1 Au   79      6.221000      8.670000     28.270000  11.0000 196.9666
     78    1 Au   79      1.787000      1.281000     30.360000  11.0000 196.9666
     79    1 Au   79      0.309000      2.759000     32.450000  11.0000 196.9666
     80    1 Au   79      1.787000      1.281000     34.540000  11.0000 196.9666
     81    1 Au   79      0.309000      2.759000     36.630000  11.0000 196.9666
     82    1 Au   79      4.743000      1.281000     30.360000  11.0000 196.9666
     83    1 Au   79      3.265000      2.759000     32.450000  11.0000 196.9666
     84    1 Au   79      4.743000      1.281000     34.540000  11.0000 196.9666
     85    1 Au   79      3.265000      2.759000     36.630000  11.0000 196.9666
     86    1 Au   79      7.699000      1.281000     30.360000  11.0000 196.9666
     87    1 Au   79      6.221000      2.759000     32.450000  11.0000 196.9666
     88    1 Au   79      7.699000      1.281000     34.540000  11.0000 196.9666
     89    1 Au   79      6.221000      2.759000     36.630000  11.0000 196.9666
     90    1 Au   79      1.787000      4.236000     30.360000  11.0000 196.9666
     91    1 Au   79      0.309000      5.714000     32.450000  11.0000 196.9666
     92    1 Au   79      1.787000      4.236000     34.540000  11.0000 196.9666
     93    1 Au   79      0.309000      5.714000     36.630000  11.0000 196.9666
     94    1 Au   79      4.743000      4.236000     30.360000  11.0000 196.9666
     95    1 Au   79      3.265000      5.714000     32.450000  11.0000 196.9666
     96    1 Au   79      4.743000      4.236000     34.540000  11.0000 196.9666
     97    1 Au   79      3.265000      5.714000     36.630000  11.0000 196.9666
     98    1 Au   79      7.699000      4.236000     30.360000  11.0000 196.9666
     99    1 Au   79      6.221000      5.714000     32.450000  11.0000 196.9666
    100    1 Au   79      7.699000      4.236000     34.540000  11.0000 196.9666
    101    1 Au   79      6.221000      5.714000     36.630000  11.0000 196.9666
    102    1 Au   79      1.787000      7.192000     30.360000  11.0000 196.9666
    103    1 Au   79      0.309000      8.670000     32.450000  11.0000 196.9666
    104    1 Au   79      1.787000      7.192000     34.540000  11.0000 196.9666
    105    1 Au   79      0.309000      8.670000     36.630000  11.0000 196.9666
    106    1 Au   79      4.743000      7.192000     30.360000  11.0000 196.9666
    107    1 Au   79      3.265000      8.670000     32.450000  11.0000 196.9666
    108    1 Au   79      4.743000      7.192000     34.540000  11.0000 196.9666
    109    1 Au   79      3.265000      8.670000     36.630000  11.0000 196.9666
    110    1 Au   79      7.699000      7.192000     30.360000  11.0000 196.9666
    111    1 Au   79      6.221000      8.670000     32.450000  11.0000 196.9666
    112    1 Au   79      7.699000      7.192000     34.540000  11.0000 196.9666
    113    1 Au   79      6.221000      8.670000     36.630000  11.0000 196.9666



 SCF PARAMETERS         Density guess:                                   RESTART
                        --------------------------------------------------------
                        max_scf:                                             500
                        max_scf_history:                                       0
                        max_diis:                                              4
                        --------------------------------------------------------
                        eps_scf:                                        1.00E-08
                        eps_scf_history:                                0.00E+00
                        eps_diis:                                       1.00E-01
                        eps_eigval:                                     1.00E-05
                        --------------------------------------------------------
                        level_shift [a.u.]:                             0.000000
                        added MOs                                       100    0
                        --------------------------------------------------------
                        Mixing method:                            BROYDEN_MIXING
                                                charge density mixing in g-space
                        --------------------------------------------------------
                        Smear method:                                FERMI_DIRAC
                        Electronic temperature [K]:                        300.0
                        Electronic temperature [a.u.]:                  9.50E-04
                        Accuracy threshold:                             1.00E-10
                        --------------------------------------------------------
                        No outer SCF

 PW_GRID| Information for grid number                                          1
 PW_GRID| Grid distributed over                                    64 processors
 PW_GRID| Real space group dimensions                                    64    1
 PW_GRID| the grid is blocked:                                                NO
 PW_GRID| Cutoff [a.u.]                                                    300.0
 PW_GRID| spherical cutoff:                                                   NO
 PW_GRID|   Bounds   1            -66      65                Points:         132
 PW_GRID|   Bounds   2            -66      65                Points:         132
 PW_GRID|   Bounds   3           -288     287                Points:         576
 PW_GRID| Volume element (a.u.^3)  0.2047E-02     Volume (a.u.^3)     20544.5734
 PW_GRID| Grid span                                                    FULLSPACE
 PW_GRID|   Distribution                         Average         Max         Min
 PW_GRID|   G-Vectors                           156816.0      156816      156816
 PW_GRID|   G-Rays                                1188.0        1188        1188
 PW_GRID|   Real Space Points                   156816.0      228096      152064

 PW_GRID| Information for grid number                                          2
 PW_GRID| Number of the reference grid                                         1
 PW_GRID| Grid distributed over                                    64 processors
 PW_GRID| Real space group dimensions                                    64    1
 PW_GRID| the grid is blocked:                                                NO
 PW_GRID| Cutoff [a.u.]                                                    100.0
 PW_GRID| spherical cutoff:                                                   NO
 PW_GRID|   Bounds   1            -37      37                Points:          75
 PW_GRID|   Bounds   2            -37      37                Points:          75
 PW_GRID|   Bounds   3           -165     164                Points:         330
 PW_GRID| Volume element (a.u.^3)  0.1107E-01     Volume (a.u.^3)     20544.5734
 PW_GRID| Grid span                                                    FULLSPACE
 PW_GRID|   Distribution                         Average         Max         Min
 PW_GRID|   G-Vectors                            29003.9       30300       27525
 PW_GRID|   G-Rays                                 386.7         404         367
 PW_GRID|   Real Space Points                    29003.9       49500       24750

 PW_GRID| Information for grid number                                          3
 PW_GRID| Number of the reference grid                                         1
 PW_GRID| Grid distributed over                                    64 processors
 PW_GRID| Real space group dimensions                                     8    8
 PW_GRID| the grid is blocked:                                                NO
 PW_GRID| Cutoff [a.u.]                                                     33.3
 PW_GRID| spherical cutoff:                                                   NO
 PW_GRID|   Bounds   1            -22      21                Points:          44
 PW_GRID|   Bounds   2            -22      21                Points:          44
 PW_GRID|   Bounds   3            -96      95                Points:         192
 PW_GRID| Volume element (a.u.^3)  0.5527E-01     Volume (a.u.^3)     20544.5734
 PW_GRID| Grid span                                                    FULLSPACE
 PW_GRID|   Distribution                         Average         Max         Min
 PW_GRID|   G-Vectors                             5808.0        6292        5456
 PW_GRID|   G-Rays                                 132.0         143         124
 PW_GRID|   Real Space Points                     5808.0        6912        4800

 PW_GRID| Information for grid number                                          4
 PW_GRID| Number of the reference grid                                         1
 PW_GRID| Grid distributed over                                    64 processors
 PW_GRID| Real space group dimensions                                     8    8
 PW_GRID| the grid is blocked:                                                NO
 PW_GRID| Cutoff [a.u.]                                                     11.1
 PW_GRID| spherical cutoff:                                                   NO
 PW_GRID|   Bounds   1            -12      12                Points:          25
 PW_GRID|   Bounds   2            -12      12                Points:          25
 PW_GRID|   Bounds   3            -55      54                Points:         110
 PW_GRID| Volume element (a.u.^3)  0.2988         Volume (a.u.^3)     20544.5734
 PW_GRID| Grid span                                                    FULLSPACE
 PW_GRID|   Distribution                         Average         Max         Min
 PW_GRID|   G-Vectors                             1074.2        1400         725
 PW_GRID|   G-Rays                                  43.0          56          29
 PW_GRID|   Real Space Points                     1074.2        1760         990

 POISSON| Solver                                                        PERIODIC
 POISSON| Periodicity                                                        XYZ

 RS_GRID| Information for grid number                                          1
 RS_GRID|   Bounds   1            -66      65                Points:         132
 RS_GRID|   Bounds   2            -66      65                Points:         132
 RS_GRID|   Bounds   3           -288     287                Points:         576
 RS_GRID| Real space distribution over                                 64 groups
 RS_GRID| Real space distribution along direction                              3
 RS_GRID| Border size                                                         35
 RS_GRID|   Distribution                         Average         Max         Min
 RS_GRID|   Planes                                  79.0          79          79

 RS_GRID| Information for grid number                                          2
 RS_GRID|   Bounds   1            -37      37                Points:          75
 RS_GRID|   Bounds   2            -37      37                Points:          75
 RS_GRID|   Bounds   3           -165     164                Points:         330
 RS_GRID| Real space distribution over                                 64 groups
 RS_GRID| Real space distribution along direction                              3
 RS_GRID| Border size                                                         24
 RS_GRID|   Distribution                         Average         Max         Min
 RS_GRID|   Planes                                  53.2          54          53

 RS_GRID| Information for grid number                                          3
 RS_GRID|   Bounds   1            -22      21                Points:          44
 RS_GRID|   Bounds   2            -22      21                Points:          44
 RS_GRID|   Bounds   3            -96      95                Points:         192
 RS_GRID| Real space fully replicated
 RS_GRID| Group size                                                           1

 RS_GRID| Information for grid number                                          4
 RS_GRID|   Bounds   1            -12      12                Points:          25
 RS_GRID|   Bounds   2            -12      12                Points:          25
 RS_GRID|   Bounds   3            -55      54                Points:         110
 RS_GRID| Real space fully replicated
 RS_GRID| Group size                                                           1

 KPOINTS| Number of kpoint groups                                              1
 KPOINTS| Size of each kpoint group                                           64
 KPOINTS| Number of kpoints per group                                          9

 BFGS| Use rational function optimization for step estimation:                NO
 BFGS| Use model Hessian for initial guess:                                  YES
 BFGS| Restart Hessian:                                                       NO
 BFGS| Trust radius:                                                       0.472

 *******************************************************************************
 ***                     STARTING GEOMETRY OPTIMIZATION                      ***
 ***                                   BFGS                                  ***
 *******************************************************************************

 Number of electrons:                                                       1223
 Number of occupied orbitals:                                                612
 Number of molecular orbitals:                                               712

 Number of orbital functions:                                               1009
 Number of independent orbital functions:                                   1009

 Extrapolation method: initial_guess


 SCF WAVEFUNCTION OPTIMIZATION

  Step     Update method      Time    Convergence         Total energy    Change
  ------------------------------------------------------------------------------
 SMEAGOL DEBUG| Number of electrons in the unit cell =      1222.9673689821
     1 NoMix/SMGL  0.30E+00  131.7     1.69136629     -3690.6560969546 -3.69E+03
 SMEAGOL DEBUG| Number of electrons in the unit cell =      1224.0631885510
     2 Broy./SMGL  0.30E+00   32.5     6.79317731     -3686.0874218113  4.57E+00
 SMEAGOL DEBUG| Number of electrons in the unit cell =      1222.4120506686
     3 Broy./SMGL  0.30E+00   32.4     6.78308924     -3772.9972091958 -8.69E+01
 SMEAGOL DEBUG| Number of electrons in the unit cell =      1222.8741619386
     4 Broy./SMGL  0.30E+00   32.3     0.38689887     -3693.8403119551  7.92E+01
 SMEAGOL DEBUG| Number of electrons in the unit cell =      1223.1929544086
     5 Broy./SMGL  0.30E+00   32.3     0.09931035     -3685.3502625782  8.49E+00
 SMEAGOL DEBUG| Number of electrons in the unit cell =      1223.0379944107
     6 Broy./SMGL  0.30E+00   32.4     0.02502080     -3688.1773136154 -2.83E+00
 SMEAGOL DEBUG| Number of electrons in the unit cell =      1223.0882471368
     7 Broy./SMGL  0.30E+00   32.4     0.01070315     -3688.0010115132  1.76E-01
 SMEAGOL DEBUG| Number of electrons in the unit cell =      1223.1609259236
     8 Broy./SMGL  0.30E+00   32.4     0.01764499     -3688.4431816091 -4.42E-01
 SMEAGOL DEBUG| Number of electrons in the unit cell =      1223.1690875494
     9 Broy./SMGL  0.30E+00   32.4     0.00839994     -3689.3167247643 -8.74E-01
 SMEAGOL DEBUG| Number of electrons in the unit cell =      1223.1631762600
    10 Broy./SMGL  0.30E+00   32.5     0.00619422     -3689.7104767021 -3.94E-01
 SMEAGOL DEBUG| Number of electrons in the unit cell =      1223.1465273890
    11 Broy./SMGL  0.30E+00   32.5     0.01198452     -3689.9023134690 -1.92E-01
 SMEAGOL DEBUG| Number of electrons in the unit cell =      1223.0791029465
    12 Broy./SMGL  0.30E+00   32.5     0.02199415     -3690.2355696414 -3.33E-01
 SMEAGOL DEBUG| Number of electrons in the unit cell =      1223.0640061463
    13 Broy./SMGL  0.30E+00   32.4     0.01175208     -3691.1377595840 -9.02E-01
 SMEAGOL DEBUG| Number of electrons in the unit cell =      1223.0430513996
    14 Broy./SMGL  0.30E+00   32.4     0.01210156     -3690.5642357124  5.74E-01
 SMEAGOL DEBUG| Number of electrons in the unit cell =      1223.0104762970
    15 Broy./SMGL  0.30E+00   32.5     0.00573200     -3690.9807157447 -4.16E-01
 SMEAGOL DEBUG| Number of electrons in the unit cell =      1222.9791539907
    16 Broy./SMGL  0.30E+00   32.4     0.00437568     -3690.7927679912  1.88E-01
 SMEAGOL DEBUG| Number of electrons in the unit cell =      1222.9709373610
    17 Broy./SMGL  0.30E+00   32.5     0.00427549     -3690.6061828778  1.87E-01
 SMEAGOL DEBUG| Number of electrons in the unit cell =      1222.9595707270
    18 Broy./SMGL  0.30E+00   32.4     0.00519377     -3690.7559646029 -1.50E-01
 SMEAGOL DEBUG| Number of electrons in the unit cell =      1222.9583300985
    19 Broy./SMGL  0.30E+00   32.4     0.00320441     -3690.5626351737  1.93E-01
 SMEAGOL DEBUG| Number of electrons in the unit cell =      1222.9568117834
    20 Broy./SMGL  0.30E+00   32.4     0.00143762     -3690.6786861484 -1.16E-01
 SMEAGOL DEBUG| Number of electrons in the unit cell =      1222.9529852236
    21 Broy./SMGL  0.30E+00   32.4     0.00066660     -3690.6238912726  5.48E-02
 SMEAGOL DEBUG| Number of electrons in the unit cell =      1222.9529819570
    22 Broy./SMGL  0.30E+00   32.4     0.00005170     -3690.6459043551 -2.20E-02
 SMEAGOL DEBUG| Number of electrons in the unit cell =      1222.9510315783
    23 Broy./SMGL  0.30E+00   32.5     0.00017448     -3690.6444111843  1.49E-03
 SMEAGOL DEBUG| Number of electrons in the unit cell =      1222.9512085134
    24 Broy./SMGL  0.30E+00   32.5     0.00009108     -3690.6366537901  7.76E-03
 SMEAGOL DEBUG| Number of electrons in the unit cell =      1222.9514082836
    25 Broy./SMGL  0.30E+00   32.4     0.00010835     -3690.6399064806 -3.25E-03
 SMEAGOL DEBUG| Number of electrons in the unit cell =      1222.9518053109
    26 Broy./SMGL  0.30E+00   32.5     0.00002664     -3690.6359797583  3.93E-03
 SMEAGOL DEBUG| Number of electrons in the unit cell =      1222.9520847080
    27 Broy./SMGL  0.30E+00   32.4     0.00007052     -3690.6371767331 -1.20E-03
 SMEAGOL DEBUG| Number of electrons in the unit cell =      1222.9522552134
    28 Broy./SMGL  0.30E+00   32.4     0.00004260     -3690.6395898655 -2.41E-03
 SMEAGOL DEBUG| Number of electrons in the unit cell =      1222.9524848516
    29 Broy./SMGL  0.30E+00   32.4     0.00001189     -3690.6381168224  1.47E-03
 SMEAGOL DEBUG| Number of electrons in the unit cell =      1222.9526115511
    30 Broy./SMGL  0.30E+00   32.4     0.00000858     -3690.6385411371 -4.24E-04
 SMEAGOL DEBUG| Number of electrons in the unit cell =      1222.9526556154
    31 Broy./SMGL  0.30E+00   32.4     0.00002787     -3690.6385692971 -2.82E-05
 SMEAGOL DEBUG| Number of electrons in the unit cell =      1222.9526416035
    32 Broy./SMGL  0.30E+00   32.4     0.00002095     -3690.6375815440  9.88E-04
 SMEAGOL DEBUG| Number of electrons in the unit cell =      1222.9526565477
    33 Broy./SMGL  0.30E+00   32.5     0.00000934     -3690.6383280204 -7.46E-04
 SMEAGOL DEBUG| Number of electrons in the unit cell =      1222.9526331942
    34 Broy./SMGL  0.30E+00   32.5     0.00000596     -3690.6380203545  3.08E-04
 SMEAGOL DEBUG| Number of electrons in the unit cell =      1222.9526150509
    35 Broy./SMGL  0.30E+00   32.4     0.00000319     -3690.6382218231 -2.01E-04
 SMEAGOL DEBUG| Number of electrons in the unit cell =      1222.9525945714
    36 Broy./SMGL  0.30E+00   32.4     0.00000184     -3690.6381888802  3.29E-05
 SMEAGOL DEBUG| Number of electrons in the unit cell =      1222.9525846915
    37 Broy./SMGL  0.30E+00   32.4     0.00000253     -3690.6382573266 -6.84E-05
 SMEAGOL DEBUG| Number of electrons in the unit cell =      1222.9525784753
    38 Broy./SMGL  0.30E+00   32.4     0.00000039     -3690.6381701831  8.71E-05
 SMEAGOL DEBUG| Number of electrons in the unit cell =      1222.9525727858
    39 Broy./SMGL  0.30E+00   32.5     0.00000056     -3690.6381833570 -1.32E-05
 SMEAGOL DEBUG| Number of electrons in the unit cell =      1222.9525718611
    40 Broy./SMGL  0.30E+00   32.5     0.00000058     -3690.6381649801  1.84E-05
 SMEAGOL DEBUG| Number of electrons in the unit cell =      1222.9525732963
    41 Broy./SMGL  0.30E+00   32.5     0.00000012     -3690.6381843934 -1.94E-05
 SMEAGOL DEBUG| Number of electrons in the unit cell =      1222.9525750268
    42 Broy./SMGL  0.30E+00   32.4     0.00000019     -3690.6381811405  3.25E-06
 SMEAGOL DEBUG| Number of electrons in the unit cell =      1222.9525763057
    43 Broy./SMGL  0.30E+00   32.4     0.00000011     -3690.6381882896 -7.15E-06
 SMEAGOL DEBUG| Number of electrons in the unit cell =      1222.9525770841
    44 Broy./SMGL  0.30E+00   32.5     0.00000017     -3690.6381914789 -3.19E-06
 SMEAGOL DEBUG| Number of electrons in the unit cell =      1222.9525779128
    45 Broy./SMGL  0.30E+00   32.4     0.00000004     -3690.6381862930  5.19E-06
 SMEAGOL DEBUG| Number of electrons in the unit cell =      1222.9525780893
    46 Broy./SMGL  0.30E+00   32.4     0.00000008     -3690.6381865892 -2.96E-07
 SMEAGOL DEBUG| Number of electrons in the unit cell =      1222.9525781480
    47 Broy./SMGL  0.30E+00   32.4     0.00000004     -3690.6381894389 -2.85E-06
 SMEAGOL DEBUG| Number of electrons in the unit cell =      1222.9525784750
    48 Broy./SMGL  0.30E+00   32.4     0.00000004     -3690.6381879752  1.46E-06
 SMEAGOL DEBUG| Number of electrons in the unit cell =      1222.9525782954
    49 Broy./SMGL  0.30E+00   32.4     0.00000003     -3690.6381879568  1.84E-08
 SMEAGOL DEBUG| Number of electrons in the unit cell =      1222.9525781467
    50 Broy./SMGL  0.30E+00   32.5     0.00000002     -3690.6381889655 -1.01E-06
 SMEAGOL DEBUG| Number of electrons in the unit cell =      1222.9525780037
    51 Broy./SMGL  0.30E+00   32.4     3.9968E-09     -3690.6381882304  7.35E-07

  *** SCF run converged in    51 steps ***


  Electronic density on regular grids:      -1222.9525780037        0.0474219963
  Core density on regular grids:             1222.9999997993       -0.0000002007
  Total charge density on r-space grids:        0.0474217956
  Total charge density g-space grids:           0.0474217956

  Overlap energy of the core charge distribution:               0.00000053410942
  Self energy of the core charge distribution:              -6424.54153828207382
  Core Hamiltonian energy:                                   2053.18051168451984
  Hartree energy:                                            1264.23072495081124
  Exchange-correlation energy:                               -583.50788711776090
  Electronic entropic energy:                                   0.00000000000000
  Fermi energy:                                                 0.00000000000000

  Total energy:                                             -3690.63818823039401

 The electron density is written in cube file format to the file:

 V-ELECTRON_DENSITY-1_0.cube

 !-----------------------------------------------------------------------------!
                     Mulliken Population Analysis

 #  Atom  Element  Kind  Atomic population                           Net charge
       1     Au       1         11.000099                             -0.000099
       2     Au       1         10.999231                              0.000769
       3     Au       1         10.987671                              0.012329
       4     Au       1         10.985122                              0.014878
       5     Au       1         11.000160                             -0.000160
       6     Au       1         10.999498                              0.000502
       7     Au       1         10.987406                              0.012594
       8     Au       1         10.976999                              0.023001
       9     Au       1         10.999914                              0.000086
      10     Au       1         10.999426                              0.000574
      11     Au       1         10.988940                              0.011060
      12     Au       1         10.985369                              0.014631
      13     Au       1         10.999858                              0.000142
      14     Au       1         10.999450                              0.000550
      15     Au       1         10.987582                              0.012418
      16     Au       1         10.976948                              0.023052
      17     Au       1         10.999920                              0.000080
      18     Au       1         10.999801                              0.000199
      19     Au       1         10.987541                              0.012459
      20     Au       1         10.974236                              0.025764
      21     Au       1         10.999675                              0.000325
      22     Au       1         10.999646                              0.000354
      23     Au       1         10.987230                              0.012770
      24     Au       1         10.977352                              0.022648
      25     Au       1         11.000143                             -0.000143
      26     Au       1         10.999545                              0.000455
      27     Au       1         10.987769                              0.012231
      28     Au       1         10.985522                              0.014478
      29     Au       1         11.000205                             -0.000205
      30     Au       1         10.999813                              0.000187
      31     Au       1         10.987782                              0.012218
      32     Au       1         10.977569                              0.022431
      33     Au       1         10.999960                              0.000040
      34     Au       1         10.999742                              0.000258
      35     Au       1         10.987198                              0.012802
      36     Au       1         10.985596                              0.014404
      37     Au       1         10.988433                              0.011567
      38     Au       1         10.949270                              0.050730
      39     Au       1         10.949481                              0.050519
      40     Au       1         10.989185                              0.010815
      41     Au       1         10.949211                              0.050789
      42     Au       1         10.949563                              0.050437
      43     Au       1         11.019069                             -0.019069
      44     Au       1         10.987981                              0.012019
      45     Au       1         10.988888                              0.011112
      46     Au       1         11.083002                             -0.083002
      47     Au       1         11.030281                             -0.030281
      48     Au       1         11.083150                             -0.083150
      49     Au       1         11.030386                             -0.030386
      50     Au       1         10.888847                              0.111153
      51     Au       1         11.031741                             -0.031741
      52     Au       1         11.083007                             -0.083007
      53     Au       1         11.031338                             -0.031338
      54     Au       1         11.082984                             -0.082984
      55     Au       1         11.022504                             -0.022504
      56     Au       1         11.018014                             -0.018014
      57     Au       1         11.017705                             -0.017705
      58     Au       1         11.013341                             -0.013341
      59     Au       1         11.110682                             -0.110682
      60     Au       1         11.054540                             -0.054540
      61     H        2          0.952719                              0.047281
      62     H        2          0.958856                              0.041144
      63     Au       1         11.068043                             -0.068043
      64     Au       1         11.169070                             -0.169070
      65     Au       1         11.008035                             -0.008035
      66     Au       1         11.009356                             -0.009356
      67     Au       1         11.009389                             -0.009389
      68     Au       1         11.012156                             -0.012156
      69     Au       1         11.028169                             -0.028169
      70     Au       1         10.988340                              0.011660
      71     Au       1         11.028901                             -0.028901
      72     Au       1         10.988554                              0.011446
      73     Au       1         10.872895                              0.127105
      74     Au       1         10.990301                              0.009699
      75     Au       1         11.028790                             -0.028790
      76     Au       1         10.989933                              0.010067
      77     Au       1         11.029435                             -0.029435
      78     Au       1         10.997293                              0.002707
      79     Au       1         10.987860                              0.012140
      80     Au       1         10.999938                              0.000062
      81     Au       1         10.999680                              0.000320
      82     Au       1         10.997273                              0.002727
      83     Au       1         10.987370                              0.012630
      84     Au       1         11.000024                             -0.000024
      85     Au       1         10.999927                              0.000073
      86     Au       1         11.020989                             -0.020989
      87     Au       1         10.987432                              0.012568
      88     Au       1         10.999864                              0.000136
      89     Au       1         10.999865                              0.000135
      90     Au       1         10.964659                              0.035341
      91     Au       1         10.987314                              0.012686
      92     Au       1         10.999661                              0.000339
      93     Au       1         10.999880                              0.000120
      94     Au       1         10.964302                              0.035698
      95     Au       1         10.991908                              0.008092
      96     Au       1         10.999732                              0.000268
      97     Au       1         11.000127                             -0.000127
      98     Au       1         10.996872                              0.003128
      99     Au       1         10.987330                              0.012670
     100     Au       1         10.999513                              0.000487
     101     Au       1         11.000064                             -0.000064
     102     Au       1         10.964572                              0.035428
     103     Au       1         10.987583                              0.012417
     104     Au       1         10.999956                              0.000044
     105     Au       1         10.999984                              0.000016
     106     Au       1         10.964232                              0.035768
     107     Au       1         10.987503                              0.012497
     108     Au       1         11.000027                             -0.000027
     109     Au       1         11.000230                             -0.000230
     110     Au       1         10.997083                              0.002917
     111     Au       1         10.987077                              0.012923
     112     Au       1         10.999822                              0.000178
     113     Au       1         11.000168                             -0.000168
 # Total charge                           1222.952578                  0.047422

 !-----------------------------------------------------------------------------!

 !-----------------------------------------------------------------------------!
                           Hirshfeld Charges

  #Atom  Element  Kind  Ref Charge     Population                    Net charge
      1       Au     1      11.000         11.000                        -0.000
      2       Au     1      11.000         11.000                         0.000
      3       Au     1      11.000         10.999                         0.001
      4       Au     1      11.000         10.989                         0.011
      5       Au     1      11.000         11.000                        -0.000
      6       Au     1      11.000         11.000                         0.000
      7       Au     1      11.000         10.999                         0.001
      8       Au     1      11.000         10.991                         0.009
      9       Au     1      11.000         11.000                         0.000
     10       Au     1      11.000         11.000                         0.000
     11       Au     1      11.000         11.000                         0.000
     12       Au     1      11.000         10.988                         0.012
     13       Au     1      11.000         11.000                         0.000
     14       Au     1      11.000         11.000                         0.000
     15       Au     1      11.000         10.999                         0.001
     16       Au     1      11.000         10.991                         0.009
     17       Au     1      11.000         11.000                         0.000
     18       Au     1      11.000         11.000                        -0.000
     19       Au     1      11.000         10.999                         0.001
     20       Au     1      11.000         10.988                         0.012
     21       Au     1      11.000         11.000                         0.000
     22       Au     1      11.000         11.000                        -0.000
     23       Au     1      11.000         10.999                         0.001
     24       Au     1      11.000         10.990                         0.010
     25       Au     1      11.000         11.000                        -0.000
     26       Au     1      11.000         11.000                         0.000
     27       Au     1      11.000         10.999                         0.001
     28       Au     1      11.000         10.988                         0.012
     29       Au     1      11.000         11.000                        -0.000
     30       Au     1      11.000         11.000                        -0.000
     31       Au     1      11.000         10.999                         0.001
     32       Au     1      11.000         10.990                         0.010
     33       Au     1      11.000         11.000                         0.000
     34       Au     1      11.000         11.000                        -0.000
     35       Au     1      11.000         10.999                         0.001
     36       Au     1      11.000         10.988                         0.012
     37       Au     1      11.000         10.996                         0.004
     38       Au     1      11.000         10.999                         0.001
     39       Au     1      11.000         11.000                         0.000
     40       Au     1      11.000         10.997                         0.003
     41       Au     1      11.000         11.000                         0.000
     42       Au     1      11.000         11.000                         0.000
     43       Au     1      11.000         10.995                         0.005
     44       Au     1      11.000         10.996                         0.004
     45       Au     1      11.000         10.997                         0.003
     46       Au     1      11.000         11.035                        -0.035
     47       Au     1      11.000         11.012                        -0.012
     48       Au     1      11.000         11.035                        -0.035
     49       Au     1      11.000         11.012                        -0.012
     50       Au     1      11.000         10.973                         0.027
     51       Au     1      11.000         11.013                        -0.013
     52       Au     1      11.000         11.035                        -0.035
     53       Au     1      11.000         11.013                        -0.013
     54       Au     1      11.000         11.035                        -0.035
     55       Au     1      11.000         10.987                         0.013
     56       Au     1      11.000         10.984                         0.016
     57       Au     1      11.000         10.984                         0.016
     58       Au     1      11.000         10.981                         0.019
     59       Au     1      11.000         11.024                        -0.024
     60       Au     1      11.000         10.981                         0.019
     61       H      2       1.000          1.039                        -0.039
     62       H      2       1.000          1.047                        -0.047
     63       Au     1      11.000         10.987                         0.013
     64       Au     1      11.000         11.064                        -0.064
     65       Au     1      11.000         10.971                         0.029
     66       Au     1      11.000         10.972                         0.028
     67       Au     1      11.000         10.972                         0.028
     68       Au     1      11.000         10.973                         0.027
     69       Au     1      11.000         11.032                        -0.032
     70       Au     1      11.000         11.014                        -0.014
     71       Au     1      11.000         11.032                        -0.032
     72       Au     1      11.000         11.014                        -0.014
     73       Au     1      11.000         10.975                         0.025
     74       Au     1      11.000         11.014                        -0.014
     75       Au     1      11.000         11.032                        -0.032
     76       Au     1      11.000         11.014                        -0.014
     77       Au     1      11.000         11.033                        -0.033
     78       Au     1      11.000         10.977                         0.023
     79       Au     1      11.000         10.998                         0.002
     80       Au     1      11.000         11.000                        -0.000
     81       Au     1      11.000         11.000                         0.000
     82       Au     1      11.000         10.977                         0.023
     83       Au     1      11.000         10.998                         0.002
     84       Au     1      11.000         11.000                        -0.000
     85       Au     1      11.000         11.000                         0.000
     86       Au     1      11.000         10.981                         0.019
     87       Au     1      11.000         10.998                         0.002
     88       Au     1      11.000         11.000                         0.000
     89       Au     1      11.000         11.000                         0.000
     90       Au     1      11.000         10.980                         0.020
     91       Au     1      11.000         10.998                         0.002
     92       Au     1      11.000         11.000                         0.000
     93       Au     1      11.000         11.000                         0.000
     94       Au     1      11.000         10.980                         0.020
     95       Au     1      11.000         10.999                         0.001
     96       Au     1      11.000         11.000                         0.000
     97       Au     1      11.000         11.000                        -0.000
     98       Au     1      11.000         10.977                         0.023
     99       Au     1      11.000         10.998                         0.002
    100       Au     1      11.000         11.000                         0.000
    101       Au     1      11.000         11.000                        -0.000
    102       Au     1      11.000         10.980                         0.020
    103       Au     1      11.000         10.998                         0.002
    104       Au     1      11.000         11.000                        -0.000
    105       Au     1      11.000         11.000                         0.000
    106       Au     1      11.000         10.980                         0.020
    107       Au     1      11.000         10.998                         0.002
    108       Au     1      11.000         11.000                        -0.000
    109       Au     1      11.000         11.000                        -0.000
    110       Au     1      11.000         10.977                         0.023
    111       Au     1      11.000         10.998                         0.002
    112       Au     1      11.000         11.000                         0.000
    113       Au     1      11.000         11.000                        -0.000

  Total Charge                                                            0.047
 !-----------------------------------------------------------------------------!
 Calculating transmission coefficient
 SMEAGOL DEBUG| Number of electrons in the unit cell =      1222.9525780724

 ENERGY| Total FORCE_EVAL ( QS ) energy [a.u.]:            -3690.638188291080951

 ATOMIC FORCES in [a.u.]

 # Atom   Kind   Element          X              Y              Z
      1      1      Au          0.00000000     0.00000000     0.00000000
      2      1      Au          0.00000000     0.00000000     0.00000000
      3      1      Au          0.00000000     0.00000000     0.00000000
      4      1      Au          0.00000000     0.00000000     0.00000000
      5      1      Au          0.00000000     0.00000000     0.00000000
      6      1      Au          0.00000000     0.00000000     0.00000000
      7      1      Au          0.00000000     0.00000000     0.00000000
      8      1      Au          0.00000000     0.00000000     0.00000000
      9      1      Au          0.00000000     0.00000000     0.00000000
     10      1      Au          0.00000000     0.00000000     0.00000000
     11      1      Au          0.00000000     0.00000000     0.00000000
     12      1      Au          0.00000000     0.00000000     0.00000000
     13      1      Au          0.00000000     0.00000000     0.00000000
     14      1      Au          0.00000000     0.00000000     0.00000000
     15      1      Au          0.00000000     0.00000000     0.00000000
     16      1      Au          0.00000000     0.00000000     0.00000000
     17      1      Au          0.00000000     0.00000000     0.00000000
     18      1      Au          0.00000000     0.00000000     0.00000000
     19      1      Au          0.00000000     0.00000000     0.00000000
     20      1      Au          0.00000000     0.00000000     0.00000000
     21      1      Au          0.00000000     0.00000000     0.00000000
     22      1      Au          0.00000000     0.00000000     0.00000000
     23      1      Au          0.00000000     0.00000000     0.00000000
     24      1      Au          0.00000000     0.00000000     0.00000000
     25      1      Au          0.00000000     0.00000000     0.00000000
     26      1      Au          0.00000000     0.00000000     0.00000000
     27      1      Au          0.00000000     0.00000000     0.00000000
     28      1      Au          0.00000000     0.00000000     0.00000000
     29      1      Au          0.00000000     0.00000000     0.00000000
     30      1      Au          0.00000000     0.00000000     0.00000000
     31      1      Au          0.00000000     0.00000000     0.00000000
     32      1      Au          0.00000000     0.00000000     0.00000000
     33      1      Au          0.00000000     0.00000000     0.00000000
     34      1      Au          0.00000000     0.00000000     0.00000000
     35      1      Au          0.00000000     0.00000000     0.00000000
     36      1      Au          0.00000000     0.00000000     0.00000000
     37      1      Au          0.00000000     0.00000000     0.00000000
     38      1      Au          0.00000000     0.00000000     0.00000000
     39      1      Au          0.00000000     0.00000000     0.00000000
     40      1      Au          0.00000000     0.00000000     0.00000000
     41      1      Au          0.00000000     0.00000000     0.00000000
     42      1      Au          0.00000000     0.00000000     0.00000000
     43      1      Au          0.00000000     0.00000000     0.00000000
     44      1      Au          0.00000000     0.00000000     0.00000000
     45      1      Au          0.00000000     0.00000000     0.00000000
     46      1      Au          0.00000000     0.00000000     0.00000000
     47      1      Au          0.00000000     0.00000000     0.00000000
     48      1      Au          0.00000000     0.00000000     0.00000000
     49      1      Au          0.00000000     0.00000000     0.00000000
     50      1      Au          0.00000000     0.00000000     0.00000000
     51      1      Au          0.00000000     0.00000000     0.00000000
     52      1      Au          0.00000000     0.00000000     0.00000000
     53      1      Au          0.00000000     0.00000000     0.00000000
     54      1      Au          0.00000000     0.00000000     0.00000000
     55      1      Au          0.00000000     0.00000000     0.00000000
     56      1      Au          0.00000000     0.00000000     0.00000000
[...]
     17       Au     1      11.000         11.000                         0.000
     18       Au     1      11.000         11.000                        -0.000
     19       Au     1      11.000         10.999                         0.001
     20       Au     1      11.000         10.988                         0.012
     21       Au     1      11.000         11.000                         0.000
     22       Au     1      11.000         11.000                        -0.000
     23       Au     1      11.000         10.999                         0.001
     24       Au     1      11.000         10.990                         0.010
     25       Au     1      11.000         11.000                        -0.000
     26       Au     1      11.000         11.000                         0.000
     27       Au     1      11.000         10.999                         0.001
     28       Au     1      11.000         10.988                         0.012
     29       Au     1      11.000         11.000                        -0.000
     30       Au     1      11.000         11.000                        -0.000
     31       Au     1      11.000         10.999                         0.001
     32       Au     1      11.000         10.990                         0.010
     33       Au     1      11.000         11.000                         0.000
     34       Au     1      11.000         11.000                        -0.000
     35       Au     1      11.000         10.999                         0.001
     36       Au     1      11.000         10.987                         0.013
     37       Au     1      11.000         10.995                         0.005
     38       Au     1      11.000         10.999                         0.001
     39       Au     1      11.000         11.000                         0.000
     40       Au     1      11.000         10.998                         0.002
     41       Au     1      11.000         11.000                         0.000
     42       Au     1      11.000         11.000                        -0.000
     43       Au     1      11.000         10.995                         0.005
     44       Au     1      11.000         10.995                         0.005
     45       Au     1      11.000         10.998                         0.002
     46       Au     1      11.000         11.035                        -0.035
     47       Au     1      11.000         11.012                        -0.012
     48       Au     1      11.000         11.035                        -0.035
     49       Au     1      11.000         11.012                        -0.012
     50       Au     1      11.000         10.973                         0.027
     51       Au     1      11.000         11.013                        -0.013
     52       Au     1      11.000         11.035                        -0.035
     53       Au     1      11.000         11.013                        -0.013
     54       Au     1      11.000         11.035                        -0.035
     55       Au     1      11.000         10.990                         0.010
     56       Au     1      11.000         10.985                         0.015
     57       Au     1      11.000         10.985                         0.015
     58       Au     1      11.000         10.981                         0.019
     59       Au     1      11.000         11.019                        -0.019
     60       Au     1      11.000         10.972                         0.028
     61       H      2       1.000          1.040                        -0.040
     62       H      2       1.000          1.051                        -0.051
     63       Au     1      11.000         10.992                         0.008
     64       Au     1      11.000         11.070                        -0.070
     65       Au     1      11.000         10.971                         0.029
     66       Au     1      11.000         10.971                         0.029
     67       Au     1      11.000         10.971                         0.029
     68       Au     1      11.000         10.970                         0.030
     69       Au     1      11.000         11.032                        -0.032
     70       Au     1      11.000         11.014                        -0.014
     71       Au     1      11.000         11.032                        -0.032
     72       Au     1      11.000         11.014                        -0.014
     73       Au     1      11.000         10.975                         0.025
     74       Au     1      11.000         11.014                        -0.014
     75       Au     1      11.000         11.032                        -0.032
     76       Au     1      11.000         11.014                        -0.014
     77       Au     1      11.000         11.032                        -0.032
     78       Au     1      11.000         10.977                         0.023
     79       Au     1      11.000         10.998                         0.002
     80       Au     1      11.000         11.000                        -0.000
     81       Au     1      11.000         11.000                         0.000
     82       Au     1      11.000         10.977                         0.023
     83       Au     1      11.000         10.998                         0.002
     84       Au     1      11.000         11.000                        -0.000
     85       Au     1      11.000         11.000                         0.000
     86       Au     1      11.000         10.981                         0.019
     87       Au     1      11.000         10.998                         0.002
     88       Au     1      11.000         11.000                         0.000
     89       Au     1      11.000         11.000                         0.000
     90       Au     1      11.000         10.980                         0.020
     91       Au     1      11.000         10.998                         0.002
     92       Au     1      11.000         11.000                         0.000
     93       Au     1      11.000         11.000                         0.000
     94       Au     1      11.000         10.980                         0.020
     95       Au     1      11.000         10.999                         0.001
     96       Au     1      11.000         11.000                         0.000
     97       Au     1      11.000         11.000                        -0.000
     98       Au     1      11.000         10.977                         0.023
     99       Au     1      11.000         10.998                         0.002
    100       Au     1      11.000         11.000                         0.000
    101       Au     1      11.000         11.000                        -0.000
    102       Au     1      11.000         10.980                         0.020
    103       Au     1      11.000         10.998                         0.002
    104       Au     1      11.000         11.000                        -0.000
    105       Au     1      11.000         11.000                         0.000
    106       Au     1      11.000         10.980                         0.020
    107       Au     1      11.000         10.998                         0.002
    108       Au     1      11.000         11.000                        -0.000
    109       Au     1      11.000         11.000                        -0.000
    110       Au     1      11.000         10.977                         0.023
    111       Au     1      11.000         10.998                         0.002
    112       Au     1      11.000         11.000                         0.000
    113       Au     1      11.000         11.000                        -0.000

  Total Charge                                                            0.047
 !-----------------------------------------------------------------------------!
 Calculating transmission coefficient

 ENERGY| Total FORCE_EVAL ( QS ) energy [a.u.]:            -3690.637084086978120

 -------------------------------------------------------------------------------
 -                                                                             -
 -                                DBCSR STATISTICS                             -
 -                                                                             -
 -------------------------------------------------------------------------------
 COUNTER                                    TOTAL       BLAS       SMM       ACC
 flops inhomo. stacks                           0       0.0%      0.0%      0.0%
 flops total                         0.000000E+00       0.0%      0.0%      0.0%
 flops max/rank                      0.000000E+00       0.0%      0.0%      0.0%
 matmuls inhomo. stacks                         0       0.0%      0.0%      0.0%
 matmuls total                                  0       0.0%      0.0%      0.0%
 number of processed stacks                     0       0.0%      0.0%      0.0%
 average stack size                                     0.0       0.0       0.0
 marketing flops                     0.000000E+00
 -------------------------------------------------------------------------------
 -                                                                             -
 -                      DBCSR MESSAGE PASSING PERFORMANCE                      -
 -                                                                             -
 -------------------------------------------------------------------------------
 ROUTINE             CALLS      AVE VOLUME [Bytes]
 MP_Bcast                1                     12.
 MP_Allreduce       141629                      8.
 MP_Alltoall         58205                  53303.
 -------------------------------------------------------------------------------

 -------------------------------------------------------------------------------
 -                                                                             -
 -                                DBM STATISTICS                               -
 -                                                                             -
 -------------------------------------------------------------------------------
    M  x    N  x    K                                          COUNT     PERCENT
 -------------------------------------------------------------------------------

 -------------------------------------------------------------------------------
 -                                                                             -
 -                                GRID STATISTICS                              -
 -                                                                             -
 -------------------------------------------------------------------------------
 LP    KERNEL             BACKEND                              COUNT     PERCENT
 4     collocate ortho    REF                              186356155      49.01%
 4     integrate ortho    REF                              182970740      48.12%
 5     integrate ortho    REF                                3314629       0.87%
 0     collocate general  REF                                2408256       0.63%
 0     integrate general  REF                                2140672       0.56%
 3     collocate ortho    REF                                1197112       0.31%
 3     integrate ortho    REF                                1179223       0.31%
 1     integrate general  REF                                 260352       0.07%
 2     collocate ortho    REF                                 224664       0.06%
 2     integrate ortho    REF                                 220557       0.06%
 -------------------------------------------------------------------------------

 MEMORY| Estimated peak process memory [MiB]                                 700

 -------------------------------------------------------------------------------
 ----                             MULTIGRID INFO                            ----
 -------------------------------------------------------------------------------
 count for grid        1:         149516          cutoff [a.u.]          300.00
 count for grid        2:        1053209          cutoff [a.u.]          100.00
 count for grid        3:         907319          cutoff [a.u.]           33.33
 count for grid        4:        1560758          cutoff [a.u.]           11.11
 total gridlevel count  :        3670802

 -------------------------------------------------------------------------------
 -                                                                             -
 -                         MESSAGE PASSING PERFORMANCE                         -
 -                                                                             -
 -------------------------------------------------------------------------------

 ROUTINE             CALLS      AVE VOLUME [Bytes]
 MP_Group                5
 MP_Bcast           176181                  67759.
 MP_Allreduce        99861                    250.
 MP_Sync                76
 MP_Alltoall         49080                5157624.
 MP_ISendRecv       509922                  34688.
 MP_Wait           1164593
 MP_comm_split          36
 MP_ISend           800525                  72805.
 MP_IRecv           801017                  72759.
 MP_Recv            127295                 257832.
 MP_Write_All           74                  62568.
 -------------------------------------------------------------------------------


 -------------------------------------------------------------------------------
 -                                                                             -
 -                           R E F E R E N C E S                               -
 -                                                                             -
 -------------------------------------------------------------------------------
 
 CP2K version 2022.1 (Development Version), the CP2K developers group (2022).
 CP2K is freely available from https://www.cp2k.org/ .

 Kuehne,Thomas D.; Iannuzzi,Marcella; Del Ben,Mauro;
 Rybkin,Vladimir V.; Seewald,Patrick; Stein,Frederick; Laino,Teodoro;
 Khaliullin,Rustam Z.; Schuett,Ole; Schiffmann,Florian; Golze,Dorothea;
 Wilhelm,Jan; Chulkov,Sergey; Bani-Hashemian,Mohammad Hossein;
 Weber,Valery; Borstnik,Urban; Taillefumier,Mathieu;
 Jakobovits,Alice Shoshana; Lazzaro,Alfio; Pabst,Hans; Mueller,Tiziano;
 Schade,Robert; Guidon,Manuel; Andermatt,Samuel; Holmberg,Nico;
 Schenter,Gregory K.; Hehn,Anna; Bussy,Augustin; Belleflamme,Fabian;
 Tabacchi,Gloria; Gloess,Andreas; Lass,Michael; Bethune,Iain;
 Mundy,Christopher J.; Plessl,Christian; Watkins,Matt;
 VandeVondele,Joost; Krack,Matthias; Hutter,Juerg. 
 The Journal of Chemical Physics, 152 (19), (2020). 
 CP2K: An electronic structure and molecular dynamics software package -
 Quickstep: Efficient and accurate electronic structure calculations.
 https://doi.org/10.1063/5.0007045

 Schuett, Ole; Messmer, Peter; Hutter, Juerg; VandeVondele, Joost. 
 Electronic Structure Calculations on Graphics Processing Units, John
 Wiley & Sons, Ltd, 173-190 (2016). 
 GPU-Accelerated Sparse Matrix-Matrix Multiplication for
 Linear Scaling Density Functional Theory.
 https://doi.org/10.1002/9781118670712.ch8

 Borstnik, U; VandeVondele, J; Weber, V; Hutter, J. 
 PARALLEL COMPUTING, 40 (5-6), 47-58 (2014). 
 Sparse matrix multiplication: The distributed block-compressed sparse
 row library.
 https://doi.org/10.1016/j.parco.2014.03.012

 Hutter, J; Iannuzzi, M; Schiffmann, F; VandeVondele, J. 
 WIREs Comput Mol Sci., 4 (1), 15-25 (2014). 
 CP2K: atomistic simulations of condensed matter systems.
 https://doi.org/10.1002/wcms.1159

 Marek, A; Blum, V; Johanni, R; Havu, V; Lang, B; Auckenthaler, T;
 Heinecke, A; Bungartz, H; Lederer, H. 
 Journal of Physics: Condensed Matter, 26 (21), (2014). 
 The ELPA library: scalable parallel eigenvalue solutions for
 electronic structure
 theory and computational science.
 https://doi.org/10.1088/0953-8984/26/21/213201

 VandeVondele, J; Hutter, J. 
 JOURNAL OF CHEMICAL PHYSICS, 127 (11), 114105 (2007). 
 Gaussian basis sets for accurate calculations on molecular systems in
 gas and condensed phases.
 https://doi.org/10.1063/1.2770708

 Krack, M. 
 THEORETICAL CHEMISTRY ACCOUNTS, 114 (1-3), 145-152 (2005). 
 Pseudopotentials for H to Kr optimized for gradient-corrected
 exchange-correlation functionals.
 https://doi.org/10.1007/s00214-005-0655-y

 VandeVondele, J; Krack, M; Mohamed, F; Parrinello, M; Chassaing, T;
 Hutter, J. COMPUTER PHYSICS COMMUNICATIONS, 167 (2), 103-128 (2005). 
 QUICKSTEP: Fast and accurate density functional calculations using a
 mixed Gaussian and plane waves approach.
 https://doi.org/10.1016/j.cpc.2004.12.014

 Frigo, M; Johnson, SG. 
 PROCEEDINGS OF THE IEEE, 93 (2), 216-231 (2005). 
 The design and implementation of FFTW3.
 https://doi.org/10.1109/JPROC.2004.840301

 Hartwigsen, C; Goedecker, S; Hutter, J. 
 PHYSICAL REVIEW B, 58 (7), 3641-3662 (1998). 
 Relativistic separable dual-space Gaussian pseudopotentials from H to Rn.
 https://doi.org/10.1103/PhysRevB.58.3641

 Lippert, G; Hutter, J; Parrinello, M. 
 MOLECULAR PHYSICS, 92 (3), 477-487 (1997). 
 A hybrid Gaussian and plane wave density functional scheme.
 https://doi.org/10.1080/002689797170220

 Perdew, JP; Burke, K; Ernzerhof, M. 
 PHYSICAL REVIEW LETTERS, 77 (18), 3865-3868 (1996). 
 Generalized gradient approximation made simple.
 https://doi.org/10.1103/PhysRevLett.77.3865

 Goedecker, S; Teter, M; Hutter, J. 
 PHYSICAL REVIEW B, 54 (3), 1703-1710 (1996). 
 Separable dual-space Gaussian pseudopotentials.
 https://doi.org/10.1103/PhysRevB.54.1703


 -------------------------------------------------------------------------------
 -                                                                             -
 -                                T I M I N G                                  -
 -                                                                             -
 -------------------------------------------------------------------------------
 SUBROUTINE                       CALLS  ASD         SELF TIME        TOTAL TIME
                                MAXIMUM       AVERAGE  MAXIMUM  AVERAGE  MAXIMUM
 CP2K                                 1  1.0     0.99     1.04 66792.27 66792.28
 cp_geo_opt                           1  2.0     0.07     0.07 66790.90 66790.90
 geoopt_bfgs                          1  3.0     4.64     4.70 66790.83 66790.85
 cp_eval_at                          37  4.0     4.37     4.45 66759.54 66759.57
 qs_energies                         37  6.0     2.90     3.09 66693.49 66694.06
 qs_forces                           36  5.0     2.36     2.49 65160.68 65160.69
 scf_env_do_scf                      37  7.0     1.19     4.51 64706.13 64706.39
 scf_env_do_scf_inner_loop         1987  8.0     4.17     8.52 64704.54 64704.91
 run_smeagol_emtrans               2024  9.9 64306.93 64395.84 64495.85 64496.87
 qs_scf_new_mos_kp                 1987  9.0     1.65     1.66 62618.49 62618.73
 -------------------------------------------------------------------------------

 The number of warnings for this run is : 1
 
 -------------------------------------------------------------------------------
  **** **** ******  **  PROGRAM ENDED AT                 2023-09-13 03:59:39.417
 ***** ** ***  *** **   PROGRAM RAN ON                                 nid005731
 **    ****   ******    PROGRAM RAN BY                                    cahart
 ***** **    ** ** **   PROGRAM PROCESS ID                                117479
  **** **  *******  **  PROGRAM STOPPED IN /mnt/lustre/a2fs-work2/work/e05/e05/c
                                           ahart/postdoc/transport/AuH2/cp2k-sme
                                           agol/archer_pbe/geo_opt/NEnergReal-64
                                           _kpoints-3-3-20_omp-1_ParallelOverKNu
                                           m-1/1.5
