ATOMS
H             3.25353201      5.72009504     18.92650888            -0.00000146     -0.01119247     -0.70701820
H             3.25943387      5.72541294     19.67648850            -0.00000146     -0.01119247     -0.70701820
