ATOMS
H             3.25353201      5.72009504     18.92650888            -0.02787252      0.70654163     -0.00469582
H             3.25943387      5.72541294     19.67648850             0.02787252     -0.70654163      0.00469582
