ATOMS
H             3.25353201      5.72009504     18.92650888            -0.70653763     -0.02783613      0.00545259
H             3.25943387      5.72541294     19.67648850             0.70653763      0.02783613     -0.00545259
