     116
 i =        1, E =     -3518.3260264002
 Au         0.0000000000        0.0000000000        0.0000000000
 Au         0.0000000000        4.1460000000        0.0000000000
 Au         2.0730000000        2.0730000000        0.0000000000
 Au         2.0730000000        6.2190000000        0.0000000000
 Au         4.1460000000        0.0000000000        0.0000000000
 Au         4.1460000000        4.1460000000        0.0000000000
 Au         6.2190000000        2.0730000000        0.0000000000
 Au         6.2190000000        6.2190000000        0.0000000000
 Au         0.0000000000        2.0730000000        2.0730000000
 Au         0.0000000000        6.2190000000        2.0730000000
 Au         2.0730000000        0.0000000000        2.0730000000
 Au         2.0730000000        4.1460000000        2.0730000000
 Au         4.1460000000        2.0730000000        2.0730000000
 Au         4.1460000000        6.2190000000        2.0730000000
 Au         6.2190000000        0.0000000000        2.0730000000
 Au         6.2190000000        4.1460000000        2.0730000000
 Au         0.0000000000        0.0000000000        4.1460000000
 Au         0.0000000000        4.1460000000        4.1460000000
 Au         2.0730000000        2.0730000000        4.1460000000
 Au         2.0730000000        6.2190000000        4.1460000000
 Au         4.1460000000        0.0000000000        4.1460000000
 Au         4.1460000000        4.1460000000        4.1460000000
 Au         6.2190000000        2.0730000000        4.1460000000
 Au         6.2190000000        6.2190000000        4.1460000000
 Au         0.0000000000        2.0730000000        6.2190000000
 Au         0.0000000000        6.2190000000        6.2190000000
 Au         2.0730000000        0.0000000000        6.2190000000
 Au         2.0730000000        4.1460000000        6.2190000000
 Au         4.1460000000        2.0730000000        6.2190000000
 Au         4.1460000000        6.2190000000        6.2190000000
 Au         6.2190000000        0.0000000000        6.2190000000
 Au         6.2190000000        4.1460000000        6.2190000000
 Au         0.0000000000        0.0000000000        8.2920000000
 Au         0.0000000000        4.1460000000        8.2920000000
 Au         2.0730000000        2.0730000000        8.2920000000
 Au         2.0730000000        6.2190000000        8.2920000000
 Au         4.1460000000        0.0000000000        8.2920000000
 Au         4.1460000000        4.1460000000        8.2920000000
 Au         6.2190000000        2.0730000000        8.2920000000
 Au         6.2190000000        6.2190000000        8.2920000000
 Au        -0.0000724047        2.0730013564       10.3775795562
 Au        -0.0000148917        6.2189441376       10.3572614093
 Au         2.0729039447        0.0009786187       10.3576280831
 Au         2.0728818586        4.1451092566       10.3575471517
 Au         4.1459817684        2.0729283589       10.3302172505
 Au         4.1459838776        6.2188506587       10.3767536057
 Au         6.2191315961        0.0009938402       10.3576237710
 Au         6.2191543904        4.1450939461       10.3575411850
 Au         0.0000019671       -0.0041838923       12.4419066501
 Au         0.0000027121        4.1502672909       12.4419772075
 Au         2.0233158583        2.0730977992       12.4620904803
 Au         2.0685191861        6.2189892654       12.4420714245
 Au         4.1459881585       -0.0536224307       12.4554257985
 Au         4.1459904686        4.1986989402       12.4562964694
 Au         6.2685295854        2.0731003619       12.4623115381
 Au         6.2234968973        6.2189902283       12.4420846958
  S         4.1463564170        2.0755987804       14.2393698410
  C         4.1443520767        2.0889071074       16.0082162202
  H         2.0125521561        2.0980479301       16.1781485005
  H         6.2763883169        2.0979155486       16.1874887810
  C         2.9405107087        2.0758083046       16.7182000367
  C         5.3434512040        2.0759591945       16.7193502763
  C         2.9381000034        2.0680894482       18.1174948676
  C         5.3412581402        2.0681738968       18.1182977841
  H         2.0036111887        2.0461130667       18.6495599045
  H         6.2700595507        2.0459585217       18.6592687068
  C         4.1375647340        2.0557197089       18.8278247356
  S         4.1415729615        2.0700266767       20.5973636199
 Au        -0.0000446456       -0.0042137612       22.3950194268
 Au        -0.0000445018        4.1501258650       22.3950920097
 Au         2.0237959330        2.0729290519       22.3742012325
 Au         2.0685428893        6.2189734880       22.3949231016
 Au         4.1460413925       -0.0528449523       22.3807430737
 Au         4.1460435322        4.1999389135       22.3817647230
 Au         6.2694998794        2.0729318674       22.3756595434
 Au         6.2190000000        6.2190000000       22.3990000000
 Au         0.0000000000        2.0730000000       24.4720000000
 Au         0.0000000000        6.2190000000       24.4720000000
 Au         2.0730000000        0.0000000000       24.4720000000
 Au         2.0730000000        4.1460000000       24.4720000000
 Au         4.1460000000        2.0730000000       24.4720000000
 Au         4.1460000000        6.2190000000       24.4720000000
 Au         6.2190000000        0.0000000000       24.4720000000
 Au         6.2190000000        4.1460000000       24.4720000000
 Au         0.0000000000        0.0000000000       26.5450000000
 Au         0.0000000000        4.1460000000       26.5450000000
 Au         2.0730000000        2.0730000000       26.5450000000
 Au         2.0730000000        6.2190000000       26.5450000000
 Au         4.1460000000        0.0000000000       26.5450000000
 Au         4.1460000000        4.1460000000       26.5450000000
 Au         6.2190000000        2.0730000000       26.5450000000
 Au         6.2190000000        6.2190000000       26.5450000000
 Au         0.0000000000        2.0730000000       28.6180000000
 Au         0.0000000000        6.2190000000       28.6180000000
 Au         2.0730000000        0.0000000000       28.6180000000
 Au         2.0730000000        4.1460000000       28.6180000000
 Au         4.1460000000        2.0730000000       28.6180000000
 Au         4.1460000000        6.2190000000       28.6180000000
 Au         6.2190000000        0.0000000000       28.6180000000
 Au         6.2190000000        4.1460000000       28.6180000000
 Au         0.0000000000        0.0000000000       30.6910000000
 Au         0.0000000000        4.1460000000       30.6910000000
 Au         2.0730000000        2.0730000000       30.6910000000
 Au         2.0730000000        6.2190000000       30.6910000000
 Au         4.1460000000        0.0000000000       30.6910000000
 Au         4.1460000000        4.1460000000       30.6910000000
 Au         6.2190000000        2.0730000000       30.6910000000
 Au         6.2190000000        6.2190000000       30.6910000000
 Au         0.0000000000        2.0730000000       32.7640000000
 Au         0.0000000000        6.2190000000       32.7640000000
 Au         2.0730000000        0.0000000000       32.7640000000
 Au         2.0730000000        4.1460000000       32.7640000000
 Au         4.1460000000        2.0730000000       32.7640000000
 Au         4.1460000000        6.2190000000       32.7640000000
 Au         6.2190000000        0.0000000000       32.7640000000
 Au         6.2190000000        4.1460000000       32.7640000000
     116
 i =        2, E =     -3518.3283517841
 Au         0.0000000000        0.0000000000        0.0000000000
 Au         0.0000000000        4.1460000000        0.0000000000
 Au         2.0730000000        2.0730000000        0.0000000000
 Au         2.0730000000        6.2190000000        0.0000000000
 Au         4.1460000000        0.0000000000        0.0000000000
 Au         4.1460000000        4.1460000000        0.0000000000
 Au         6.2190000000        2.0730000000        0.0000000000
 Au         6.2190000000        6.2190000000        0.0000000000
 Au         0.0000000000        2.0730000000        2.0730000000
 Au         0.0000000000        6.2190000000        2.0730000000
 Au         2.0730000000        0.0000000000        2.0730000000
 Au         2.0730000000        4.1460000000        2.0730000000
 Au         4.1460000000        2.0730000000        2.0730000000
 Au         4.1460000000        6.2190000000        2.0730000000
 Au         6.2190000000        0.0000000000        2.0730000000
 Au         6.2190000000        4.1460000000        2.0730000000
 Au         0.0000000000        0.0000000000        4.1460000000
 Au         0.0000000000        4.1460000000        4.1460000000
 Au         2.0730000000        2.0730000000        4.1460000000
 Au         2.0730000000        6.2190000000        4.1460000000
 Au         4.1460000000        0.0000000000        4.1460000000
 Au         4.1460000000        4.1460000000        4.1460000000
 Au         6.2190000000        2.0730000000        4.1460000000
 Au         6.2190000000        6.2190000000        4.1460000000
 Au         0.0000000000        2.0730000000        6.2190000000
 Au         0.0000000000        6.2190000000        6.2190000000
 Au         2.0730000000        0.0000000000        6.2190000000
 Au         2.0730000000        4.1460000000        6.2190000000
 Au         4.1460000000        2.0730000000        6.2190000000
 Au         4.1460000000        6.2190000000        6.2190000000
 Au         6.2190000000        0.0000000000        6.2190000000
 Au         6.2190000000        4.1460000000        6.2190000000
 Au         0.0000000000        0.0000000000        8.2920000000
 Au         0.0000000000        4.1460000000        8.2920000000
 Au         2.0730000000        2.0730000000        8.2920000000
 Au         2.0730000000        6.2190000000        8.2920000000
 Au         4.1460000000        0.0000000000        8.2920000000
 Au         4.1460000000        4.1460000000        8.2920000000
 Au         6.2190000000        2.0730000000        8.2920000000
 Au         6.2190000000        6.2190000000        8.2920000000
 Au        -0.0000027073        2.0730416695       10.3778997850
 Au         0.0000113832        6.2189607202       10.3586069578
 Au         2.0778553811        0.0077394278       10.3628938996
 Au         2.0779854939        4.1384710817       10.3627771736
 Au         4.1460349556        2.0728382492       10.3580581293
 Au         4.1460047336        6.2181261562       10.3729693880
 Au         6.2141020627        0.0077554563       10.3629444220
 Au         6.2139738703        4.1384561333       10.3628246425
 Au         0.0000046375       -0.0237360582       12.4472084697
 Au         0.0000071765        4.1699783070       12.4473451904
 Au         2.0154923501        2.0728903035       12.4841522753
 Au         2.0473917436        6.2189803443       12.4474288395
 Au         4.1459917416       -0.0650835071       12.4696162286
 Au         4.1459932917        4.2093440009       12.4720004804
 Au         6.2765577261        2.0728919400       12.4842372664
 Au         6.2445830929        6.2189828371       12.4474305631
  S         4.1457602446        2.0819547982       14.2322277711
  C         4.1442131125        2.0758709833       16.0069405933
  H         1.9973446329        2.0906372907       16.1769056935
  H         6.2896803514        2.0905497936       16.1848672898
  C         2.9434163590        2.0915772155       16.7233760418
  C         5.3417321466        2.0913482241       16.7283772808
  C         2.9406983942        2.0531438932       18.1074801932
  C         5.3380454122        2.0529710010       18.1122621164
  H         1.9921739319        2.0534765993       18.6515022055
  H         6.2843522327        2.0533341009       18.6596578097
  C         4.1378413984        2.0684618320       18.8294801497
  S         4.1396134219        2.0635161263       20.6043982143
 Au        -0.0002537268       -0.0197759059       22.3882798657
 Au        -0.0002562805        4.1654757640       22.3884060331
 Au         2.0088918220        2.0732323268       22.3484902150
 Au         2.0513506693        6.2189910291       22.3874883267
 Au         4.1456851061       -0.0693871829       22.3609249610
 Au         4.1456868232        4.2170739877       22.3634949747
 Au         6.2837770587        2.0732348440       22.3505800558
 Au         6.2190000000        6.2190000000       22.3990000000
 Au         0.0000000000        2.0730000000       24.4720000000
 Au         0.0000000000        6.2190000000       24.4720000000
 Au         2.0730000000        0.0000000000       24.4720000000
 Au         2.0730000000        4.1460000000       24.4720000000
 Au         4.1460000000        2.0730000000       24.4720000000
 Au         4.1460000000        6.2190000000       24.4720000000
 Au         6.2190000000        0.0000000000       24.4720000000
 Au         6.2190000000        4.1460000000       24.4720000000
 Au         0.0000000000        0.0000000000       26.5450000000
 Au         0.0000000000        4.1460000000       26.5450000000
 Au         2.0730000000        2.0730000000       26.5450000000
 Au         2.0730000000        6.2190000000       26.5450000000
 Au         4.1460000000        0.0000000000       26.5450000000
 Au         4.1460000000        4.1460000000       26.5450000000
 Au         6.2190000000        2.0730000000       26.5450000000
 Au         6.2190000000        6.2190000000       26.5450000000
 Au         0.0000000000        2.0730000000       28.6180000000
 Au         0.0000000000        6.2190000000       28.6180000000
 Au         2.0730000000        0.0000000000       28.6180000000
 Au         2.0730000000        4.1460000000       28.6180000000
 Au         4.1460000000        2.0730000000       28.6180000000
 Au         4.1460000000        6.2190000000       28.6180000000
 Au         6.2190000000        0.0000000000       28.6180000000
 Au         6.2190000000        4.1460000000       28.6180000000
 Au         0.0000000000        0.0000000000       30.6910000000
 Au         0.0000000000        4.1460000000       30.6910000000
 Au         2.0730000000        2.0730000000       30.6910000000
 Au         2.0730000000        6.2190000000       30.6910000000
 Au         4.1460000000        0.0000000000       30.6910000000
 Au         4.1460000000        4.1460000000       30.6910000000
 Au         6.2190000000        2.0730000000       30.6910000000
 Au         6.2190000000        6.2190000000       30.6910000000
 Au         0.0000000000        2.0730000000       32.7640000000
 Au         0.0000000000        6.2190000000       32.7640000000
 Au         2.0730000000        0.0000000000       32.7640000000
 Au         2.0730000000        4.1460000000       32.7640000000
 Au         4.1460000000        2.0730000000       32.7640000000
 Au         4.1460000000        6.2190000000       32.7640000000
 Au         6.2190000000        0.0000000000       32.7640000000
 Au         6.2190000000        4.1460000000       32.7640000000
     116
 i =        3, E =     -3518.3288441355
 Au         0.0000000000        0.0000000000        0.0000000000
 Au         0.0000000000        4.1460000000        0.0000000000
 Au         2.0730000000        2.0730000000        0.0000000000
 Au         2.0730000000        6.2190000000        0.0000000000
 Au         4.1460000000        0.0000000000        0.0000000000
 Au         4.1460000000        4.1460000000        0.0000000000
 Au         6.2190000000        2.0730000000        0.0000000000
 Au         6.2190000000        6.2190000000        0.0000000000
 Au         0.0000000000        2.0730000000        2.0730000000
 Au         0.0000000000        6.2190000000        2.0730000000
 Au         2.0730000000        0.0000000000        2.0730000000
 Au         2.0730000000        4.1460000000        2.0730000000
 Au         4.1460000000        2.0730000000        2.0730000000
 Au         4.1460000000        6.2190000000        2.0730000000
 Au         6.2190000000        0.0000000000        2.0730000000
 Au         6.2190000000        4.1460000000        2.0730000000
 Au         0.0000000000        0.0000000000        4.1460000000
 Au         0.0000000000        4.1460000000        4.1460000000
 Au         2.0730000000        2.0730000000        4.1460000000
 Au         2.0730000000        6.2190000000        4.1460000000
 Au         4.1460000000        0.0000000000        4.1460000000
 Au         4.1460000000        4.1460000000        4.1460000000
 Au         6.2190000000        2.0730000000        4.1460000000
 Au         6.2190000000        6.2190000000        4.1460000000
 Au         0.0000000000        2.0730000000        6.2190000000
 Au         0.0000000000        6.2190000000        6.2190000000
 Au         2.0730000000        0.0000000000        6.2190000000
 Au         2.0730000000        4.1460000000        6.2190000000
 Au         4.1460000000        2.0730000000        6.2190000000
 Au         4.1460000000        6.2190000000        6.2190000000
 Au         6.2190000000        0.0000000000        6.2190000000
 Au         6.2190000000        4.1460000000        6.2190000000
 Au         0.0000000000        0.0000000000        8.2920000000
 Au         0.0000000000        4.1460000000        8.2920000000
 Au         2.0730000000        2.0730000000        8.2920000000
 Au         2.0730000000        6.2190000000        8.2920000000
 Au         4.1460000000        0.0000000000        8.2920000000
 Au         4.1460000000        4.1460000000        8.2920000000
 Au         6.2190000000        2.0730000000        8.2920000000
 Au         6.2190000000        6.2190000000        8.2920000000
 Au         0.0000339290        2.0731984891       10.3864102831
 Au         0.0000084198        6.2189769151       10.3505283869
 Au         2.0825697306        0.0139361460       10.3702774769
 Au         2.0827804129        4.1320628010       10.3703424228
 Au         4.1460246954        2.0729199303       10.3837414799
 Au         4.1459829285        6.2176433692       10.3770592687
 Au         6.2094171853        0.0139491796       10.3703534506
 Au         6.2092085200        4.1320516458       10.3704177044
 Au         0.0000023876       -0.0318536983       12.4525113189
 Au         0.0000037577        4.1781801455       12.4525884702
 Au         2.0078688287        2.0724037728       12.5025522043
 Au         2.0375121101        6.2189848357       12.4520842955
 Au         4.1460080407       -0.0749806595       12.4810267301
 Au         4.1460105092        4.2205175942       12.4841008246
 Au         6.2842968105        2.0724061341       12.5025143905
 Au         6.2544375740        6.2189862730       12.4520849235
  S         4.1457881892        2.0833587989       14.2301801906
  C         4.1435243585        2.0953063701       16.0087127211
  H         1.9904446817        2.0889601724       16.1771628878
  H         6.2958897866        2.0888324428       16.1848960217
  C         2.9418277877        2.0708269777       16.7255130988
  C         5.3432621427        2.0705779408       16.7311430131
  C         2.9387051009        2.0739788624       18.1051436663
  C         5.3402267776        2.0737052883       18.1107319193
  H         1.9861548282        2.0552322840       18.6514768997
  H         6.2916068953        2.0550777101       18.6591444945
  C         4.1384211014        2.0495422182       18.8275362441
  S         4.1382033276        2.0618476273       20.6058642718
 Au        -0.0018642935       -0.0291648565       22.3826189505
 Au        -0.0018645412        4.1747286296       22.3827079256
 Au         2.0013916280        2.0737865304       22.3311508908
 Au         2.0404573029        6.2190283498       22.3804903057
 Au         4.1434061424       -0.0768118686       22.3480473881
 Au         4.1433752783        4.2228576120       22.3511330392
 Au         6.2906011348        2.0737780915       22.3336851330
 Au         6.2190000000        6.2190000000       22.3990000000
 Au         0.0000000000        2.0730000000       24.4720000000
 Au         0.0000000000        6.2190000000       24.4720000000
 Au         2.0730000000        0.0000000000       24.4720000000
 Au         2.0730000000        4.1460000000       24.4720000000
 Au         4.1460000000        2.0730000000       24.4720000000
 Au         4.1460000000        6.2190000000       24.4720000000
 Au         6.2190000000        0.0000000000       24.4720000000
 Au         6.2190000000        4.1460000000       24.4720000000
 Au         0.0000000000        0.0000000000       26.5450000000
 Au         0.0000000000        4.1460000000       26.5450000000
 Au         2.0730000000        2.0730000000       26.5450000000
 Au         2.0730000000        6.2190000000       26.5450000000
 Au         4.1460000000        0.0000000000       26.5450000000
 Au         4.1460000000        4.1460000000       26.5450000000
 Au         6.2190000000        2.0730000000       26.5450000000
 Au         6.2190000000        6.2190000000       26.5450000000
 Au         0.0000000000        2.0730000000       28.6180000000
 Au         0.0000000000        6.2190000000       28.6180000000
 Au         2.0730000000        0.0000000000       28.6180000000
 Au         2.0730000000        4.1460000000       28.6180000000
 Au         4.1460000000        2.0730000000       28.6180000000
 Au         4.1460000000        6.2190000000       28.6180000000
 Au         6.2190000000        0.0000000000       28.6180000000
 Au         6.2190000000        4.1460000000       28.6180000000
 Au         0.0000000000        0.0000000000       30.6910000000
 Au         0.0000000000        4.1460000000       30.6910000000
 Au         2.0730000000        2.0730000000       30.6910000000
 Au         2.0730000000        6.2190000000       30.6910000000
 Au         4.1460000000        0.0000000000       30.6910000000
 Au         4.1460000000        4.1460000000       30.6910000000
 Au         6.2190000000        2.0730000000       30.6910000000
 Au         6.2190000000        6.2190000000       30.6910000000
 Au         0.0000000000        2.0730000000       32.7640000000
 Au         0.0000000000        6.2190000000       32.7640000000
 Au         2.0730000000        0.0000000000       32.7640000000
 Au         2.0730000000        4.1460000000       32.7640000000
 Au         4.1460000000        2.0730000000       32.7640000000
 Au         4.1460000000        6.2190000000       32.7640000000
 Au         6.2190000000        0.0000000000       32.7640000000
 Au         6.2190000000        4.1460000000       32.7640000000
     116
 i =        4, E =     -3518.3294078583
 Au         0.0000000000        0.0000000000        0.0000000000
 Au         0.0000000000        4.1460000000        0.0000000000
 Au         2.0730000000        2.0730000000        0.0000000000
 Au         2.0730000000        6.2190000000        0.0000000000
 Au         4.1460000000        0.0000000000        0.0000000000
 Au         4.1460000000        4.1460000000        0.0000000000
 Au         6.2190000000        2.0730000000        0.0000000000
 Au         6.2190000000        6.2190000000        0.0000000000
 Au         0.0000000000        2.0730000000        2.0730000000
 Au         0.0000000000        6.2190000000        2.0730000000
 Au         2.0730000000        0.0000000000        2.0730000000
 Au         2.0730000000        4.1460000000        2.0730000000
 Au         4.1460000000        2.0730000000        2.0730000000
 Au         4.1460000000        6.2190000000        2.0730000000
 Au         6.2190000000        0.0000000000        2.0730000000
 Au         6.2190000000        4.1460000000        2.0730000000
 Au         0.0000000000        0.0000000000        4.1460000000
 Au         0.0000000000        4.1460000000        4.1460000000
 Au         2.0730000000        2.0730000000        4.1460000000
 Au         2.0730000000        6.2190000000        4.1460000000
 Au         4.1460000000        0.0000000000        4.1460000000
 Au         4.1460000000        4.1460000000        4.1460000000
 Au         6.2190000000        2.0730000000        4.1460000000
 Au         6.2190000000        6.2190000000        4.1460000000
 Au         0.0000000000        2.0730000000        6.2190000000
 Au         0.0000000000        6.2190000000        6.2190000000
 Au         2.0730000000        0.0000000000        6.2190000000
 Au         2.0730000000        4.1460000000        6.2190000000
 Au         4.1460000000        2.0730000000        6.2190000000
 Au         4.1460000000        6.2190000000        6.2190000000
 Au         6.2190000000        0.0000000000        6.2190000000
 Au         6.2190000000        4.1460000000        6.2190000000
 Au         0.0000000000        0.0000000000        8.2920000000
 Au         0.0000000000        4.1460000000        8.2920000000
 Au         2.0730000000        2.0730000000        8.2920000000
 Au         2.0730000000        6.2190000000        8.2920000000
 Au         4.1460000000        0.0000000000        8.2920000000
 Au         4.1460000000        4.1460000000        8.2920000000
 Au         6.2190000000        2.0730000000        8.2920000000
 Au         6.2190000000        6.2190000000        8.2920000000
 Au         0.0000512542        2.0732955284       10.3943133007
 Au         0.0000026785        6.2189592836       10.3431203442
 Au         2.0835826544        0.0154725201       10.3732957733
 Au         2.0837767032        4.1303095506       10.3735433673
 Au         4.1459935535        2.0729845281       10.3878283585
 Au         4.1459610597        6.2175173784       10.3828745200
 Au         6.2084601300        0.0154790566       10.3733547750
 Au         6.2082670069        4.1303050059       10.3736026811
 Au         0.0000071357       -0.0280662656       12.4547367473
 Au         0.0000081723        4.1742321198       12.4547312130
 Au         2.0029639647        2.0720557880       12.5098956804
 Au         2.0404993652        6.2191504881       12.4533821523
 Au         4.1460230534       -0.0806993179       12.4854864502
 Au         4.1460264688        4.2269788354       12.4891721471
 Au         6.2892256140        2.0720588389       12.5098096177
 Au         6.2514429255        6.2191516998       12.4533944995
  S         4.1460247510        2.0850274097       14.2320215778
  C         4.1429496895        2.0866294920       16.0106609309
  H         1.9922085057        2.0871875232       16.1771785515
  H         6.2944645497        2.0869997811       16.1855603770
  C         2.9397530643        2.0778969836       16.7247840128
  C         5.3444717054        2.0778299825       16.7289165563
  C         2.9372157962        2.0668077863       18.1078635709
  C         5.3423744477        2.0666633638       18.1119854164
  H         1.9872513063        2.0571319530       18.6509219082
  H         6.2900324759        2.0569300738       18.6591521269
  C         4.1388569587        2.0583313130       18.8259060586
  S         4.1382146922        2.0601284701       20.6045164234
 Au        -0.0035254962       -0.0267653896       22.3813523019
 Au        -0.0035145820        4.1725512963       22.3813559791
 Au         1.9998027138        2.0741081269       22.3302232740
 Au         2.0421817348        6.2188583113       22.3783316894
 Au         4.1409944265       -0.0761617786       22.3476063974
 Au         4.1409472979        4.2212418071       22.3510475690
 Au         6.2912491891        2.0740870319       22.3327973736
 Au         6.2190000000        6.2190000000       22.3990000000
 Au         0.0000000000        2.0730000000       24.4720000000
 Au         0.0000000000        6.2190000000       24.4720000000
 Au         2.0730000000        0.0000000000       24.4720000000
 Au         2.0730000000        4.1460000000       24.4720000000
 Au         4.1460000000        2.0730000000       24.4720000000
 Au         4.1460000000        6.2190000000       24.4720000000
 Au         6.2190000000        0.0000000000       24.4720000000
 Au         6.2190000000        4.1460000000       24.4720000000
 Au         0.0000000000        0.0000000000       26.5450000000
 Au         0.0000000000        4.1460000000       26.5450000000
 Au         2.0730000000        2.0730000000       26.5450000000
 Au         2.0730000000        6.2190000000       26.5450000000
 Au         4.1460000000        0.0000000000       26.5450000000
 Au         4.1460000000        4.1460000000       26.5450000000
 Au         6.2190000000        2.0730000000       26.5450000000
 Au         6.2190000000        6.2190000000       26.5450000000
 Au         0.0000000000        2.0730000000       28.6180000000
 Au         0.0000000000        6.2190000000       28.6180000000
 Au         2.0730000000        0.0000000000       28.6180000000
 Au         2.0730000000        4.1460000000       28.6180000000
 Au         4.1460000000        2.0730000000       28.6180000000
 Au         4.1460000000        6.2190000000       28.6180000000
 Au         6.2190000000        0.0000000000       28.6180000000
 Au         6.2190000000        4.1460000000       28.6180000000
 Au         0.0000000000        0.0000000000       30.6910000000
 Au         0.0000000000        4.1460000000       30.6910000000
 Au         2.0730000000        2.0730000000       30.6910000000
 Au         2.0730000000        6.2190000000       30.6910000000
 Au         4.1460000000        0.0000000000       30.6910000000
 Au         4.1460000000        4.1460000000       30.6910000000
 Au         6.2190000000        2.0730000000       30.6910000000
 Au         6.2190000000        6.2190000000       30.6910000000
 Au         0.0000000000        2.0730000000       32.7640000000
 Au         0.0000000000        6.2190000000       32.7640000000