 DBCSR| CPU Multiplication driver                                           XSMM
 DBCSR| Multrec recursion limit                                              512
 DBCSR| Multiplication stack size                                           1000
 DBCSR| Maximum elements for images                                    UNLIMITED
 DBCSR| Multiplicative factor virtual images                                   1
 DBCSR| Use multiplication densification                                       T
 DBCSR| Multiplication size stacks                                             3
 DBCSR| Use memory pool for CPU allocation                                     F
 DBCSR| Number of 3D layers                                               SINGLE
 DBCSR| Use MPI memory allocation                                              F
 DBCSR| Use RMA algorithm                                                      F
 DBCSR| Use Communication thread                                               T
 DBCSR| Communication thread load                                             87
 DBCSR| MPI: My node id                                                        0
 DBCSR| MPI: Number of nodes                                                 120
 DBCSR| OMP: Current number of threads                                         1
 DBCSR| OMP: Max number of threads                                             1
 DBCSR| Split modifier for TAS multiplication algorithm                  1.0E+00


  **** **** ******  **  PROGRAM STARTED AT               2023-03-22 20:00:06.596
 ***** ** ***  *** **   PROGRAM STARTED ON                 cn1079.scarf.rl.ac.uk
 **    ****   ******    PROGRAM STARTED BY                             scarf1157
 ***** **    ** ** **   PROGRAM PROCESS ID                                 51010
  **** **  *******  **  PROGRAM STARTED IN /work4/scd/scarf1157/work/testing/cp2
                                           k-smeagol/bdt/cp2k/hollow-site/transp
                                           ort-cp2k/5-4/geometry-ordered/3x3-4/s
                                           z/bulk_layers-4/transmission/exp/capa
                                           citor/sergey-2d-equal/x-4.168/kpoints
                                           -1-1-20_hlb-auto

 CP2K| version string:                 CP2K version 2022.1 (Development Version)
 CP2K| source code revision number:                                  git:e136ce5
 CP2K| cp2kflags: omp fftw3 libxc parallel mpi3 scalapack xsmm spglib           
 CP2K| is freely available from                            https://www.cp2k.org/
 CP2K| Program compiled at                          Thu  9 Mar 17:17:16 GMT 2023
 CP2K| Program compiled on                                 cn1108.scarf.rl.ac.uk
 CP2K| Program compiled for                                                local
 CP2K| Data directory path    /home/vol07/scarf1157/code/smeagol/cp2k-smeagol/sc
 CP2K| Input file name                                                   4_V.inp

 GLOBAL| Force Environment number                                              1
 GLOBAL| Basis set file name                                        BASIS_MOLOPT
 GLOBAL| Potential file name                                      GTH_POTENTIALS
 GLOBAL| MM Potential file name                                     MM_POTENTIAL
 GLOBAL| Coordinate file name                                             em.xyz
 GLOBAL| Method name                                                        CP2K
 GLOBAL| Project name                                                          V
 GLOBAL| Run type                                                         ENERGY
 GLOBAL| FFT library                                                       FFTW3
 GLOBAL| Diagonalization library                                       ScaLAPACK
 GLOBAL| Orthonormality check for eigenvectors                          DISABLED
 GLOBAL| Matrix multiplication library                                 ScaLAPACK
 GLOBAL| All-to-all communication in single precision                          F
 GLOBAL| FFTs using library dependent lengths                                  T
 GLOBAL| Grid backend                                                       AUTO
 GLOBAL| Global print level                                               MEDIUM
 GLOBAL| MPI I/O enabled                                                       T
 GLOBAL| Total number of message passing processes                           120
 GLOBAL| Number of threads for this process                                    1
 GLOBAL| This output is from process                                           0
 GLOBAL| Stack size for threads created by OpenMP (OMP_STACKSIZE)        default
 GLOBAL| CPU model name                         AMD EPYC 7502P 32-Core Processor
 GLOBAL| CPUID                                                              1002

 MEMORY| system memory details [Kb]
 MEMORY|                        rank 0           min           max       average
 MEMORY| MemTotal            263896984     263896980     263896984     263896983
 MEMORY| MemFree             158553984     123320100     208022836     164583233
 MEMORY| Buffers                  2560          2496          2568          2547
 MEMORY| Cached               86439328      40321192     124646592      82832170
 MEMORY| Slab                  1376736       1213040       1728712       1408718
 MEMORY| SReclaimable           862092        696456       1220636        897196
 MEMORY| MemLikelyFree       245857964     245857700     249189824     248315147


 *** Fundamental physical constants (SI units) ***

 *** Literature: B. J. Mohr and B. N. Taylor,
 ***             CODATA recommended values of the fundamental physical
 ***             constants: 2006, Web Version 5.1
 ***             http://physics.nist.gov/constants

 Speed of light in vacuum [m/s]                             2.99792458000000E+08
 Magnetic constant or permeability of vacuum [N/A**2]       1.25663706143592E-06
 Electric constant or permittivity of vacuum [F/m]          8.85418781762039E-12
 Planck constant (h) [J*s]                                  6.62606896000000E-34
 Planck constant (h-bar) [J*s]                              1.05457162825177E-34
 Elementary charge [C]                                      1.60217648700000E-19
 Electron mass [kg]                                         9.10938215000000E-31
 Electron g factor [ ]                                     -2.00231930436220E+00
 Proton mass [kg]                                           1.67262163700000E-27
 Fine-structure constant                                    7.29735253760000E-03
 Rydberg constant [1/m]                                     1.09737315685270E+07
 Avogadro constant [1/mol]                                  6.02214179000000E+23
 Boltzmann constant [J/K]                                   1.38065040000000E-23
 Atomic mass unit [kg]                                      1.66053878200000E-27
 Bohr radius [m]                                            5.29177208590000E-11

 *** Conversion factors ***

 [u] -> [a.u.]                                              1.82288848426455E+03
 [Angstrom] -> [Bohr] = [a.u.]                              1.88972613288564E+00
 [a.u.] = [Bohr] -> [Angstrom]                              5.29177208590000E-01
 [a.u.] -> [s]                                              2.41888432650478E-17
 [a.u.] -> [fs]                                             2.41888432650478E-02
 [a.u.] -> [J]                                              4.35974393937059E-18
 [a.u.] -> [N]                                              8.23872205491840E-08
 [a.u.] -> [K]                                              3.15774647902944E+05
 [a.u.] -> [kJ/mol]                                         2.62549961709828E+03
 [a.u.] -> [kcal/mol]                                       6.27509468713739E+02
 [a.u.] -> [Pa]                                             2.94210107994716E+13
 [a.u.] -> [bar]                                            2.94210107994716E+08
 [a.u.] -> [atm]                                            2.90362800883016E+08
 [a.u.] -> [eV]                                             2.72113838565563E+01
 [a.u.] -> [Hz]                                             6.57968392072181E+15
 [a.u.] -> [1/cm] (wave numbers)                            2.19474631370540E+05
 [a.u./Bohr**2] -> [1/cm]                                   5.14048714338585E+03
 

 CELL_TOP| Volume [angstrom^3]:                                      2357.480286
 CELL_TOP| Vector a [angstrom     8.336     0.000     0.000   |a| =     8.336000
 CELL_TOP| Vector b [angstrom     0.000     8.336     0.000   |b| =     8.336000
 CELL_TOP| Vector c [angstrom     0.000     0.000    33.926   |c| =    33.926000
 CELL_TOP| Angle (b,c), alpha [degree]:                                90.000000
 CELL_TOP| Angle (a,c), beta  [degree]:                                90.000000
 CELL_TOP| Angle (a,b), gamma [degree]:                                90.000000
 CELL_TOP| Numerically orthorhombic:                                         YES
 CELL_TOP| Periodicity                                                       XYZ

 GENERATE|  Preliminary Number of Bonds generated:                             0
 GENERATE|  Achieved consistency in connectivity generation.

 CELL| Volume [angstrom^3]:                                          2357.480286
 CELL| Vector a [angstrom]:       8.336     0.000     0.000   |a| =     8.336000
 CELL| Vector b [angstrom]:       0.000     8.336     0.000   |b| =     8.336000
 CELL| Vector c [angstrom]:       0.000     0.000    33.926   |c| =    33.926000
 CELL| Angle (b,c), alpha [degree]:                                    90.000000
 CELL| Angle (a,c), beta  [degree]:                                    90.000000
 CELL| Angle (a,b), gamma [degree]:                                    90.000000
 CELL| Numerically orthorhombic:                                             YES
 CELL| Periodicity                                                           XYZ

 CELL_REF| Volume [angstrom^3]:                                      2357.480286
 CELL_REF| Vector a [angstrom     8.336     0.000     0.000   |a| =     8.336000
 CELL_REF| Vector b [angstrom     0.000     8.336     0.000   |b| =     8.336000
 CELL_REF| Vector c [angstrom     0.000     0.000    33.926   |c| =    33.926000
 CELL_REF| Angle (b,c), alpha [degree]:                                90.000000
 CELL_REF| Angle (a,c), beta  [degree]:                                90.000000
 CELL_REF| Angle (a,b), gamma [degree]:                                90.000000
 CELL_REF| Numerically orthorhombic:                                         YES
 CELL_REF| Periodicity                                                       XYZ

 *******************************************************************************
                                    Kpoints
 *******************************************************************************
 BRILLOUIN| K-point scheme                                        Monkhorst-Pack
 BRILLOUIN| K-Point grid                                             1    1    1
 BRILLOUIN| Accuracy in Symmetry determination                      0.100000E-07
 BRILLOUIN| K-Point point group symmetrization                               OFF
 BRILLOUIN| Wavefunction type                                            COMPLEX
 BRILLOUIN| Use full k-point grid     
 BRILLOUIN| List of Kpoints [2 Pi/Bohr]                                        1
 BRILLOUIN| Number           Weight            X              Y              Z
 BRILLOUIN|     1           1.00000        0.00000        0.00000        0.00000
 *******************************************************************************

 *******************************************************************************
 *******************************************************************************
 **                                                                           **
 **     #####                         ##              ##                      **
 **    ##   ##            ##          ##              ##                      **
 **   ##     ##                       ##            ######                    **
 **   ##     ##  ##   ##  ##   #####  ##  ##   ####   ##    #####    #####    **
 **   ##     ##  ##   ##  ##  ##      ## ##   ##      ##   ##   ##  ##   ##   **
 **   ##  ## ##  ##   ##  ##  ##      ####     ###    ##   ######   ######    **
 **    ##  ###   ##   ##  ##  ##      ## ##      ##   ##   ##       ##        **
 **     #######   #####   ##   #####  ##  ##  ####    ##    #####   ##        **
 **           ##                                                    ##        **
 **                                                                           **
 **                                                ... make the atoms dance   **
 **                                                                           **
 **            Copyright (C) by CP2K developers group (2000-2022)             **
 **                      J. Chem. Phys. 152, 194103 (2020)                    **
 **                                                                           **
 *******************************************************************************

 DFT| Spin restricted Kohn-Sham (RKS) calculation                            RKS
 DFT| Multiplicity                                                             1
 DFT| Number of spin states                                                    1
 DFT| Charge                                                                   0
 DFT| Self-interaction correction (SIC)                                       NO
 DFT| Cutoffs: density                                              1.000000E-10
 DFT|          gradient                                             1.000000E-10
 DFT|          tau                                                  1.000000E-10
 DFT|          cutoff_smoothing_range                               0.000000E+00
 DFT| XC density smoothing                                                  NONE
 DFT| XC derivatives                                                          PW

 FUNCTIONAL| PADE:
 FUNCTIONAL| S. Goedecker, M. Teter and J. Hutter, Phys. Rev. B 54, 1703 (1996) 


 QS| Method:                                                                 GPW
 QS| Density plane wave grid type                        NON-SPHERICAL FULLSPACE
 QS| Number of grid levels:                                                    4
 QS| Density cutoff [a.u.]:                                                200.0
 QS| Multi grid cutoff [a.u.]: 1) grid level                               200.0
 QS|                           2) grid level                                66.7
 QS|                           3) grid level                                22.2
 QS|                           4) grid level                                 7.4
 QS| Grid level progression factor:                                          3.0
 QS| Relative density cutoff [a.u.]:                                        20.0
 QS| Interaction thresholds: eps_pgf_orb:                                1.0E-05
 QS|                         eps_filter_matrix:                          0.0E+00
 QS|                         eps_core_charge:                            1.0E-12
 QS|                         eps_rho_gspace:                             1.0E-10
 QS|                         eps_rho_rspace:                             1.0E-10
 QS|                         eps_gvg_rspace:                             1.0E-05
 QS|                         eps_ppl:                                    1.0E-02
 QS|                         eps_ppnl:                                   1.0E-07


 ATOMIC KIND INFORMATION

  1. Atomic kind: Au                                    Number of atoms:      72

     Orbital Basis Set                                         SZV-MOLOPT-SR-GTH

       Number of orbital shell sets:                                           1
       Number of orbital shells:                                               3
       Number of primitive Cartesian functions:                                5
       Number of Cartesian basis functions:                                   10
       Number of spherical basis functions:                                    9
       Norm type:                                                              2

       Normalised Cartesian orbitals:

                        Set   Shell   Orbital            Exponent    Coefficient

                          1       1    2s                2.950008       0.074626
                                                         1.563057      -0.007898
                                                         0.666664      -0.297688
                                                         0.251083       0.136809
                                                         0.081714       0.088198

                          1       2    3px               2.950008       0.148824
                                                         1.563057       0.025430
                                                         0.666664      -0.123003
                                                         0.251083       0.033648
                                                         0.081714       0.059008
                          1       2    3py               2.950008       0.148824
                                                         1.563057       0.025430
                                                         0.666664      -0.123003
                                                         0.251083       0.033648
                                                         0.081714       0.059008
                          1       2    3pz               2.950008       0.148824
                                                         1.563057       0.025430
                                                         0.666664      -0.123003
                                                         0.251083       0.033648
                                                         0.081714       0.059008

                          1       3    4dx2              2.950008      -0.139595
                                                         1.563057       1.319655
                                                         0.666664       0.377081
                                                         0.251083       0.046872
                                                         0.081714       0.001393
                          1       3    4dxy              2.950008      -0.241786
                                                         1.563057       2.285709
                                                         0.666664       0.653124
                                                         0.251083       0.081185
                                                         0.081714       0.002412
                          1       3    4dxz              2.950008      -0.241786
                                                         1.563057       2.285709
                                                         0.666664       0.653124
                                                         0.251083       0.081185
                                                         0.081714       0.002412
                          1       3    4dy2              2.950008      -0.139595
                                                         1.563057       1.319655
                                                         0.666664       0.377081
                                                         0.251083       0.046872
                                                         0.081714       0.001393
                          1       3    4dyz              2.950008      -0.241786
                                                         1.563057       2.285709
                                                         0.666664       0.653124
                                                         0.251083       0.081185
                                                         0.081714       0.002412
                          1       3    4dz2              2.950008      -0.139595
                                                         1.563057       1.319655
                                                         0.666664       0.377081
                                                         0.251083       0.046872
                                                         0.081714       0.001393

       Atomic covalent radius [Angstrom]:                                  1.340

       Atomic van der Waals radius [Angstrom]:                             1.660

     GTH Potential information for                                  GTH-PADE-q11

       Description:                       Goedecker-Teter-Hutter pseudopotential
                                           Goedecker et al., PRB 54, 1703 (1996)
                                          Hartwigsen et al., PRB 58, 3641 (1998)
                                                      Krack, TCA 114, 145 (2005)

       Gaussian exponent of the core charge distribution:               1.436369
       Electronic configuration (s p d ...):                           1   0  10

       Parameters of the local part of the GTH pseudopotential:

                          rloc        C1          C2          C3          C4
                        0.590000   11.604428

       Parameters of the non-local part of the GTH pseudopotential:

                   l      r(l)      h(i,j,l)

                   0    0.521180    2.538614   -1.046137
                                   -1.046137    2.701113
                   1    0.630613    0.394853   -0.869592
                                   -0.869592    2.057831
                   2    0.440706   -4.719070    0.727771
                                    0.727771   -1.650429


 MOLECULE KIND INFORMATION


 All atoms are their own molecule, skipping detailed information


 TOTAL NUMBERS AND MAXIMUM NUMBERS

  Total number of            - Atomic kinds:                                   1
                             - Atoms:                                         72
                             - Shell sets:                                    72
                             - Shells:                                       216
                             - Primitive Cartesian functions:                360
                             - Cartesian basis functions:                    720
                             - Spherical basis functions:                    648

  Maximum angular momentum of- Orbital basis functions:                        2
                             - Local part of the GTH pseudopotential:          0
                             - Non-local part of the GTH pseudopotential:      4


 MODULE QUICKSTEP: ATOMIC COORDINATES IN ANGSTROM

   Atom Kind Element         X             Y             Z       Z(eff)     Mass
      1    1 Au   79      0.000000      0.000000      0.000000  11.0000 196.9666
      2    1 Au   79      0.000000      4.168000      0.000000  11.0000 196.9666
      3    1 Au   79      2.084000      2.084000      0.000000  11.0000 196.9666
      4    1 Au   79      2.084000      6.252000      0.000000  11.0000 196.9666
      5    1 Au   79      4.168000      0.000000      0.000000  11.0000 196.9666
      6    1 Au   79      4.168000      4.168000      0.000000  11.0000 196.9666
      7    1 Au   79      0.000000      2.084000      2.084000  11.0000 196.9666
      8    1 Au   79      0.000000      6.252000      2.084000  11.0000 196.9666
      9    1 Au   79      2.084000      0.000000      2.084000  11.0000 196.9666
     10    1 Au   79      2.084000      4.168000      2.084000  11.0000 196.9666
     11    1 Au   79      4.168000      2.084000      2.084000  11.0000 196.9666
     12    1 Au   79      4.168000      6.252000      2.084000  11.0000 196.9666
     13    1 Au   79      0.000000      0.000000      4.168000  11.0000 196.9666
     14    1 Au   79      0.000000      4.168000      4.168000  11.0000 196.9666
     15    1 Au   79      2.084000      2.084000      4.168000  11.0000 196.9666
     16    1 Au   79      2.084000      6.252000      4.168000  11.0000 196.9666
     17    1 Au   79      4.168000      0.000000      4.168000  11.0000 196.9666
     18    1 Au   79      4.168000      4.168000      4.168000  11.0000 196.9666
     19    1 Au   79      0.000000      2.084000      6.252000  11.0000 196.9666
     20    1 Au   79      0.000000      6.252000      6.252000  11.0000 196.9666
     21    1 Au   79      2.084000      0.000000      6.252000  11.0000 196.9666
     22    1 Au   79      2.084000      4.168000      6.252000  11.0000 196.9666
     23    1 Au   79      4.168000      2.084000      6.252000  11.0000 196.9666
     24    1 Au   79      4.168000      6.252000      6.252000  11.0000 196.9666
     25    1 Au   79      0.000000      0.000000      8.336000  11.0000 196.9666
     26    1 Au   79      0.000000      4.168000      8.336000  11.0000 196.9666
     27    1 Au   79      2.084000      2.084000      8.336000  11.0000 196.9666
     28    1 Au   79      2.084000      6.252000      8.336000  11.0000 196.9666
     29    1 Au   79      4.168000      0.000000      8.336000  11.0000 196.9666
     30    1 Au   79      4.168000      4.168000      8.336000  11.0000 196.9666
     31    1 Au   79      0.000000      2.084000     10.420000  11.0000 196.9666
     32    1 Au   79      0.000000      6.252000     10.420000  11.0000 196.9666
     33    1 Au   79      2.084000      0.000000     10.420000  11.0000 196.9666
     34    1 Au   79      2.084000      4.168000     10.420000  11.0000 196.9666
     35    1 Au   79      4.168000      2.084000     10.420000  11.0000 196.9666
     36    1 Au   79      4.168000      6.252000     10.420000  11.0000 196.9666
     37    1 Au   79      0.000000      0.000000     21.422001  11.0000 196.9666
     38    1 Au   79      0.000000      4.168000     21.422001  11.0000 196.9666
     39    1 Au   79      2.084000      2.084000     21.422001  11.0000 196.9666
     40    1 Au   79      2.084000      6.252000     21.422001  11.0000 196.9666
     41    1 Au   79      4.168000      0.000000     21.422001  11.0000 196.9666
     42    1 Au   79      4.168000      4.168000     21.422001  11.0000 196.9666
     43    1 Au   79      0.000000      2.084000     23.506001  11.0000 196.9666
     44    1 Au   79      0.000000      6.252000     23.506001  11.0000 196.9666
     45    1 Au   79      2.084000      0.000000     23.506001  11.0000 196.9666
     46    1 Au   79      2.084000      4.168000     23.506001  11.0000 196.9666
     47    1 Au   79      4.168000      2.084000     23.506001  11.0000 196.9666
     48    1 Au   79      4.168000      6.252000     23.506001  11.0000 196.9666
     49    1 Au   79      0.000000      0.000000     25.590000  11.0000 196.9666
     50    1 Au   79      0.000000      4.168000     25.590000  11.0000 196.9666
     51    1 Au   79      2.084000      2.084000     25.590000  11.0000 196.9666
     52    1 Au   79      2.084000      6.252000     25.590000  11.0000 196.9666
     53    1 Au   79      4.168000      0.000000     25.590000  11.0000 196.9666
     54    1 Au   79      4.168000      4.168000     25.590000  11.0000 196.9666
     55    1 Au   79      0.000000      2.084000     27.674000  11.0000 196.9666
     56    1 Au   79      0.000000      6.252000     27.674000  11.0000 196.9666
     57    1 Au   79      2.084000      0.000000     27.674000  11.0000 196.9666
     58    1 Au   79      2.084000      4.168000     27.674000  11.0000 196.9666
     59    1 Au   79      4.168000      2.084000     27.674000  11.0000 196.9666
     60    1 Au   79      4.168000      6.252000     27.674000  11.0000 196.9666
     61    1 Au   79      0.000000      0.000000     29.757999  11.0000 196.9666
     62    1 Au   79      0.000000      4.168000     29.757999  11.0000 196.9666
     63    1 Au   79      2.084000      2.084000     29.757999  11.0000 196.9666
     64    1 Au   79      2.084000      6.252000     29.757999  11.0000 196.9666
     65    1 Au   79      4.168000      0.000000     29.757999  11.0000 196.9666
     66    1 Au   79      4.168000      4.168000     29.757999  11.0000 196.9666
     67    1 Au   79      0.000000      2.084000     31.841999  11.0000 196.9666
     68    1 Au   79      0.000000      6.252000     31.841999  11.0000 196.9666
     69    1 Au   79      2.084000      0.000000     31.841999  11.0000 196.9666
     70    1 Au   79      2.084000      4.168000     31.841999  11.0000 196.9666
     71    1 Au   79      4.168000      2.084000     31.841999  11.0000 196.9666
     72    1 Au   79      4.168000      6.252000     31.841999  11.0000 196.9666



 SCF PARAMETERS         Density guess:                                   RESTART
                        --------------------------------------------------------
                        max_scf:                                             500
                        max_scf_history:                                       0
                        max_diis:                                              4
                        --------------------------------------------------------
                        eps_scf:                                        1.00E-07
                        eps_scf_history:                                0.00E+00
                        eps_diis:                                       1.00E-01
                        eps_eigval:                                     1.00E-05
                        --------------------------------------------------------
                        level_shift [a.u.]:                             0.000000
                        added MOs                                       100    0
                        --------------------------------------------------------
                        Mixing method:                            BROYDEN_MIXING
                                                charge density mixing in g-space
                        --------------------------------------------------------
                        Smear method:                                FERMI_DIRAC
                        Electronic temperature [K]:                        293.0
                        Electronic temperature [a.u.]:                  9.28E-04
                        Accuracy threshold:                             1.00E-10
                        --------------------------------------------------------
                        No outer SCF

 PW_GRID| Information for grid number                                          1
 PW_GRID| Grid distributed over                                   120 processors
 PW_GRID| Real space group dimensions                                    10   12
 PW_GRID| the grid is blocked:                                               YES
 PW_GRID| Cutoff [a.u.]                                                    200.0
 PW_GRID| spherical cutoff:                                                   NO
 PW_GRID|   Bounds   1            -52      52                Points:         105
 PW_GRID|   Bounds   2            -52      52                Points:         105
 PW_GRID|   Bounds   3           -210     209                Points:         420
 PW_GRID| Volume element (a.u.^3)  0.3436E-02     Volume (a.u.^3)     15909.0657
 PW_GRID| Grid span                                                    FULLSPACE
 PW_GRID|   Distribution                         Average         Max         Min
 PW_GRID|   G-Vectors                            38587.5       40425       36750
 PW_GRID|   G-Rays                                 367.5         385         350
 PW_GRID|   Real Space Points                    38587.5       40425       36750

 PW_GRID| Information for grid number                                          2
 PW_GRID| Number of the reference grid                                         1
 PW_GRID| Grid distributed over                                   120 processors
 PW_GRID| Real space group dimensions                                    10   12
 PW_GRID| the grid is blocked:                                                NO
 PW_GRID| Cutoff [a.u.]                                                     66.7
 PW_GRID| spherical cutoff:                                                   NO
 PW_GRID|   Bounds   1            -30      29                Points:          60
 PW_GRID|   Bounds   2            -30      29                Points:          60
 PW_GRID|   Bounds   3           -120     119                Points:         240
 PW_GRID| Volume element (a.u.^3)  0.1841E-01     Volume (a.u.^3)     15909.0657
 PW_GRID| Grid span                                                    FULLSPACE
 PW_GRID|   Distribution                         Average         Max         Min
 PW_GRID|   G-Vectors                             7200.0       23100           0
 PW_GRID|   G-Rays                                 120.0         385           0
 PW_GRID|   Real Space Points                     7200.0        7200        7200

 PW_GRID| Information for grid number                                          3
 PW_GRID| Number of the reference grid                                         1
 PW_GRID| Grid distributed over                                   120 processors
 PW_GRID| Real space group dimensions                                    10   12
 PW_GRID| the grid is blocked:                                                NO
 PW_GRID| Cutoff [a.u.]                                                     22.2
 PW_GRID| spherical cutoff:                                                   NO
 PW_GRID|   Bounds   1            -16      16                Points:          33
 PW_GRID|   Bounds   2            -16      16                Points:          33
 PW_GRID|   Bounds   3            -70      69                Points:         140
 PW_GRID| Volume element (a.u.^3)  0.1043         Volume (a.u.^3)     15909.0657
 PW_GRID| Grid span                                                    FULLSPACE
 PW_GRID|   Distribution                         Average         Max         Min
 PW_GRID|   G-Vectors                             1270.5       12705           0
 PW_GRID|   G-Rays                                  38.5         385           0
 PW_GRID|   Real Space Points                     1270.5        1680         840

 PW_GRID| Information for grid number                                          4
 PW_GRID| Number of the reference grid                                         1
 PW_GRID| Grid distributed over                                   120 processors
 PW_GRID| Real space group dimensions                                    10   12
 PW_GRID| the grid is blocked:                                                NO
 PW_GRID| Cutoff [a.u.]                                                      7.4
 PW_GRID| spherical cutoff:                                                   NO
 PW_GRID|   Bounds   1            -10       9                Points:          20
 PW_GRID|   Bounds   2            -10       9                Points:          20
 PW_GRID|   Bounds   3            -40      39                Points:          80
 PW_GRID| Volume element (a.u.^3)  0.4972         Volume (a.u.^3)     15909.0657
 PW_GRID| Grid span                                                    FULLSPACE
 PW_GRID|   Distribution                         Average         Max         Min
 PW_GRID|   G-Vectors                              266.7        7000           0
 PW_GRID|   G-Rays                                  13.3         350           0
 PW_GRID|   Real Space Points                      266.7         320         160

 POISSON| Solver                                                        PERIODIC
 POISSON| Periodicity                                                        XYZ

 RS_GRID| Information for grid number                                          1
 RS_GRID|   Bounds   1            -52      52                Points:         105
 RS_GRID|   Bounds   2            -52      52                Points:         105
 RS_GRID|   Bounds   3           -210     209                Points:         420
 RS_GRID| Real space distribution over                                  5 groups
 RS_GRID| Real space distribution along direction                              2
 RS_GRID| Border size                                                         30
 RS_GRID| Real space distribution over                                 24 groups
 RS_GRID| Real space distribution along direction                              3
 RS_GRID| Border size                                                         30
 RS_GRID|   Distribution                         Average         Max         Min
 RS_GRID|   Planes                                  81.0          81          81
 RS_GRID|   Distribution                         Average         Max         Min
 RS_GRID|   Planes                                  77.5          78          77

 RS_GRID| Information for grid number                                          2
 RS_GRID|   Bounds   1            -30      29                Points:          60
 RS_GRID|   Bounds   2            -30      29                Points:          60
 RS_GRID|   Bounds   3           -120     119                Points:         240
 RS_GRID| Real space distribution over                                  5 groups
 RS_GRID| Real space distribution along direction                              2
 RS_GRID| Border size                                                         20
 RS_GRID| Real space distribution over                                 24 groups
 RS_GRID| Real space distribution along direction                              3
 RS_GRID| Border size                                                         20
 RS_GRID|   Distribution                         Average         Max         Min
 RS_GRID|   Planes                                  52.0          52          52
 RS_GRID|   Distribution                         Average         Max         Min
 RS_GRID|   Planes                                  50.0          50          50

 RS_GRID| Information for grid number                                          3
 RS_GRID|   Bounds   1            -16      16                Points:          33
 RS_GRID|   Bounds   2            -16      16                Points:          33
 RS_GRID|   Bounds   3            -70      69                Points:         140
 RS_GRID| Real space fully replicated
 RS_GRID| Group size                                                           1

 RS_GRID| Information for grid number                                          4
 RS_GRID|   Bounds   1            -10       9                Points:          20
 RS_GRID|   Bounds   2            -10       9                Points:          20
 RS_GRID|   Bounds   3            -40      39                Points:          80
 RS_GRID| Real space fully replicated
 RS_GRID| Group size                                                           1

 KPOINTS| Number of kpoint groups                                              1
 KPOINTS| Size of each kpoint group                                          120
 KPOINTS| Number of kpoints per group                                          1

 Number of electrons:                                                        792
 Number of occupied orbitals:                                                396
 Number of molecular orbitals:                                               496

 Number of orbital functions:                                                648
 Number of independent orbital functions:                                    648

 Extrapolation method: initial_guess


 SCF WAVEFUNCTION OPTIMIZATION

  Step     Update method      Time    Convergence         Total energy    Change
  ------------------------------------------------------------------------------
 SMEAGOL DEBUG| Number of electrons in the unit cell =       792.0146217228
     1 NoMix/SMGL  0.30E+00   18.6     0.12950060     -2394.9740843297 -2.39E+03
 SMEAGOL DEBUG| Number of electrons in the unit cell =       791.4284808039
     2 Broy./SMGL  0.30E+00    6.9     0.25881093     -2396.5673862717 -1.59E+00
 SMEAGOL DEBUG| Number of electrons in the unit cell =       791.7887233710
     3 Broy./SMGL  0.30E+00    6.5     0.15590563     -2392.1348699051  4.43E+00
 SMEAGOL DEBUG| Number of electrons in the unit cell =       791.8848034822
     4 Broy./SMGL  0.30E+00    6.5     0.01706465     -2393.3692603056 -1.23E+00
 SMEAGOL DEBUG| Number of electrons in the unit cell =       792.0321642319
     5 Broy./SMGL  0.30E+00    6.2     0.02509400     -2393.9160577585 -5.47E-01
 SMEAGOL DEBUG| Number of electrons in the unit cell =       792.0633510093
     6 Broy./SMGL  0.30E+00    6.6     0.00900643     -2394.8033223042 -8.87E-01
 SMEAGOL DEBUG| Number of electrons in the unit cell =       792.0318928402
     7 Broy./SMGL  0.30E+00    6.4     0.00381062     -2395.0502384089 -2.47E-01
 SMEAGOL DEBUG| Number of electrons in the unit cell =       792.0275407802
     8 Broy./SMGL  0.30E+00    6.5     0.00159940     -2394.9113389007  1.39E-01
 SMEAGOL DEBUG| Number of electrons in the unit cell =       792.0237494746
     9 Broy./SMGL  0.30E+00    6.3     0.00060534     -2394.9657431882 -5.44E-02
 SMEAGOL DEBUG| Number of electrons in the unit cell =       792.0125439859
    10 Broy./SMGL  0.30E+00    6.4     0.00056552     -2394.9757986581 -1.01E-02
 SMEAGOL DEBUG| Number of electrons in the unit cell =       792.0115818025
    11 Broy./SMGL  0.30E+00    6.5     0.00020408     -2394.9782154356 -2.42E-03
 SMEAGOL DEBUG| Number of electrons in the unit cell =       792.0114578340
    12 Broy./SMGL  0.30E+00    6.3     0.00027012     -2394.9782410646 -2.56E-05
 SMEAGOL DEBUG| Number of electrons in the unit cell =       792.0137301410
    13 Broy./SMGL  0.30E+00    6.3     0.00007728     -2394.9723283895  5.91E-03
 SMEAGOL DEBUG| Number of electrons in the unit cell =       792.0141761213
    14 Broy./SMGL  0.30E+00    6.2     0.00003250     -2394.9741535868 -1.83E-03
 SMEAGOL DEBUG| Number of electrons in the unit cell =       792.0145400416
    15 Broy./SMGL  0.30E+00    6.2     0.00002367     -2394.9736491349  5.04E-04
 SMEAGOL DEBUG| Number of electrons in the unit cell =       792.0144260851
    16 Broy./SMGL  0.30E+00    6.6     0.00001460     -2394.9743294368 -6.80E-04
 SMEAGOL DEBUG| Number of electrons in the unit cell =       792.0143749270
    17 Broy./SMGL  0.30E+00    6.2     0.00001230     -2394.9736655661  6.64E-04
 SMEAGOL DEBUG| Number of electrons in the unit cell =       792.0143776439
    18 Broy./SMGL  0.30E+00    6.4     0.00001328     -2394.9736548072  1.08E-05
 SMEAGOL DEBUG| Number of electrons in the unit cell =       792.0143779856
    19 Broy./SMGL  0.30E+00    6.2     0.00001098     -2394.9737068207 -5.20E-05
 SMEAGOL DEBUG| Number of electrons in the unit cell =       792.0144738938
    20 Broy./SMGL  0.30E+00    6.2     0.00000615     -2394.9734733827  2.33E-04
 SMEAGOL DEBUG| Number of electrons in the unit cell =       792.0145361096
    21 Broy./SMGL  0.30E+00    6.5     0.00000111     -2394.9735077542 -3.44E-05
 SMEAGOL DEBUG| Number of electrons in the unit cell =       792.0145632709
    22 Broy./SMGL  0.30E+00    6.2     0.00000045     -2394.9735321925 -2.44E-05
 SMEAGOL DEBUG| Number of electrons in the unit cell =       792.0145632566
    23 Broy./SMGL  0.30E+00    6.3     0.00000045     -2394.9735392408 -7.05E-06
 SMEAGOL DEBUG| Number of electrons in the unit cell =       792.0145637214
    24 Broy./SMGL  0.30E+00    6.2     0.00000031     -2394.9735369191  2.32E-06
 SMEAGOL DEBUG| Number of electrons in the unit cell =       792.0145705649
    25 Broy./SMGL  0.30E+00    6.2     0.00000030     -2394.9735370822 -1.63E-07
 SMEAGOL DEBUG| Number of electrons in the unit cell =       792.0145718199
    26 Broy./SMGL  0.30E+00    6.3     0.00000016     -2394.9735501992 -1.31E-05
 SMEAGOL DEBUG| Number of electrons in the unit cell =       792.0145738244
    27 Broy./SMGL  0.30E+00    6.4     0.00000017     -2394.9735478194  2.38E-06
 SMEAGOL DEBUG| Number of electrons in the unit cell =       792.0145707226
    28 Broy./SMGL  0.30E+00    6.5     0.00000006     -2394.9735526774 -4.86E-06

  *** SCF run converged in    28 steps ***


  Electronic density on regular grids:       -792.0145707226       -0.0145707226
  Core density on regular grids:              791.9999998700       -0.0000001300
  Total charge density on r-space grids:       -0.0145708526
  Total charge density g-space grids:          -0.0145708526

  Overlap energy of the core charge distribution:               0.00000016985214
  Self energy of the core charge distribution:              -4165.44038293902850
  Core Hamiltonian energy:                                   1319.06841376757939
  Hartree energy:                                             822.03974921512440
  Exchange-correlation energy:                               -370.64133289094394
  Electronic entropic energy:                                   0.00000000000000
  Fermi energy:                                                 0.00000000000000

  Total energy:                                             -2394.97355267741705

 The electron density is written in cube file format to the file:

 V-ELECTRON_DENSITY-1_0.cube

 !-----------------------------------------------------------------------------!
                     Mulliken Population Analysis

 #  Atom  Element  Kind  Atomic population                           Net charge
       1     Au       1         11.057535                             -0.057535
       2     Au       1         11.057535                             -0.057535
       3     Au       1         10.884912                              0.115088
       4     Au       1         10.884912                              0.115088
       5     Au       1         11.057535                             -0.057535
       6     Au       1         11.057536                             -0.057536
       7     Au       1         11.057553                             -0.057553
       8     Au       1         11.057553                             -0.057553
       9     Au       1         10.885030                              0.114970
      10     Au       1         10.885031                              0.114969
      11     Au       1         11.057553                             -0.057553
      12     Au       1         11.057553                             -0.057553
      13     Au       1         11.052756                             -0.052756
      14     Au       1         11.052757                             -0.052757
      15     Au       1         10.879638                              0.120362
      16     Au       1         10.879638                              0.120362
      17     Au       1         11.052757                             -0.052757
      18     Au       1         11.052757                             -0.052757
      19     Au       1         11.043542                             -0.043542
      20     Au       1         11.043542                             -0.043542
      21     Au       1         10.878721                              0.121279
      22     Au       1         10.878722                              0.121278
      23     Au       1         11.043542                             -0.043542
      24     Au       1         11.043542                             -0.043542
      25     Au       1         11.042700                             -0.042700
      26     Au       1         11.042700                             -0.042700
      27     Au       1         10.842615                              0.157385
      28     Au       1         10.842615                              0.157385
      29     Au       1         11.042700                             -0.042700
      30     Au       1         11.042700                             -0.042700
      31     Au       1         11.049356                             -0.049356
      32     Au       1         11.049356                             -0.049356
      33     Au       1         11.047493                             -0.047493
      34     Au       1         11.047493                             -0.047493
      35     Au       1         11.049356                             -0.049356
      36     Au       1         11.049356                             -0.049356
      37     Au       1         11.036060                             -0.036060
      38     Au       1         11.036060                             -0.036060
      39     Au       1         11.036584                             -0.036584
      40     Au       1         11.036584                             -0.036584
      41     Au       1         11.036060                             -0.036060
      42     Au       1         11.036060                             -0.036060
      43     Au       1         11.040490                             -0.040490
      44     Au       1         11.040490                             -0.040490
      45     Au       1         10.839968                              0.160032
      46     Au       1         10.839968                              0.160032
      47     Au       1         11.040491                             -0.040491
      48     Au       1         11.040491                             -0.040491
      49     Au       1         11.043885                             -0.043885
      50     Au       1         11.043886                             -0.043886
      51     Au       1         10.878865                              0.121135
      52     Au       1         10.878865                              0.121135
      53     Au       1         11.043886                             -0.043886
      54     Au       1         11.043886                             -0.043886
      55     Au       1         11.052862                             -0.052862
      56     Au       1         11.052862                             -0.052862
      57     Au       1         10.879852                              0.120148
      58     Au       1         10.879852                              0.120148
      59     Au       1         11.052862                             -0.052862
      60     Au       1         11.052862                             -0.052862
      61     Au       1         11.057554                             -0.057554
      62     Au       1         11.057555                             -0.057555
      63     Au       1         10.885032                              0.114968
      64     Au       1         10.885032                              0.114968
      65     Au       1         11.057554                             -0.057554
      66     Au       1         11.057555                             -0.057555
      67     Au       1         11.057535                             -0.057535
      68     Au       1         11.057535                             -0.057535
      69     Au       1         10.884912                              0.115088
      70     Au       1         10.884912                              0.115088
      71     Au       1         11.057536                             -0.057536
      72     Au       1         11.057536                             -0.057536
 # Total charge                            792.014568                 -0.014568

 !-----------------------------------------------------------------------------!

 !-----------------------------------------------------------------------------!
                           Hirshfeld Charges

  #Atom  Element  Kind  Ref Charge     Population                    Net charge
      1       Au     1      11.000         11.018                        -0.018
      2       Au     1      11.000         11.018                        -0.018
      3       Au     1      11.000         10.965                         0.035
      4       Au     1      11.000         10.965                         0.035
      5       Au     1      11.000         11.018                        -0.018
      6       Au     1      11.000         11.018                        -0.018
      7       Au     1      11.000         11.018                        -0.018
      8       Au     1      11.000         11.018                        -0.018
      9       Au     1      11.000         10.965                         0.035
     10       Au     1      11.000         10.965                         0.035
     11       Au     1      11.000         11.018                        -0.018
     12       Au     1      11.000         11.018                        -0.018
     13       Au     1      11.000         11.017                        -0.017
     14       Au     1      11.000         11.017                        -0.017
     15       Au     1      11.000         10.965                         0.035
     16       Au     1      11.000         10.965                         0.035
     17       Au     1      11.000         11.017                        -0.017
     18       Au     1      11.000         11.017                        -0.017
     19       Au     1      11.000         11.017                        -0.017
     20       Au     1      11.000         11.017                        -0.017
     21       Au     1      11.000         10.974                         0.026
     22       Au     1      11.000         10.974                         0.026
     23       Au     1      11.000         11.017                        -0.017
     24       Au     1      11.000         11.017                        -0.017
     25       Au     1      11.000         11.004                        -0.004
     26       Au     1      11.000         11.004                        -0.004
     27       Au     1      11.000         10.953                         0.047
     28       Au     1      11.000         10.953                         0.047
     29       Au     1      11.000         11.004                        -0.004
     30       Au     1      11.000         11.004                        -0.004
     31       Au     1      11.000         11.029                        -0.029
     32       Au     1      11.000         11.029                        -0.029
     33       Au     1      11.000         10.999                         0.001
     34       Au     1      11.000         10.999                         0.001
     35       Au     1      11.000         11.029                        -0.029
     36       Au     1      11.000         11.029                        -0.029
     37       Au     1      11.000         11.015                        -0.015
     38       Au     1      11.000         11.015                        -0.015
     39       Au     1      11.000         10.988                         0.012
     40       Au     1      11.000         10.988                         0.012
     41       Au     1      11.000         11.015                        -0.015
     42       Au     1      11.000         11.015                        -0.015
     43       Au     1      11.000         11.003                        -0.003
     44       Au     1      11.000         11.003                        -0.003
     45       Au     1      11.000         10.953                         0.047
     46       Au     1      11.000         10.953                         0.047
     47       Au     1      11.000         11.003                        -0.003
     48       Au     1      11.000         11.003                        -0.003
     49       Au     1      11.000         11.017                        -0.017
     50       Au     1      11.000         11.017                        -0.017
     51       Au     1      11.000         10.974                         0.026
     52       Au     1      11.000         10.974                         0.026
     53       Au     1      11.000         11.017                        -0.017
     54       Au     1      11.000         11.017                        -0.017
     55       Au     1      11.000         11.017                        -0.017
     56       Au     1      11.000         11.017                        -0.017
     57       Au     1      11.000         10.965                         0.035
     58       Au     1      11.000         10.965                         0.035
     59       Au     1      11.000         11.017                        -0.017
     60       Au     1      11.000         11.017                        -0.017
     61       Au     1      11.000         11.018                        -0.018
     62       Au     1      11.000         11.018                        -0.018
     63       Au     1      11.000         10.965                         0.035
     64       Au     1      11.000         10.965                         0.035
     65       Au     1      11.000         11.018                        -0.018
     66       Au     1      11.000         11.018                        -0.018
     67       Au     1      11.000         11.018                        -0.018
     68       Au     1      11.000         11.018                        -0.018
     69       Au     1      11.000         10.965                         0.035
     70       Au     1      11.000         10.965                         0.035
     71       Au     1      11.000         11.018                        -0.018
     72       Au     1      11.000         11.018                        -0.018

  Total Charge                                                           -0.015
 !-----------------------------------------------------------------------------!
 Calculating transmission coefficient

 ENERGY| Total FORCE_EVAL ( QS ) energy [a.u.]:            -2394.973552677417047

 -------------------------------------------------------------------------------
 -                                                                             -
 -                                DBCSR STATISTICS                             -
 -                                                                             -
 -------------------------------------------------------------------------------
 COUNTER                                    TOTAL       BLAS       SMM       ACC
 flops inhomo. stacks                           0       0.0%      0.0%      0.0%
 flops total                         0.000000E+00       0.0%      0.0%      0.0%
 flops max/rank                      0.000000E+00       0.0%      0.0%      0.0%
 matmuls inhomo. stacks                         0       0.0%      0.0%      0.0%
 matmuls total                                  0       0.0%      0.0%      0.0%
 number of processed stacks                     0       0.0%      0.0%      0.0%
 average stack size                                     0.0       0.0       0.0
 marketing flops                     0.000000E+00
 -------------------------------------------------------------------------------
 -                                                                             -
 -                      DBCSR MESSAGE PASSING PERFORMANCE                      -
 -                                                                             -
 -------------------------------------------------------------------------------
 ROUTINE             CALLS      AVE VOLUME [Bytes]
 MP_Bcast                1                     12.
 MP_Allreduce         1867                      8.
 MP_Alltoall          1975                  58879.
 -------------------------------------------------------------------------------

 -------------------------------------------------------------------------------
 -                                                                             -
 -                                DBM STATISTICS                               -
 -                                                                             -
 -------------------------------------------------------------------------------
    M  x    N  x    K                                          COUNT     PERCENT
 -------------------------------------------------------------------------------

 -------------------------------------------------------------------------------
 -                                                                             -
 -                                GRID STATISTICS                              -
 -                                                                             -
 -------------------------------------------------------------------------------
 LP    KERNEL             BACKEND                              COUNT     PERCENT
 4     collocate ortho    REF                                1415548      48.33%
 4     integrate ortho    REF                                1366736      46.66%
 0     collocate general  REF                                  77760       2.65%
 0     integrate general  REF                                  69120       2.36%
 -------------------------------------------------------------------------------

 MEMORY| Estimated peak process memory [MiB]                                 570

 -------------------------------------------------------------------------------
 ----                             MULTIGRID INFO                            ----
 -------------------------------------------------------------------------------
 count for grid        1:          22592          cutoff [a.u.]          200.00
 count for grid        2:          70180          cutoff [a.u.]           66.67
 count for grid        3:          34768          cutoff [a.u.]           22.22
 count for grid        4:          36472          cutoff [a.u.]            7.41
 total gridlevel count  :         164012

 -------------------------------------------------------------------------------
 -                                                                             -
 -                         MESSAGE PASSING PERFORMANCE                         -
 -                                                                             -
 -------------------------------------------------------------------------------

 ROUTINE             CALLS      AVE VOLUME [Bytes]
 MP_Group                5
 MP_Bcast            11281                  32660.
 MP_Allreduce         2128                 416695.
 MP_Sync               346
 MP_Alltoall           529
 MP_ISendRecv        13566                   8000.
 MP_Wait             18579
 MP_ISend             7361                  56440.
 MP_IRecv             7441                  55947.
 MP_Recv              1320                 165888.
 MP_Write_All            2                 547470.
 -------------------------------------------------------------------------------


 -------------------------------------------------------------------------------
 -                                                                             -
 -                           R E F E R E N C E S                               -
 -                                                                             -
 -------------------------------------------------------------------------------
 
 CP2K version 2022.1 (Development Version), the CP2K developers group (2022).
 CP2K is freely available from https://www.cp2k.org/ .

 Kuehne,Thomas D.; Iannuzzi,Marcella; Del Ben,Mauro;
 Rybkin,Vladimir V.; Seewald,Patrick; Stein,Frederick; Laino,Teodoro;
 Khaliullin,Rustam Z.; Schuett,Ole; Schiffmann,Florian; Golze,Dorothea;
 Wilhelm,Jan; Chulkov,Sergey; Bani-Hashemian,Mohammad Hossein;
 Weber,Valery; Borstnik,Urban; Taillefumier,Mathieu;
 Jakobovits,Alice Shoshana; Lazzaro,Alfio; Pabst,Hans; Mueller,Tiziano;
 Schade,Robert; Guidon,Manuel; Andermatt,Samuel; Holmberg,Nico;
 Schenter,Gregory K.; Hehn,Anna; Bussy,Augustin; Belleflamme,Fabian;
 Tabacchi,Gloria; Gloess,Andreas; Lass,Michael; Bethune,Iain;
 Mundy,Christopher J.; Plessl,Christian; Watkins,Matt;
 VandeVondele,Joost; Krack,Matthias; Hutter,Juerg. 
 The Journal of Chemical Physics, 152 (19), (2020). 
 CP2K: An electronic structure and molecular dynamics software package -
 Quickstep: Efficient and accurate electronic structure calculations.
 https://doi.org/10.1063/5.0007045

 Togo, Atsushi; Tanaka, Isao. arXiv, 1808.01590 (2018). 
 Spglib : a software library for crystal symmetry search.
 https://doi.org/xxx

 Schuett, Ole; Messmer, Peter; Hutter, Juerg; VandeVondele, Joost. 
 Electronic Structure Calculations on Graphics Processing Units, John
 Wiley & Sons, Ltd, 173-190 (2016). 
 GPU-Accelerated Sparse Matrix-Matrix Multiplication for
 Linear Scaling Density Functional Theory.
 https://doi.org/10.1002/9781118670712.ch8

 Heinecke, A; Henry, G; Hutchinson, M; Pabst, H. 
 Proceedings of Intl. Supercomputing Conference, 981-991 (2016). 
 LIBXSMM: Accelerating Small Matrix Multiplications
 by Runtime Code Generation.
 https://doi.org/10.1109/SC.2016.83

 Borstnik, U; VandeVondele, J; Weber, V; Hutter, J. 
 PARALLEL COMPUTING, 40 (5-6), 47-58 (2014). 
 Sparse matrix multiplication: The distributed block-compressed sparse
 row library.
 https://doi.org/10.1016/j.parco.2014.03.012

 Hutter, J; Iannuzzi, M; Schiffmann, F; VandeVondele, J. 
 WIREs Comput Mol Sci., 4 (1), 15-25 (2014). 
 CP2K: atomistic simulations of condensed matter systems.
 https://doi.org/10.1002/wcms.1159

 VandeVondele, J; Hutter, J. 
 JOURNAL OF CHEMICAL PHYSICS, 127 (11), 114105 (2007). 
 Gaussian basis sets for accurate calculations on molecular systems in
 gas and condensed phases.
 https://doi.org/10.1063/1.2770708

 Krack, M. 
 THEORETICAL CHEMISTRY ACCOUNTS, 114 (1-3), 145-152 (2005). 
 Pseudopotentials for H to Kr optimized for gradient-corrected
 exchange-correlation functionals.
 https://doi.org/10.1007/s00214-005-0655-y

 VandeVondele, J; Krack, M; Mohamed, F; Parrinello, M; Chassaing, T;
 Hutter, J. COMPUTER PHYSICS COMMUNICATIONS, 167 (2), 103-128 (2005). 
 QUICKSTEP: Fast and accurate density functional calculations using a
 mixed Gaussian and plane waves approach.
 https://doi.org/10.1016/j.cpc.2004.12.014

 Frigo, M; Johnson, SG. 
 PROCEEDINGS OF THE IEEE, 93 (2), 216-231 (2005). 
 The design and implementation of FFTW3.
 https://doi.org/10.1109/JPROC.2004.840301

 Hartwigsen, C; Goedecker, S; Hutter, J. 
 PHYSICAL REVIEW B, 58 (7), 3641-3662 (1998). 
 Relativistic separable dual-space Gaussian pseudopotentials from H to Rn.
 https://doi.org/10.1103/PhysRevB.58.3641

 Lippert, G; Hutter, J; Parrinello, M. 
 MOLECULAR PHYSICS, 92 (3), 477-487 (1997). 
 A hybrid Gaussian and plane wave density functional scheme.
 https://doi.org/10.1080/002689797170220

 Goedecker, S; Teter, M; Hutter, J. 
 PHYSICAL REVIEW B, 54 (3), 1703-1710 (1996). 
 Separable dual-space Gaussian pseudopotentials.
 https://doi.org/10.1103/PhysRevB.54.1703


 -------------------------------------------------------------------------------
 -                                                                             -
 -                                T I M I N G                                  -
 -                                                                             -
 -------------------------------------------------------------------------------
 SUBROUTINE                       CALLS  ASD         SELF TIME        TOTAL TIME
                                MAXIMUM       AVERAGE  MAXIMUM  AVERAGE  MAXIMUM
 CP2K                                 1  1.0    0.032    0.054  203.381  203.384
 qs_energies                          1  2.0    0.000    0.000  203.165  203.171
 run_smeagol_emtrans                 29  5.9  168.515  180.309  193.304  193.533
 scf_env_do_scf                       1  3.0    0.000    0.000  191.304  191.409
 scf_env_do_scf_inner_loop           28  4.0    0.005    0.460  191.304  191.409
 qs_scf_new_mos_kp                   28  5.0    0.000    0.001  184.253  184.476
 mp_sum_iv                          218  7.2   11.564   11.688   11.564   11.688
 convert_dbcsr_to_replsiesta         58  6.9    1.072    1.186    4.532    5.487
 dbcsr_replicate                   2871  7.9    0.069    0.081    4.437    4.448
 mp_sum_dv                          195  7.6    3.998    4.231    3.998    4.231
 -------------------------------------------------------------------------------

 The number of warnings for this run is : 0
 
 -------------------------------------------------------------------------------
  **** **** ******  **  PROGRAM ENDED AT                 2023-03-22 20:03:31.149
 ***** ** ***  *** **   PROGRAM RAN ON                     cn1079.scarf.rl.ac.uk
 **    ****   ******    PROGRAM RAN BY                                 scarf1157
 ***** **    ** ** **   PROGRAM PROCESS ID                                 51010
  **** **  *******  **  PROGRAM STOPPED IN /work4/scd/scarf1157/work/testing/cp2
                                           k-smeagol/bdt/cp2k/hollow-site/transp
                                           ort-cp2k/5-4/geometry-ordered/3x3-4/s
                                           z/bulk_layers-4/transmission/exp/capa
                                           citor/sergey-2d-equal/x-4.168/kpoints
                                           -1-1-20_hlb-auto
