SIESTA 1.3.7  -- [1.3f1 release] (04 Feb 2004)
Architecture  : mpif90
Compiler flags:  -O2 -openmp 
PARALLEL version

* Running on    8 nodes in parallel
 OMP_NUM_THREADS environment variable=1                                        0
 MKL_NUM_THREADS environment variable=1                                        0
 OMP_NUM_THREADS environment variable=1                                        1
 MKL_NUM_THREADS environment variable=1                                        1
 Maximum number of Threads, node index:           1           1
 Maximum number of Threads, node index:           1           0
 Maximum number of Threads, node index:           1           5
 Maximum number of Threads, node index:           1           4
 Maximum number of Threads, node index:           1           3
 Maximum number of Threads, node index:           1           7
 Maximum number of Threads, node index:           1           2
 Maximum number of Threads, node index:           1           6
 In parallel region?  F
 Number of Threads in parallel region           1
 Node index, Thread index           0           0
>> Start of run:  26-AUG-2013   0:57:20

                           ***********************       
                           *  WELCOME TO SIESTA  *       
                           ***********************       

reinit: Reading from standard input
************************** Dump of input data file ****************************
SystemName  Au capacitor
SystemLabel Au_Au
#********************************************************
# Specification of atomic species and positions
#********************************************************
# Chemical species
NumberOfSpecies 1
%block ChemicalSpeciesLabel
 1 79 Au
%endblock ChemicalSpeciesLabel
# UNIT CELL
LatticeConstant       1.0 Ang
%block LatticeVectors
   4.3289600000 -7.4979700000  0.0000000000
   4.3289600000  7.4979700000  0.0000000000
   0.0000000000  0.0000000000 26.0946980100
%endblock LatticeVectors
# ATOMIC POSITIONS
NumberOfAtoms    75
AtomicCoordinatesFormat Ang
%block AtomicCoordinatesAndAtomicSpecies
   1.4429860000  0.8331080000  0.0000000000 1
   2.8859710000 -1.6662140000  0.0000000000 1
   4.3289560000 -4.1655360000  0.0000000000 1
   2.8859710000  3.3324300000  0.0000000000 1
   4.3289560000  0.8331080000  0.0000000000 1
   5.7719410000 -1.6662140000  0.0000000000 1
   4.3289560000  5.8317520000  0.0000000000 1
   5.7719410000  3.3324300000  0.0000000000 1
   7.2149260000  0.8331080000  0.0000000000 1
   1.4429860000 -0.8331080000  2.3563860000 1
   2.8859710000 -3.3324300000  2.3563860000 1
   4.3289560000 -5.8317520000  2.3563860000 1
   2.8859710000  1.6662140000  2.3563860000 1
   4.3289560000 -0.8331080000  2.3563860000 1
   5.7719410000 -3.3324300000  2.3563860000 1
   4.3289560000  4.1655360000  2.3563860000 1
   5.7719410000  1.6662140000  2.3563860000 1
   7.2149260000 -0.8331080000  2.3563860000 1
   1.4429860000  0.8331080000  4.7127720000 1
   2.8859710000 -1.6662140000  4.7127720000 1
   4.3289560000 -4.1655360000  4.7127720000 1
   2.8859710000  3.3324300000  4.7127720000 1
   4.3289560000  0.8331080000  4.7127720000 1
   5.7719410000 -1.6662140000  4.7127720000 1
   4.3289560000  5.8317520000  4.7127720000 1
   5.7719410000  3.3324300000  4.7127720000 1
   7.2149260000  0.8331080000  4.7127720000 1
   1.4429860000 -0.8331080000  7.0691580000 1
   2.8859710000 -3.3324300000  7.0691580000 1
   4.3289560000 -5.8317520000  7.0691580000 1
   2.8859710000  1.6662140000  7.0691580000 1
   4.3289560000 -0.8331080000  7.0691580000 1
   5.7719410000 -3.3324300000  7.0691580000 1
   4.3289560000  4.1655360000  7.0691580000 1
   5.7719410000  1.6662140000  7.0691580000 1
   7.2149260000 -0.8331080000  7.0691580000 1
   4.3289560000  0.8331080000  9.2521580000 1
   4.3289560000  0.8331080000  11.8691580000 1
   4.3289560000  0.8331080000  14.4861580000 1
   1.4429860000 -0.8331080000  16.6691580100 1
   2.8859710000 -3.3324300000  16.6691580100 1
   4.3289560000 -5.8317520000  16.6691580100 1
   2.8859710000  1.6662140000  16.6691580100 1
   4.3289560000 -0.8331080000  16.6691580100 1
   5.7719410000 -3.3324300000  16.6691580100 1
   4.3289560000  4.1655360000  16.6691580100 1
   5.7719410000  1.6662140000  16.6691580100 1
   7.2149260000 -0.8331080000  16.6691580100 1
   0.0000000000  0.0000000000  19.0255450100 1
   1.4429850000 -2.4993220000  19.0255450100 1
   2.8859700000 -4.9986440000  19.0255450100 1
   1.4429850000  2.4993220000  19.0255450100 1
   2.8859700000  0.0000000000  19.0255450100 1
   4.3289550000 -2.4993220000  19.0255450100 1
   2.8859700000  4.9986440000  19.0255450100 1
   4.3289550000  2.4993220000  19.0255450100 1
   5.7719400000  0.0000000000  19.0255450100 1
   1.4429860000  0.8331080000  21.3819260100 1
   2.8859710000 -1.6662140000  21.3819260100 1
   4.3289560000 -4.1655360000  21.3819260100 1
   2.8859710000  3.3324300000  21.3819260100 1
   4.3289560000  0.8331080000  21.3819260100 1
   5.7719410000 -1.6662140000  21.3819260100 1
   4.3289560000  5.8317520000  21.3819260100 1
   5.7719410000  3.3324300000  21.3819260100 1
   7.2149260000  0.8331080000  21.3819260100 1
   1.4429860000 -0.8331080000  23.7383120100 1
   2.8859710000 -3.3324300000  23.7383120100 1
   4.3289560000 -5.8317520000  23.7383120100 1
   2.8859710000  1.6662140000  23.7383120100 1
   4.3289560000 -0.8331080000  23.7383120100 1
   5.7719410000 -3.3324300000  23.7383120100 1
   4.3289560000  4.1655360000  23.7383120100 1
   5.7719410000  1.6662140000  23.7383120100 1
   7.2149260000 -0.8331080000  23.7383120100 1
%endblock AtomicCoordinatesAndAtomicSpecies
#********************************************************
# DFT options
#********************************************************
# Basis set variables
PAO.BasisType split
%block PAO.Basis
  Au  1
n=6  0  1  P 0 E 20 4
  5.5
%endblock PAO.Basis
%block PS.lmax
 Au   1
%endblock PS.lmax
# k-mesh for Brillouin zone integration
%block kgrid_Monkhorst_Pack
  2   0   0     0.0
  0   2   0     0.0
  0   0   1     0.0
%endblock kgrid_Monkhorst_Pack
# General variables
ElectronicTemperature  300 K
MeshCutoff             200. Ry
xc.functional          LDA           # Exchange-correlation functional
xc.authors             CA
SpinPolarized          F
# SCF variables
DM.MixSCF1            T
MaxSCFIterations      1000           # Maximum number of SCF iter
DM.MixingWeight       0.03           # New DM amount for next SCF cycle
DM.Tolerance          2.0d-4         # Tolerance in maximum difference
DM.UseSaveDM          true           # to use continuation files
DM.NumberPulay        5
# Output variables
WriteMullikenPop                0
WriteBands                      F
SaveRho                         T
SaveElectrostaticPotential      T
SaveTotalPotential              F
WriteCoorXmol                   T
WriteMDXmol                     T
#********************************************************
# SMEAGOL options
#********************************************************
# perform a transport calculation
EMTransport               T
# set number of energy points for integrals
NEnergReal              640
NEnergImCircle           16
NEnergImLine             16
NPoles                   16
#set bias range
VInitial                 0.00d0 eV
VFinal                   2.00d0 eV
NIVPoints                10
# General variables
Delta                    1.d-4
EnergLowestBound        -5.0d0 Ry
NSlices                  1
PeriodicTransp           T
InitTransport            T
SaveMemTranspK           F
WriteDMT                 F
# Matching of Hartree potential with the leads
HartreeLeadsBottom     -19.94020653     eV
HartreeLeadsLeft         0.00          Ang
HartreeLeadsRight       26.0946980100  Ang
# print transmission coefficient
TrCoefficients           T
NTransmPoints            400
TransmissionOverK        F
TRCScaleEF               T
InitTransmRange         -10.0  eV
FinalTransmRange         10.0  eV
TransmissionEmbed        F
TRC.EMDOS                T
TRC.EMPDOS               T
TRC.LeadsDOS             T
TRC.LeadsPDOS            F
Sigma.PDOS               F
Sigma.DOSVV              F
# save output for specified bias steps
%block SaveBiasSteps
 0 5 10
%endblock SaveBiasSteps
************************** End of input data file *****************************

reinit: -----------------------------------------------------------------------
reinit: System Name: Au capacitor                                               
reinit: -----------------------------------------------------------------------
reinit: System Label: Au_Au               
reinit: -----------------------------------------------------------------------

initatom: Reading input for the pseudopotentials and atomic orbitals ----------
 Species number:            1  Label: Au Atomic number:          79
Ground state valence configuration:   6s01  5d10
Reading pseudopotential information in formatted form from Au.psf
Semicore shell(s) with ** electrons included in the valence for
Au
relmxkb: Read Max KB Ang. Momentum=    1 for species Au

<basis_specs>
===============================================================================
Au                   Z=  79    Mass=  196.97        Charge=  0.0000    
Lmxo=0 Lmxkb=1     BasisType=split      Semic=T
L=0  Nsemic=0  Cnfigmx=6
          n=1  nzeta=1  polorb=0
               vcte:    20.000    
               rinn:    4.0000    
                rcs:    5.5000    
            lambdas:    1.0000    
-------------------------------------------------------------------------------
L=0  Nkbl=1  erefs: 0.17977+309
L=1  Nkbl=1  erefs: 0.17977+309
===============================================================================
</basis_specs>

atom: Called for Au  (Z =  79)

read_vps: Pseudopotential generation method:
read_vps: ATM3      Troullier-Martins                       

read_vps: Pseudopotential generated from a relativistic atomic calculation
read_vps: There are spin-orbit pseudopotentials available

read_vps: Valence configuration (pseudopotential and basis set generation):
6s( 1.00) rc: 2.29
6p( 0.00) rc: 2.29
Total valence charge:    1.00000

read_vps: Pseudopotential includes a core correction:
read_vps: Pseudo-core for xc-correction
comcore: Pseudo-core radius Rcore=  7.714087

xc_check: Exchange-correlation functional:
xc_check: Ceperley-Alder
V l=0 = -2*Zval/r beyond r=  6.3158
V l=1 = -2*Zval/r beyond r=  6.3158
All V_l potentials equal beyond r=  2.2661
This should be close to max(r_c) in ps generation
All pots = -2*Zval/r beyond r=  6.3158
Using large-core scheme for Vlocal

atom: Estimated core radius    6.31575
atom: Maximum radius for 4*pi*r*r*local-pseudopot. charge    6.72309
atom: Maximum radius for r*vlocal+2*Zval:    6.39520
GHOST: No ghost state for L =  0
GHOST: No ghost state for L =  1

KBgen: Kleinman-Bylander projectors: 
   l= 0   rc=  2.352642   el= -0.445660   Ekb=  4.785126   kbcos=  0.279017
   l= 1   rc=  2.352642   el= -0.065043   Ekb=  2.856109   kbcos=  0.217743

KBgen: Total number of  Kleinman-Bylander projectors:    4
atom: -------------------------------------------------------------------------

atom: SANKEY-TYPE ORBITALS:

SPLIT: Orbitals with angular momentum L= 0

SPLIT: Basis orbitals for state 6s

   izeta = 1
                 lambda =    1.000000
                     rc =    5.504393
                 energy =   -0.392859
                kinetic =    0.507951
    potential(screened) =   -0.900809
       potential(ionic) =   -0.802802
atom: Total number of Sankey-type orbitals:  1

atm_pop: Valence configuration(local Pseudopot. screening):
 6s( 1.00)                                                            
Vna: chval, zval:    1.00000   1.00000

Vna:  Cut-off radius for the neutral-atom potential:   6.475639
Vna: WARNING: Cut-off radius for the neutral-atom potential, rVna =     6.47564
Vna: WARNING: Cut-off radius for charge density =     5.50439
Vna: WARNING: Check atom: Look for the sentence:
Vna: WARNING: LOCAL NEUTRAL-ATOM PSEUDOPOTENTIAL
Vna: WARNING: Increasing the tolerance parameter EPS
Vna: WARNING: might be a good idea

atom: _________________________________________________________________________

prinput: Basis input ----------------------------------------------------------

PAO.BasisType split     

%block ChemicalSpeciesLabel
    1   79 Au                      # Species index, atomic number, species label
%endblock ChemicalSpeciesLabel

%block PAO.Basis                 # Define Basis set
Au          1                    # Species label, number of l-shells
 n=6   0   1                         # n, l, Nzeta 
   5.504   
   1.000   
%endblock PAO.Basis

prinput: ----------------------------------------------------------------------


siesta: ******************** Simulation parameters ****************************
siesta:
siesta: The following are some of the parameters of the simulation.
siesta: A complete list of the parameters used, including defect values,
siesta: can be found in file out.fdf
siesta:
coor:   Atomic-coordinates input format  =     Cartesian coordinates
coor:                                          (in Angstroms)
redata: Number of spin components        =     1
redata: SpinOrbit                        =     0
redata: Long output                      =     F
redata: Number of Atomic Species         =     1
redata: Charge density info will appear in .RHO file
redata: Write Mulliken Pop.              =     NO
redata: Mesh Cutoff                      =   200.0000  Ry
redata: Net charge of the system         =     0.0000 |e|
redata: Max. number of SCF Iter          =  1000
redata: One Pulay mixing every           =     5 iterations
redata: Mix DM in first SCF step ?       =     T
redata: Write Pulay info on disk?        =     F
redata: New DM Mixing Weight             =     0.0300
redata: No kicks to SCF
redata: DM Mixing Weight for Kicks       =     0.5000
redata: DM Tolerance for SCF             =     0.000200
redata: Use continuation files for DM    =     T
redata: Neglect nonoverlap interactions  =     F
redata: Method of Calculation            =     Diagonalization
redata: Divide and Conquer               =     F
redata: Electronic Temperature           =     0.0019  Ry
redata: Fix the spin of the system       =     F
redata: Dynamics option                  =     CG coord. optimization
redata: Variable cell                    =     F
redata: Use continuation files for CG    =     F
redata: Maximum number of CG moves       =     0
redata: Max atomic displ per move        =     0.2000  Bohr
redata: Force tolerance                  =     0.0016  Ry/Bohr
redata: ***********************************************************************

siesta: Atomic coordinates (Bohr) and species
siesta:      2.72685   1.57435   0.00000  1        1
siesta:      5.45370  -3.14869   0.00000  1        2
siesta:      8.18054  -7.87173   0.00000  1        3
siesta:      5.45370   6.29738   0.00000  1        4
siesta:      8.18054   1.57435   0.00000  1        5
siesta:     10.90739  -3.14869   0.00000  1        6
siesta:      8.18054  11.02042   0.00000  1        7
siesta:     10.90739   6.29738   0.00000  1        8
siesta:     13.63424   1.57435   0.00000  1        9
siesta:      2.72685  -1.57435   4.45293  1       10
siesta:      5.45370  -6.29738   4.45293  1       11
siesta:      8.18054 -11.02042   4.45293  1       12
siesta:      5.45370   3.14869   4.45293  1       13
siesta:      8.18054  -1.57435   4.45293  1       14
siesta:     10.90739  -6.29738   4.45293  1       15
siesta:      8.18054   7.87173   4.45293  1       16
siesta:     10.90739   3.14869   4.45293  1       17
siesta:     13.63424  -1.57435   4.45293  1       18
siesta:      2.72685   1.57435   8.90585  1       19
siesta:      5.45370  -3.14869   8.90585  1       20
siesta:      8.18054  -7.87173   8.90585  1       21
siesta:      5.45370   6.29738   8.90585  1       22
siesta:      8.18054   1.57435   8.90585  1       23
siesta:     10.90739  -3.14869   8.90585  1       24
siesta:      8.18054  11.02042   8.90585  1       25
siesta:     10.90739   6.29738   8.90585  1       26
siesta:     13.63424   1.57435   8.90585  1       27
siesta:      2.72685  -1.57435  13.35878  1       28
siesta:      5.45370  -6.29738  13.35878  1       29
siesta:      8.18054 -11.02042  13.35878  1       30
siesta:      5.45370   3.14869  13.35878  1       31
siesta:      8.18054  -1.57435  13.35878  1       32
siesta:     10.90739  -6.29738  13.35878  1       33
siesta:      8.18054   7.87173  13.35878  1       34
siesta:     10.90739   3.14869  13.35878  1       35
siesta:     13.63424  -1.57435  13.35878  1       36
siesta:      8.18054   1.57435  17.48405  1       37
siesta:      8.18054   1.57435  22.42947  1       38
siesta:      8.18054   1.57435  27.37488  1       39
siesta:      2.72685  -1.57435  31.50016  1       40
siesta:      5.45370  -6.29738  31.50016  1       41
siesta:      8.18054 -11.02042  31.50016  1       42
siesta:      5.45370   3.14869  31.50016  1       43
siesta:      8.18054  -1.57435  31.50016  1       44
siesta:     10.90739  -6.29738  31.50016  1       45
siesta:      8.18054   7.87173  31.50016  1       46
siesta:     10.90739   3.14869  31.50016  1       47
siesta:     13.63424  -1.57435  31.50016  1       48
siesta:      0.00000   0.00000  35.95308  1       49
siesta:      2.72685  -4.72304  35.95308  1       50
siesta:      5.45370  -9.44607  35.95308  1       51
siesta:      2.72685   4.72304  35.95308  1       52
siesta:      5.45370   0.00000  35.95308  1       53
siesta:      8.18054  -4.72304  35.95308  1       54
siesta:      5.45370   9.44607  35.95308  1       55
siesta:      8.18054   4.72304  35.95308  1       56
siesta:     10.90739   0.00000  35.95308  1       57
siesta:      2.72685   1.57435  40.40600  1       58
siesta:      5.45370  -3.14869  40.40600  1       59
siesta:      8.18054  -7.87173  40.40600  1       60
siesta:      5.45370   6.29738  40.40600  1       61
siesta:      8.18054   1.57435  40.40600  1       62
siesta:     10.90739  -3.14869  40.40600  1       63
siesta:      8.18054  11.02042  40.40600  1       64
siesta:     10.90739   6.29738  40.40600  1       65
siesta:     13.63424   1.57435  40.40600  1       66
siesta:      2.72685  -1.57435  44.85893  1       67
siesta:      5.45370  -6.29738  44.85893  1       68
siesta:      8.18054 -11.02042  44.85893  1       69
siesta:      5.45370   3.14869  44.85893  1       70
siesta:      8.18054  -1.57435  44.85893  1       71
siesta:     10.90739  -6.29738  44.85893  1       72
siesta:      8.18054   7.87173  44.85893  1       73
siesta:     10.90739   3.14869  44.85893  1       74
siesta:     13.63424  -1.57435  44.85893  1       75

initatomlists: Number of atoms, orbitals, and projectors:     75    75   300

siesta: System type = bulk      
 Nodes, Orbitals           8          75
 blocksizedefault           8

* ProcessorY, Blocksize:    2   8


siesta: k-grid: Number of k-points =     4
siesta: k-grid: Cutoff             =     8.658 Ang
siesta: k-grid: Supercell and displacements
siesta: k-grid:    2   0   0      0.000
siesta: k-grid:    0   2   0      0.000
siesta: k-grid:    0   0   1      0.000
 Using EM.ParallelOverKNum =           1
siesta: overlap:  rmaxh   veclen  direction
siesta: overlap:  15.7141 16.3611   1
smeagol: The size of the cell is being expanded
smeagol:  along the perpendicular direction to
smeagol:  perform transport calculations
siesta: overlap:  rmaxh   veclen  direction
siesta: overlap:  15.7141 16.3611   2
smeagol: The size of the cell is being expanded
smeagol:  along the perpendicular direction to
smeagol:  perform transport calculations
siesta: overlap:  rmaxh   veclen  direction
siesta: overlap:  15.7141 49.3119   3
 label:           1 Au                             1 s      
 label:           2 Au                             2 s      
 label:           3 Au                             3 s      
 label:           4 Au                             4 s      
 label:           5 Au                             5 s      
 label:           6 Au                             6 s      
 label:           7 Au                             7 s      
 label:           8 Au                             8 s      
 label:           9 Au                             9 s      
 label:          10 Au                            10 s      
 label:          11 Au                            11 s      
 label:          12 Au                            12 s      
 label:          13 Au                            13 s      
 label:          14 Au                            14 s      
 label:          15 Au                            15 s      
 label:          16 Au                            16 s      
 label:          17 Au                            17 s      
 label:          18 Au                            18 s      
 label:          19 Au                            19 s      
 label:          20 Au                            20 s      
 label:          21 Au                            21 s      
 label:          22 Au                            22 s      
 label:          23 Au                            23 s      
 label:          24 Au                            24 s      
 label:          25 Au                            25 s      
 label:          26 Au                            26 s      
 label:          27 Au                            27 s      
 label:          28 Au                            28 s      
 label:          29 Au                            29 s      
 label:          30 Au                            30 s      
 label:          31 Au                            31 s      
 label:          32 Au                            32 s      
 label:          33 Au                            33 s      
 label:          34 Au                            34 s      
 label:          35 Au                            35 s      
 label:          36 Au                            36 s      
 label:          37 Au                            37 s      
 label:          38 Au                            38 s      
 label:          39 Au                            39 s      
 label:          40 Au                            40 s      
 label:          41 Au                            41 s      
 label:          42 Au                            42 s      
 label:          43 Au                            43 s      
 label:          44 Au                            44 s      
 label:          45 Au                            45 s      
 label:          46 Au                            46 s      
 label:          47 Au                            47 s      
 label:          48 Au                            48 s      
 label:          49 Au                            49 s      
 label:          50 Au                            50 s      
 label:          51 Au                            51 s      
 label:          52 Au                            52 s      
 label:          53 Au                            53 s      
 label:          54 Au                            54 s      
 label:          55 Au                            55 s      
 label:          56 Au                            56 s      
 label:          57 Au                            57 s      
 label:          58 Au                            58 s      
 label:          59 Au                            59 s      
 label:          60 Au                            60 s      
 label:          61 Au                            61 s      
 label:          62 Au                            62 s      
 label:          63 Au                            63 s      
 label:          64 Au                            64 s      
 label:          65 Au                            65 s      
 label:          66 Au                            66 s      
 label:          67 Au                            67 s      
 label:          68 Au                            68 s      
 label:          69 Au                            69 s      
 label:          70 Au                            70 s      
 label:          71 Au                            71 s      
 label:          72 Au                            72 s      
 label:          73 Au                            73 s      
 label:          74 Au                            74 s      
 label:          75 Au                            75 s      

superc: Internal auxiliary supercell:     3 x     3 x     1  =       9
superc: Number of atoms, orbitals, and projectors:    675   675  2700
 
* Maximum dynamic memory allocated =     1 MB

siesta:                 ==============================
SMEAGOL                 Bias step =    0, V =  0.000 Ry
                            Begin CG move =      0
                        ==============================

superc: Internal auxiliary supercell:     3 x     3 x     1  =       9
superc: Number of atoms, orbitals, and projectors:    675   675  2700

read_ldau The LDA+U method used is from Czyzky PRB 49 14211

InitMesh: MESH =    64 x    64 x   240 =      983040
InitMesh: Mesh cutoff (required, used) =   200.000   201.360 Ry
 
* Maximum dynamic memory allocated =    21 MB
siesta: reading saved Hamiltonian
siesta: saved Hamiltonian not found

siesta: Program's energy decomposition (eV):
siesta: Eions   =      7819.876033
siesta: Ena     =      6790.314025
siesta: Ekin    =       518.391859
siesta: Enl     =       512.188546
siesta: DEna    =        -0.000060
siesta: DUscf   =         0.000000
siesta: DUext   =         0.000000
siesta: Exc     =     -8947.718522
siesta: eta*DQ  =         0.000000
siesta: Emadel  =         0.000000
siesta: Eharris =     -9031.773271
siesta: Eso     =         0.000000
siesta: Etot    =     -8946.700185
siesta: FreeEng =     -8946.700185

siesta: iscf   Eharris(eV)      E_KS(eV)   FreeEng(eV)   dDmax  Ef(eV)
siesta:    1    -9031.7733    -8946.7002    -8946.7002  0.4704  0.0000
timer: Routine,Calls,Time,% = IterSCF        1      14.590  83.13
siesta:    2    -9032.1937    -8949.2525    -8949.2525  0.0191  0.0000
siesta:    3    -9042.9189    -9027.9977    -9027.9977  0.6298  0.0000
siesta:    4    -9053.5289    -9044.2810    -9044.2810  0.3882  0.0000
siesta:    5    -9047.1684    -9053.3602    -9053.3602  0.1692  0.0000
siesta:    6    -9047.1470    -9048.5756    -9048.5756  0.0658  0.0000
siesta:    7    -9041.0268    -9047.3187    -9047.3187  0.0370  0.0000
siesta:    8    -9046.7144    -9039.8846    -9039.8846  0.3246  0.0000
siesta:    9    -9047.1592    -9047.4534    -9047.4534  0.0110  0.0000
siesta:   10    -9047.4092    -9047.1768    -9047.1768  0.0030  0.0000
siesta:   11    -9047.2860    -9047.3954    -9047.3954  0.0063  0.0000
siesta:   12    -9047.1559    -9047.2916    -9047.2916  0.0027  0.0000
siesta:   13    -9047.1498    -9047.1618    -9047.1618  0.0011  0.0000
siesta:   14    -9047.1349    -9047.1505    -9047.1505  0.0013  0.0000
siesta:   15    -9047.1550    -9047.1355    -9047.1355  0.0008  0.0000
siesta:   16    -9047.1458    -9047.1540    -9047.1540  0.0003  0.0000
siesta:   17    -9047.1481    -9047.1460    -9047.1460  0.0004  0.0000
siesta:   18    -9047.1503    -9047.1480    -9047.1480  0.0003  0.0000
siesta:   19    -9047.1510    -9047.1502    -9047.1502  0.0002  0.0000
siesta:   20    -9047.1487    -9047.1509    -9047.1509  0.0001  0.0000
siesta:   21    -9047.1490    -9047.1488    -9047.1488  0.0000  0.0000
 Calculating transmission coefficient

siesta: E_KS(eV) =            -9047.1490

siesta: E_KS - E_eggbox =     -9047.1490

siesta: Atomic forces (eV/Ang):
----------------------------------------
 Tot    0.049120    0.002912    0.217443
----------------------------------------
 Max    5.923371
 Res    1.487537    sqrt( Sum f_i^2 / 3N )
----------------------------------------
 Max    5.923371    constrained
 
* Maximum dynamic memory allocated =    21 MB

siesta: Program's energy decomposition (eV):
siesta:-Eions   =   -7819.876033
siesta: Ena     =    6790.314025
siesta: Ekin    =     418.704632
siesta: Enl     =     472.710929
siesta: DEna    =      29.792661
siesta: DUscf   =       0.366746
siesta: DUext   =       0.000000
siesta: Exc     =   -8939.161914
siesta: eta*DQ  =       0.000000
siesta: Emadel  =       0.000000
siesta: Ekinion =       0.000000
siesta: Eharris =   -9047.148959
siesta: Eso     =       0.000000
siesta: Etot    =   -9047.148955
siesta: FreeEng =   -9047.148955

siesta: Final energy (eV):
siesta:       Kinetic =     418.704632
siesta:       Hartree =     981.663300
siesta:    Ext. field =       0.000000
siesta:   Exch.-corr. =   -8939.161914
siesta:  Ion-electron =   -2120.195546
siesta:       Ion-ion =     611.840573
siesta:       Ekinion =       0.000000
siesta:         Total =   -9047.148955

siesta: Atomic forces (eV/Ang):
siesta:    1    0.044071    0.037998    0.034775
siesta:    2    0.071455   -0.017946    0.034483
siesta:    3    0.001150    0.092522    0.026429
siesta:    4    0.002394   -0.017480    0.034832
siesta:    5    0.001089   -0.011578    0.040691
siesta:    6   -0.069275   -0.017993    0.034484
siesta:    7    0.001180   -0.027480    0.028997
siesta:    8   -0.000152   -0.017319    0.034791
siesta:    9   -0.041762    0.038134    0.034730
siesta:   10    0.055174   -0.059705    0.083402
siesta:   11   -0.007431    0.034305    0.165011
siesta:   12    0.001274    0.032918    0.156967
siesta:   13    0.047900    0.024364    0.080900
siesta:   14    0.001230   -0.019797    0.082788
siesta:   15    0.009885    0.034167    0.164998
siesta:   16    0.001268   -0.069880    0.089182
siesta:   17   -0.045437    0.024374    0.080906
siesta:   18   -0.052655   -0.059850    0.083353
siesta:   19    0.117592    0.029244   -0.409149
siesta:   20    0.067375    0.040066   -0.415357
siesta:   21    0.001282    0.083026   -0.529301
siesta:   22    0.056180   -0.052862   -0.416648
siesta:   23    0.001239   -0.000235   -0.642516
siesta:   24   -0.064894    0.040046   -0.415364
siesta:   25    0.001293   -0.056754   -0.559458
siesta:   26   -0.053661   -0.052699   -0.416688
siesta:   27   -0.115032    0.029395   -0.409200
siesta:   28   -0.068227   -0.098712   -5.923371
siesta:   29   -0.031782    0.036807   -5.817138
siesta:   30    0.001286   -0.012539   -5.820452
siesta:   31    1.215896   -0.643375   -2.984465
siesta:   32    0.001192    1.334002   -2.984573
siesta:   33    0.034191    0.036646   -5.817180
siesta:   34    0.001249    0.038544   -5.915986
siesta:   35   -1.213586   -0.643391   -2.984475
siesta:   36    0.070724   -0.098854   -5.923366
siesta:   37    0.000103    0.008811   -2.943422
siesta:   38    0.000193    0.019151   -0.015690
siesta:   39    0.000420    0.016399    2.921640
siesta:   40   -0.062692   -0.120603    5.903467
siesta:   41   -0.051358    0.059480    5.779710
siesta:   42    0.001337   -0.020878    5.788744
siesta:   43    1.275095   -0.683083    2.957650
siesta:   44    0.002126    1.398632    2.951645
siesta:   45    0.054132    0.060711    5.779042
siesta:   46    0.001027    0.063736    5.896661
siesta:   47   -1.273629   -0.682372    2.957818
siesta:   48    0.065448   -0.119917    5.903660
siesta:   49    0.038398   -0.096154    0.530502
siesta:   50   -0.082842   -0.009500    0.526535
siesta:   51    0.018904    0.040154    0.488150
siesta:   52   -0.053535    0.088986    0.488705
siesta:   53    0.160154    0.071376    0.325433
siesta:   54    0.000731   -0.076828    0.485281
siesta:   55    0.048101    0.039311    0.527095
siesta:   56    0.000664   -0.127778    0.322808
siesta:   57   -0.158699    0.071326    0.325451
siesta:   58    0.044344    0.060370   -0.108721
siesta:   59    0.058118   -0.038726   -0.103368
siesta:   60    0.000880    0.081827   -0.087570
siesta:   61   -0.007860   -0.006276   -0.101478
siesta:   62    0.001993   -0.001636   -0.030655
siesta:   63   -0.056758   -0.039291   -0.103328
siesta:   64    0.001292   -0.056056   -0.162071
siesta:   65    0.010529   -0.007329   -0.100821
siesta:   66   -0.041810    0.059959   -0.109002
siesta:   67    0.069384   -0.051407    0.041758
siesta:   68    0.012254    0.023047    0.035941
siesta:   69    0.001234    0.055640    0.043679
siesta:   70    0.064522    0.014481    0.027808
siesta:   71    0.001134   -0.000612    0.026298
siesta:   72   -0.009947    0.022888    0.035846
siesta:   73    0.001223   -0.086036    0.035700
siesta:   74   -0.062199    0.014539    0.027776
siesta:   75   -0.066967   -0.051540    0.041733
siesta: ----------------------------------------
siesta:  Tot    0.049120    0.002912    0.217443

siesta: Stress tensor (static) (eV/Ang**3):
siesta:     0.592551    0.000001    0.000015
siesta:     0.000001    0.594730   -0.000007
siesta:     0.000015   -0.000007    0.577677

siesta: Cell volume =       1693.984929 Ang**3

siesta: Pressure (static):
siesta:                Solid            Molecule  Units
siesta:          -0.00640755         -0.00739399  Ry/Bohr**3
siesta:          -0.58831909         -0.67889104  eV/Ang**3
siesta:        -942.60128196      -1087.71512453  kBar

siesta: Total spin polarization (Qup-Qdown) =    0.000000
siesta: Spin vector =    0.000000    0.000000    0.000000
siesta: No SpinPolK block detected...

siesta:                 ==============================
SMEAGOL                 Bias step =    1, V =  0.015 Ry
                            Begin CG move =      0
                        ==============================

superc: Internal auxiliary supercell:     3 x     3 x     1  =       9
superc: Number of atoms, orbitals, and projectors:    675   675  2700

read_ldau The LDA+U method used is from Czyzky PRB 49 14211
 
* Maximum dynamic memory allocated =    22 MB
siesta: reading saved Hamiltonian

iodm: Reading Density Matrix from files

Au_Au.HM                         
siesta: found saved Hamiltonian

siesta: Program's energy decomposition (eV):
siesta: Eions   =      7819.876033
siesta: Ena     =      6790.314025
siesta: Ekin    =       418.704632
siesta: Enl     =       472.710929
siesta: DEna    =        29.792661
siesta: DUscf   =         0.366746
siesta: DUext   =         0.000000
siesta: Exc     =     -8939.161914
siesta: eta*DQ  =         0.000000
siesta: Emadel  =         0.000000
siesta: Eharris =     -9046.864201
siesta: Eso     =         0.000000
siesta: Etot    =     -9047.148955
siesta: FreeEng =     -9047.148955

siesta: iscf   Eharris(eV)      E_KS(eV)   FreeEng(eV)   dDmax  Ef(eV)
siesta:    1    -9046.8642    -9047.1490    -9047.1490  0.0080  0.0000
siesta:    2    -9047.3071    -9043.9312    -9043.9312  0.4204  0.0000
siesta:    3    -9046.8877    -9049.0825    -9049.0825  0.2540  0.0000
siesta:    4    -9047.1302    -9047.7853    -9047.7853  0.0175  0.0000
siesta:    5    -9046.9926    -9047.1708    -9047.1708  0.0071  0.0000
siesta:    6    -9047.0932    -9047.0024    -9047.0024  0.0054  0.0000
siesta:    7    -9047.1116    -9047.0874    -9047.0874  0.0051  0.0000
siesta:    8    -9047.1047    -9047.1103    -9047.1103  0.0021  0.0000
siesta:    9    -9047.1140    -9047.1051    -9047.1051  0.0018  0.0000
siesta:   10    -9047.1294    -9047.1135    -9047.1135  0.0015  0.0000
siesta:   11    -9047.1344    -9047.1286    -9047.1286  0.0009  0.0000
siesta:   12    -9047.1358    -9047.1341    -9047.1341  0.0007  0.0000
siesta:   13    -9047.1355    -9047.1357    -9047.1357  0.0006  0.0000
siesta:   14    -9047.1327    -9047.1355    -9047.1355  0.0005  0.0000
siesta:   15    -9047.1318    -9047.1329    -9047.1329  0.0001  0.0000
 Calculating transmission coefficient

siesta: E_KS(eV) =            -9047.1319

siesta: Atomic forces (eV/Ang):
----------------------------------------
 Tot    0.049126    0.002924    0.246363
----------------------------------------
 Max    5.916220
 Res    1.487455    sqrt( Sum f_i^2 / 3N )
----------------------------------------
 Max    5.916220    constrained
 
* Maximum dynamic memory allocated =    22 MB

siesta: Program's energy decomposition (eV):
siesta:-Eions   =   -7819.876033
siesta: Ena     =    6790.314025
siesta: Ekin    =     418.712517
siesta: Enl     =     472.712899
siesta: DEna    =      29.793898
siesta: DUscf   =       0.367309
siesta: DUext   =       0.000000
siesta: Exc     =   -8939.156499
siesta: eta*DQ  =       0.000000
siesta: Emadel  =       0.000000
siesta: Ekinion =       0.000000
siesta: Eharris =   -9047.131823
siesta: Eso     =       0.000000
siesta: Etot    =   -9047.131884
siesta: FreeEng =   -9047.131884

siesta: Final energy (eV):
siesta:       Kinetic =     418.712517
siesta:       Hartree =     981.658241
siesta:    Ext. field =       0.000000
siesta:   Exch.-corr. =   -8939.156499
siesta:  Ion-electron =   -2120.186717
siesta:       Ion-ion =     611.840573
siesta:       Ekinion =       0.000000
siesta:         Total =   -9047.131884

siesta: Atomic forces (eV/Ang):
siesta:    1    0.044055    0.037992    0.014839
siesta:    2    0.071443   -0.017960    0.014531
siesta:    3    0.001150    0.092524    0.007522
siesta:    4    0.002390   -0.017461    0.014901
siesta:    5    0.001089   -0.011580    0.022072
siesta:    6   -0.069263   -0.018007    0.014533
siesta:    7    0.001180   -0.027479    0.010472
siesta:    8   -0.000147   -0.017300    0.014860
siesta:    9   -0.041746    0.038129    0.014795
siesta:   10    0.054128   -0.060305    0.082945
siesta:   11   -0.006303    0.033731    0.168609
siesta:   12    0.001275    0.034171    0.160421
siesta:   13    0.045558    0.025651    0.092733
siesta:   14    0.001231   -0.022506    0.094539
siesta:   15    0.008755    0.033591    0.168601
siesta:   16    0.001271   -0.068583    0.088991
siesta:   17   -0.043092    0.025663    0.092737
siesta:   18   -0.051606   -0.060448    0.082894
siesta:   19    0.117254    0.032628   -0.405332
siesta:   20    0.070230    0.037944   -0.411598
siesta:   21    0.001287    0.083142   -0.514574
siesta:   22    0.053008   -0.054168   -0.412802
siesta:   23    0.001234   -0.000285   -0.634238
siesta:   24   -0.067757    0.037922   -0.411603
siesta:   25    0.001291   -0.056813   -0.548764
siesta:   26   -0.050491   -0.054004   -0.412842
siesta:   27   -0.114697    0.032781   -0.405383
siesta:   28   -0.068309   -0.098802   -5.910393
siesta:   29   -0.027202    0.034192   -5.811323
siesta:   30    0.001288   -0.007211   -5.814560
siesta:   31    1.174901   -0.619680   -2.991241
siesta:   32    0.001193    1.286572   -2.991290
siesta:   33    0.029611    0.034029   -5.811366
siesta:   34    0.001250    0.038670   -5.903131
siesta:   35   -1.172588   -0.619694   -2.991249
siesta:   36    0.070808   -0.098944   -5.910386
siesta:   37    0.000103    0.008805   -3.011033
siesta:   38    0.000193    0.019151    0.053644
siesta:   39    0.000420    0.016374    2.855593
siesta:   40   -0.063171   -0.120837    5.916028
siesta:   41   -0.055542    0.061903    5.785481
siesta:   42    0.001341   -0.025752    5.794534
siesta:   43    1.308504   -0.702390    2.950715
siesta:   44    0.002124    1.437250    2.944668
siesta:   45    0.058317    0.063133    5.784812
siesta:   46    0.001028    0.064253    5.909219
siesta:   47   -1.307041   -0.701678    2.950881
siesta:   48    0.065928   -0.120155    5.916220
siesta:   49    0.038395   -0.099392    0.532938
siesta:   50   -0.085668   -0.007857    0.528964
siesta:   51    0.024015    0.043100    0.496674
siesta:   52   -0.058640    0.091928    0.497230
siesta:   53    0.159070    0.070742    0.333378
siesta:   54    0.000734   -0.082713    0.493813
siesta:   55    0.050930    0.040948    0.529526
siesta:   56    0.000661   -0.126547    0.330753
siesta:   57   -0.157617    0.070691    0.333397
siesta:   58    0.041094    0.061611   -0.104062
siesta:   59    0.057570   -0.042160   -0.098703
siesta:   60    0.000880    0.081847   -0.078693
siesta:   61   -0.010562   -0.004083   -0.096816
siesta:   62    0.001993   -0.001628   -0.017281
siesta:   63   -0.056210   -0.042725   -0.098664
siesta:   64    0.001292   -0.056053   -0.154039
siesta:   65    0.013230   -0.005137   -0.096161
siesta:   66   -0.038558    0.061199   -0.104344
siesta:   67    0.069416   -0.051385    0.040167
siesta:   68    0.011860    0.023272    0.033866
siesta:   69    0.001234    0.055183    0.041608
siesta:   70    0.064495    0.014490    0.025551
siesta:   71    0.001134   -0.000638    0.024040
siesta:   72   -0.009554    0.023113    0.033770
siesta:   73    0.001222   -0.086070    0.034107
siesta:   74   -0.062173    0.014548    0.025518
siesta:   75   -0.066998   -0.051518    0.040141
siesta: ----------------------------------------
siesta:  Tot    0.049126    0.002924    0.246363

siesta: Stress tensor (static) (eV/Ang**3):
siesta:     0.592672    0.000001    0.000015
siesta:     0.000001    0.594851   -0.000007
siesta:     0.000015   -0.000007    0.577805

siesta: Cell volume =       1693.984929 Ang**3

siesta: Pressure (static):
siesta:                Solid            Molecule  Units
siesta:          -0.00640889         -0.00739996  Ry/Bohr**3
siesta:          -0.58844249         -0.67943894  eV/Ang**3
siesta:        -942.79899246      -1088.59296828  kBar

siesta: Total spin polarization (Qup-Qdown) =    0.000000
siesta: Spin vector =    0.000000    0.000000    0.000000
siesta: No SpinPolK block detected...

siesta:                 ==============================
SMEAGOL                 Bias step =    2, V =  0.029 Ry
                            Begin CG move =      0
                        ==============================

superc: Internal auxiliary supercell:     3 x     3 x     1  =       9
superc: Number of atoms, orbitals, and projectors:    675   675  2700

read_ldau The LDA+U method used is from Czyzky PRB 49 14211
 
* Maximum dynamic memory allocated =    22 MB
siesta: reading saved Hamiltonian

iodm: Reading Density Matrix from files

Au_Au.HM                         
siesta: found saved Hamiltonian

siesta: Program's energy decomposition (eV):
siesta: Eions   =      7819.876033
siesta: Ena     =      6790.314025
siesta: Ekin    =       418.712517
siesta: Enl     =       472.712899
siesta: DEna    =        29.793898
siesta: DUscf   =         0.367309
siesta: DUext   =         0.000000
siesta: Exc     =     -8939.156499
siesta: eta*DQ  =         0.000000
siesta: Emadel  =         0.000000
siesta: Eharris =     -9046.670120
siesta: Eso     =         0.000000
siesta: Etot    =     -9047.131884
siesta: FreeEng =     -9047.131884

siesta: iscf   Eharris(eV)      E_KS(eV)   FreeEng(eV)   dDmax  Ef(eV)
siesta:    1    -9046.6701    -9047.1319    -9047.1319  0.0081  0.0000
siesta:    2    -9047.3454    -9043.8142    -9043.8142  0.4193  0.0000
siesta:    3    -9046.8225    -9049.0387    -9049.0387  0.2505  0.0000
siesta:    4    -9047.0857    -9047.7281    -9047.7281  0.0170  0.0000
siesta:    5    -9046.9483    -9047.1260    -9047.1260  0.0071  0.0000
siesta:    6    -9047.0515    -9046.9582    -9046.9582  0.0055  0.0000
siesta:    7    -9047.0818    -9047.0451    -9047.0451  0.0046  0.0000
siesta:    8    -9047.0683    -9047.0799    -9047.0799  0.0014  0.0000
siesta:    9    -9047.0770    -9047.0690    -9047.0690  0.0013  0.0000
siesta:   10    -9047.0887    -9047.0766    -9047.0766  0.0011  0.0000
siesta:   11    -9047.0905    -9047.0881    -9047.0881  0.0008  0.0000
siesta:   12    -9047.0889    -9047.0903    -9047.0903  0.0006  0.0000
siesta:   13    -9047.0881    -9047.0889    -9047.0889  0.0003  0.0000
siesta:   14    -9047.0868    -9047.0882    -9047.0882  0.0003  0.0000
siesta:   15    -9047.0858    -9047.0868    -9047.0868  0.0001  0.0000
 Calculating transmission coefficient

siesta: E_KS(eV) =            -9047.0859

siesta: Atomic forces (eV/Ang):
----------------------------------------
 Tot    0.049115    0.002920    0.275278
----------------------------------------
 Max    5.928134
 Res    1.487434    sqrt( Sum f_i^2 / 3N )
----------------------------------------
 Max    5.928134    constrained
 
* Maximum dynamic memory allocated =    22 MB

siesta: Program's energy decomposition (eV):
siesta:-Eions   =   -7819.876033
siesta: Ena     =    6790.314025
siesta: Ekin    =     418.743011
siesta: Enl     =     472.720109
siesta: DEna    =      29.792390
siesta: DUscf   =       0.368614
siesta: DUext   =       0.000000
siesta: Exc     =   -8939.147972
siesta: eta*DQ  =       0.000000
siesta: Emadel  =       0.000000
siesta: Ekinion =       0.000000
siesta: Eharris =   -9047.085791
siesta: Eso     =       0.000000
siesta: Etot    =   -9047.085855
siesta: FreeEng =   -9047.085855

siesta: Final energy (eV):
siesta:       Kinetic =     418.743011
siesta:       Hartree =     981.654167
siesta:    Ext. field =       0.000000
siesta:   Exch.-corr. =   -8939.147972
siesta:  Ion-electron =   -2120.175634
siesta:       Ion-ion =     611.840573
siesta:       Ekinion =       0.000000
siesta:         Total =   -9047.085855

siesta: Atomic forces (eV/Ang):
siesta:    1    0.044034    0.037967   -0.005320
siesta:    2    0.071409   -0.017962   -0.005617
siesta:    3    0.001150    0.092522   -0.011196
siesta:    4    0.002403   -0.017430   -0.005268
siesta:    5    0.001089   -0.011577    0.003940
siesta:    6   -0.069228   -0.018008   -0.005615
siesta:    7    0.001179   -0.027478   -0.007976
siesta:    8   -0.000160   -0.017270   -0.005309
siesta:    9   -0.041725    0.038104   -0.005364
siesta:   10    0.054248   -0.060267    0.083693
siesta:   11   -0.006149    0.033550    0.171170
siesta:   12    0.001275    0.034376    0.163123
siesta:   13    0.043373    0.026971    0.104081
siesta:   14    0.001231   -0.025047    0.105963
siesta:   15    0.008604    0.033413    0.171158
siesta:   16    0.001268   -0.068833    0.089480
siesta:   17   -0.040911    0.026981    0.104087
siesta:   18   -0.051728   -0.060412    0.083644
siesta:   19    0.117832    0.034640   -0.403201
siesta:   20    0.072166    0.037593   -0.409414
siesta:   21    0.001281    0.083098   -0.497288
siesta:   22    0.051637   -0.055716   -0.410702
siesta:   23    0.001238   -0.000213   -0.619940
siesta:   24   -0.069688    0.037572   -0.409422
siesta:   25    0.001292   -0.056752   -0.535595
siesta:   26   -0.049120   -0.055555   -0.410742
siesta:   27   -0.115275    0.034789   -0.403251
siesta:   28   -0.069628   -0.099553   -5.897460
siesta:   29   -0.022149    0.031240   -5.804456
siesta:   30    0.001286   -0.001415   -5.807780
siesta:   31    1.135694   -0.597042   -2.999929
siesta:   32    0.001193    1.241310   -3.000040
siesta:   33    0.024559    0.031079   -5.804498
siesta:   34    0.001248    0.040160   -5.890072
siesta:   35   -1.133383   -0.597059   -2.999940
siesta:   36    0.072124   -0.099693   -5.897455
siesta:   37    0.000103    0.008802   -3.080324
siesta:   38    0.000193    0.019150    0.125545
siesta:   39    0.000421    0.016385    2.787203
siesta:   40   -0.063505   -0.121137    5.927933
siesta:   41   -0.059604    0.064172    5.790859
siesta:   42    0.001333   -0.030092    5.799835
siesta:   43    1.341096   -0.721234    2.945070
siesta:   44    0.002116    1.474971    2.938987
siesta:   45    0.062377    0.065409    5.790182
siesta:   46    0.001025    0.064812    5.921145
siesta:   47   -1.339622   -0.720515    2.945231
siesta:   48    0.066264   -0.120459    5.928134
siesta:   49    0.038385   -0.101590    0.535041
siesta:   50   -0.087540   -0.006934    0.531060
siesta:   51    0.027526    0.045212    0.503852
siesta:   52   -0.062138    0.094025    0.504413
siesta:   53    0.158360    0.070350    0.340512
siesta:   54    0.000719   -0.086767    0.501066
siesta:   55    0.052817    0.041866    0.531621
siesta:   56    0.000652   -0.125666    0.337876
siesta:   57   -0.156900    0.070299    0.340533
siesta:   58    0.037418    0.063223   -0.098390
siesta:   59    0.057123   -0.046145   -0.092983
siesta:   60    0.000881    0.081810   -0.066111
siesta:   61   -0.013786   -0.001724   -0.091119
siesta:   62    0.001995   -0.001619   -0.003823
siesta:   63   -0.055767   -0.046713   -0.092943
siesta:   64    0.001294   -0.056080   -0.143495
siesta:   65    0.016452   -0.002781   -0.090461
siesta:   66   -0.034884    0.062814   -0.098676
siesta:   67    0.069448   -0.051363    0.038456
siesta:   68    0.011466    0.023499    0.031728
siesta:   69    0.001235    0.054726    0.039470
siesta:   70    0.064494    0.014486    0.023149
siesta:   71    0.001134   -0.000636    0.021638
siesta:   72   -0.009160    0.023340    0.031633
siesta:   73    0.001223   -0.086108    0.032398
siesta:   74   -0.062173    0.014545    0.023117
siesta:   75   -0.067030   -0.051497    0.038430
siesta: ----------------------------------------
siesta:  Tot    0.049115    0.002920    0.275278

siesta: Stress tensor (static) (eV/Ang**3):
siesta:     0.592780    0.000001    0.000015
siesta:     0.000001    0.594957   -0.000007
siesta:     0.000015   -0.000007    0.577889

siesta: Cell volume =       1693.984929 Ang**3

siesta: Pressure (static):
siesta:                Solid            Molecule  Units
siesta:          -0.00640997         -0.00740578  Ry/Bohr**3
siesta:          -0.58854179         -0.67997338  eV/Ang**3
siesta:        -942.95809671      -1089.44923979  kBar

siesta: Total spin polarization (Qup-Qdown) =    0.000000
siesta: Spin vector =    0.000000    0.000000    0.000000
siesta: No SpinPolK block detected...

siesta:                 ==============================
SMEAGOL                 Bias step =    3, V =  0.044 Ry
                            Begin CG move =      0
                        ==============================

superc: Internal auxiliary supercell:     3 x     3 x     1  =       9
superc: Number of atoms, orbitals, and projectors:    675   675  2700

read_ldau The LDA+U method used is from Czyzky PRB 49 14211
 
* Maximum dynamic memory allocated =    22 MB
siesta: reading saved Hamiltonian

iodm: Reading Density Matrix from files

Au_Au.HM                         
siesta: found saved Hamiltonian

siesta: Program's energy decomposition (eV):
siesta: Eions   =      7819.876033
siesta: Ena     =      6790.314025
siesta: Ekin    =       418.743011
siesta: Enl     =       472.720109
siesta: DEna    =        29.792390
siesta: DUscf   =         0.368614
siesta: DUext   =         0.000000
siesta: Exc     =     -8939.147972
siesta: eta*DQ  =         0.000000
siesta: Emadel  =         0.000000
siesta: Eharris =     -9046.460829
siesta: Eso     =         0.000000
siesta: Etot    =     -9047.085855
siesta: FreeEng =     -9047.085855

siesta: iscf   Eharris(eV)      E_KS(eV)   FreeEng(eV)   dDmax  Ef(eV)
siesta:    1    -9046.4608    -9047.0859    -9047.0859  0.0081  0.0000
siesta:    2    -9047.3502    -9043.6828    -9043.6828  0.4179  0.0000
siesta:    3    -9046.7197    -9048.9583    -9048.9583  0.2474  0.0000
siesta:    4    -9047.0089    -9047.6357    -9047.6357  0.0166  0.0000
siesta:    5    -9046.8612    -9047.0487    -9047.0487  0.0071  0.0000
siesta:    6    -9046.9762    -9046.8719    -9046.8719  0.0055  0.0000
siesta:    7    -9047.0221    -9046.9687    -9046.9687  0.0043  0.0000
siesta:    8    -9047.0002    -9047.0195    -9047.0195  0.0013  0.0000
siesta:    9    -9047.0065    -9047.0013    -9047.0013  0.0013  0.0000
siesta:   10    -9047.0117    -9047.0062    -9047.0062  0.0011  0.0000
siesta:   11    -9047.0127    -9047.0114    -9047.0114  0.0004  0.0000
siesta:   12    -9047.0097    -9047.0126    -9047.0126  0.0003  0.0000
siesta:   13    -9047.0094    -9047.0098    -9047.0098  0.0001  0.0000
 Calculating transmission coefficient

siesta: E_KS(eV) =            -9047.0094

siesta: Atomic forces (eV/Ang):
----------------------------------------
 Tot    0.049118    0.002921    0.304179
----------------------------------------
 Max    5.939041
 Res    1.487358    sqrt( Sum f_i^2 / 3N )
----------------------------------------
 Max    5.939041    constrained
 
* Maximum dynamic memory allocated =    22 MB

siesta: Program's energy decomposition (eV):
siesta:-Eions   =   -7819.876033
siesta: Ena     =    6790.314025
siesta: Ekin    =     418.793771
siesta: Enl     =     472.729348
siesta: DEna    =      29.791295
siesta: DUscf   =       0.370647
siesta: DUext   =       0.000000
siesta: Exc     =   -8939.132445
siesta: eta*DQ  =       0.000000
siesta: Emadel  =       0.000000
siesta: Ekinion =       0.000000
siesta: Eharris =   -9047.009366
siesta: Eso     =       0.000000
siesta: Etot    =   -9047.009391
siesta: FreeEng =   -9047.009391

siesta: Final energy (eV):
siesta:       Kinetic =     418.793771
siesta:       Hartree =     981.655455
siesta:    Ext. field =       0.000000
siesta:   Exch.-corr. =   -8939.132445
siesta:  Ion-electron =   -2120.166746
siesta:       Ion-ion =     611.840573
siesta:       Ekinion =       0.000000
siesta:         Total =   -9047.009391

siesta: Atomic forces (eV/Ang):
siesta:    1    0.043980    0.037923   -0.025525
siesta:    2    0.071345   -0.017988   -0.025824
siesta:    3    0.001150    0.092521   -0.029982
siesta:    4    0.002413   -0.017363   -0.025476
siesta:    5    0.001089   -0.011578   -0.013582
siesta:    6   -0.069164   -0.018034   -0.025822
siesta:    7    0.001180   -0.027479   -0.026505
siesta:    8   -0.000171   -0.017203   -0.025517
siesta:    9   -0.041671    0.038060   -0.025570
siesta:   10    0.054482   -0.060106    0.082420
siesta:   11   -0.006956    0.034039    0.172808
siesta:   12    0.001274    0.033480    0.164755
siesta:   13    0.040831    0.028477    0.116023
siesta:   14    0.001230   -0.027965    0.117915
siesta:   15    0.009411    0.033901    0.172795
siesta:   16    0.001269   -0.069089    0.088200
siesta:   17   -0.038368    0.028487    0.116030
siesta:   18   -0.051961   -0.060251    0.082371
siesta:   19    0.117561    0.037029   -0.401461
siesta:   20    0.074141    0.036104   -0.407682
siesta:   21    0.001281    0.083067   -0.479497
siesta:   22    0.049388   -0.056732   -0.408971
siesta:   23    0.001236   -0.000248   -0.601025
siesta:   24   -0.071662    0.036086   -0.407690
siesta:   25    0.001290   -0.056773   -0.521648
siesta:   26   -0.046870   -0.056571   -0.409010
siesta:   27   -0.115004    0.037177   -0.401511
siesta:   28   -0.070946   -0.100312   -5.883665
siesta:   29   -0.017040    0.028300   -5.796122
siesta:   30    0.001286    0.004497   -5.799449
siesta:   31    1.097474   -0.574956   -3.011317
siesta:   32    0.001193    1.197160   -3.011433
siesta:   33    0.019450    0.028138   -5.796162
siesta:   34    0.001250    0.041690   -5.876258
siesta:   35   -1.095163   -0.574971   -3.011329
siesta:   36    0.073442   -0.100450   -5.883660
siesta:   37    0.000102    0.008799   -3.148659
siesta:   38    0.000193    0.019148    0.198213
siesta:   39    0.000421    0.016396    2.717939
siesta:   40   -0.064002   -0.121425    5.938837
siesta:   41   -0.063394    0.066329    5.795631
siesta:   42    0.001332   -0.034400    5.804598
siesta:   43    1.372889   -0.739609    2.940040
siesta:   44    0.002113    1.511727    2.933950
siesta:   45    0.066167    0.067567    5.794952
siesta:   46    0.001021    0.065441    5.932049
siesta:   47   -1.371414   -0.738890    2.940200
siesta:   48    0.066761   -0.120750    5.939041
siesta:   49    0.038379   -0.102912    0.536982
siesta:   50   -0.088688   -0.006290    0.532994
siesta:   51    0.029915    0.046604    0.510263
siesta:   52   -0.064519    0.095411    0.510825
siesta:   53    0.157902    0.070081    0.347707
siesta:   54    0.000716   -0.089503    0.507502
siesta:   55    0.053973    0.042505    0.533556
siesta:   56    0.000649   -0.125147    0.345094
siesta:   57   -0.156440    0.070030    0.347730
siesta:   58    0.033769    0.065102   -0.092060
siesta:   59    0.056927   -0.050243   -0.086643
siesta:   60    0.000880    0.081801   -0.050568
siesta:   61   -0.017232    0.000486   -0.084779
siesta:   62    0.001998   -0.001608    0.010460
siesta:   63   -0.055571   -0.050813   -0.086603
siesta:   64    0.001295   -0.056087   -0.131028
siesta:   65    0.019899   -0.000573   -0.084121
siesta:   66   -0.031234    0.064692   -0.092346
siesta:   67    0.069473   -0.051344    0.036653
siesta:   68    0.011081    0.023720    0.029565
siesta:   69    0.001234    0.054278    0.037309
siesta:   70    0.064497    0.014478    0.020707
siesta:   71    0.001134   -0.000629    0.019197
siesta:   72   -0.008775    0.023562    0.029470
siesta:   73    0.001222   -0.086136    0.030594
siesta:   74   -0.062176    0.014537    0.020676
siesta:   75   -0.067056   -0.051478    0.036626
siesta: ----------------------------------------
siesta:  Tot    0.049118    0.002921    0.304179

siesta: Stress tensor (static) (eV/Ang**3):
siesta:     0.592877    0.000001    0.000015
siesta:     0.000001    0.595055   -0.000007
siesta:     0.000015   -0.000007    0.577916

siesta: Cell volume =       1693.984929 Ang**3

siesta: Pressure (static):
siesta:                Solid            Molecule  Units
siesta:          -0.00641078         -0.00741155  Ry/Bohr**3
siesta:          -0.58861565         -0.68050328  eV/Ang**3
siesta:        -943.07643598      -1090.29823740  kBar

siesta: Total spin polarization (Qup-Qdown) =    0.000000
siesta: Spin vector =    0.000000    0.000000    0.000000
siesta: No SpinPolK block detected...

siesta:                 ==============================
SMEAGOL                 Bias step =    4, V =  0.059 Ry
                            Begin CG move =      0
                        ==============================

superc: Internal auxiliary supercell:     3 x     3 x     1  =       9
superc: Number of atoms, orbitals, and projectors:    675   675  2700

read_ldau The LDA+U method used is from Czyzky PRB 49 14211
 
* Maximum dynamic memory allocated =    22 MB
siesta: reading saved Hamiltonian

iodm: Reading Density Matrix from files

Au_Au.HM                         
siesta: found saved Hamiltonian

siesta: Program's energy decomposition (eV):
siesta: Eions   =      7819.876033
siesta: Ena     =      6790.314025
siesta: Ekin    =       418.793771
siesta: Enl     =       472.729348
siesta: DEna    =        29.791295
siesta: DUscf   =         0.370647
siesta: DUext   =         0.000000
siesta: Exc     =     -8939.132445
siesta: eta*DQ  =         0.000000
siesta: Emadel  =         0.000000
siesta: Eharris =     -9046.143694
siesta: Eso     =         0.000000
siesta: Etot    =     -9047.009391
siesta: FreeEng =     -9047.009391

siesta: iscf   Eharris(eV)      E_KS(eV)   FreeEng(eV)   dDmax  Ef(eV)
siesta:    1    -9046.1437    -9047.0094    -9047.0094  0.0081  0.0000
siesta:    2    -9047.3599    -9043.5121    -9043.5121  0.4126  0.0000
siesta:    3    -9046.6131    -9048.8563    -9048.8563  0.2392  0.0000
siesta:    4    -9046.8981    -9047.5040    -9047.5040  0.0156  0.0000
siesta:    5    -9046.7502    -9046.9367    -9046.9367  0.0071  0.0000
siesta:    6    -9046.8719    -9046.7615    -9046.7615  0.0062  0.0000
siesta:    7    -9046.9252    -9046.8633    -9046.8633  0.0043  0.0000
siesta:    8    -9046.8970    -9046.9221    -9046.9221  0.0014  0.0000
siesta:    9    -9046.9062    -9046.8985    -9046.8985  0.0014  0.0000
siesta:   10    -9046.9013    -9046.9057    -9046.9057  0.0002  0.0000
siesta:   11    -9046.9012    -9046.9015    -9046.9015  0.0001  0.0000
 Calculating transmission coefficient

siesta: E_KS(eV) =            -9046.9012

siesta: Atomic forces (eV/Ang):
----------------------------------------
 Tot    0.049125    0.002918    0.332957
----------------------------------------
 Max    5.948943
 Res    1.487210    sqrt( Sum f_i^2 / 3N )
----------------------------------------
 Max    5.948943    constrained
 
* Maximum dynamic memory allocated =    22 MB

siesta: Program's energy decomposition (eV):
siesta:-Eions   =   -7819.876033
siesta: Ena     =    6790.314025
siesta: Ekin    =     418.851160
siesta: Enl     =     472.733243
siesta: DEna    =      29.800749
siesta: DUscf   =       0.373077
siesta: DUext   =       0.000000
siesta: Exc     =   -8939.097442
siesta: eta*DQ  =       0.000000
siesta: Emadel  =       0.000000
siesta: Ekinion =       0.000000
siesta: Eharris =   -9046.901194
siesta: Eso     =       0.000000
siesta: Etot    =   -9046.901221
siesta: FreeEng =   -9046.901221

siesta: Final energy (eV):
siesta:       Kinetic =     418.851160
siesta:       Hartree =     981.640554
siesta:    Ext. field =       0.000000
siesta:   Exch.-corr. =   -8939.097442
siesta:  Ion-electron =   -2120.136066
siesta:       Ion-ion =     611.840573
siesta:       Ekinion =       0.000000
siesta:         Total =   -9046.901221

siesta: Atomic forces (eV/Ang):
siesta:    1    0.043904    0.037896   -0.045940
siesta:    2    0.071269   -0.018020   -0.046230
siesta:    3    0.001150    0.092540   -0.049127
siesta:    4    0.002410   -0.017253   -0.045884
siesta:    5    0.001088   -0.011563   -0.030625
siesta:    6   -0.069089   -0.018068   -0.046222
siesta:    7    0.001179   -0.027471   -0.045494
siesta:    8   -0.000167   -0.017092   -0.045929
siesta:    9   -0.041595    0.038033   -0.045984
siesta:   10    0.054799   -0.060548    0.079414
siesta:   11   -0.008798    0.034514    0.173996
siesta:   12    0.001268    0.030516    0.166502
siesta:   13    0.037403    0.029834    0.127776
siesta:   14    0.001223   -0.032447    0.129225
siesta:   15    0.011204    0.034355    0.174040
siesta:   16    0.001293   -0.070144    0.084859
siesta:   17   -0.034911    0.029870    0.127752
siesta:   18   -0.052273   -0.060667    0.079335
siesta:   19    0.115571    0.041171   -0.401026
siesta:   20    0.075675    0.033695   -0.407105
siesta:   21    0.001350    0.084398   -0.461173
siesta:   22    0.045627   -0.055572   -0.408393
siesta:   23    0.001195    0.000701   -0.571131
siesta:   24   -0.073258    0.033665   -0.407089
siesta:   25    0.001304   -0.056072   -0.507378
siesta:   26   -0.043088   -0.055394   -0.408461
siesta:   27   -0.113010    0.041389   -0.401081
siesta:   28   -0.072304   -0.101536   -5.868383
siesta:   29   -0.012076    0.025083   -5.786898
siesta:   30    0.001292    0.009770   -5.790484
siesta:   31    1.061107   -0.554211   -3.025659
siesta:   32    0.001188    1.154675   -3.025572
siesta:   33    0.014452    0.024894   -5.786962
siesta:   34    0.001246    0.042989   -5.860873
siesta:   35   -1.058773   -0.554205   -3.025634
siesta:   36    0.074809   -0.101683   -5.868356
siesta:   37    0.000105    0.008801   -3.213219
siesta:   38    0.000193    0.019147    0.269895
siesta:   39    0.000421    0.016410    2.648016
siesta:   40   -0.064835   -0.121747    5.948751
siesta:   41   -0.067046    0.068534    5.799696
siesta:   42    0.001342   -0.039065    5.808761
siesta:   43    1.404390   -0.757771    2.935353
siesta:   44    0.002122    1.548030    2.929293
siesta:   45    0.069815    0.069766    5.799025
siesta:   46    0.001027    0.066160    5.941927
siesta:   47   -1.402927   -0.757057    2.935521
siesta:   48    0.067590   -0.121074    5.948943
siesta:   49    0.038385   -0.103740    0.538315
siesta:   50   -0.089419   -0.005660    0.534368
siesta:   51    0.031602    0.047479    0.516000
siesta:   52   -0.066212    0.096295    0.516560
siesta:   53    0.157374    0.069751    0.355481
siesta:   54    0.000735   -0.091439    0.513137
siesta:   55    0.054696    0.043127    0.534934
siesta:   56    0.000661   -0.124600    0.352867
siesta:   57   -0.155926    0.069706    0.355502
siesta:   58    0.030383    0.067265   -0.084864
siesta:   59    0.057113   -0.054262   -0.079499
siesta:   60    0.000879    0.081829   -0.032094
siesta:   61   -0.020813    0.002360   -0.077612
siesta:   62    0.001995   -0.001614    0.025697
siesta:   63   -0.055756   -0.054827   -0.079463
siesta:   64    0.001292   -0.056064   -0.116718
siesta:   65    0.023482    0.001304   -0.076957
siesta:   66   -0.027845    0.066852   -0.085144
siesta:   67    0.069488   -0.051333    0.034714
siesta:   68    0.010699    0.023937    0.027313
siesta:   69    0.001234    0.053834    0.035058
siesta:   70    0.064499    0.014469    0.018193
siesta:   71    0.001134   -0.000620    0.016685
siesta:   72   -0.008393    0.023778    0.027216
siesta:   73    0.001222   -0.086148    0.028650
siesta:   74   -0.062177    0.014526    0.018161
siesta:   75   -0.067071   -0.051467    0.034688
siesta: ----------------------------------------
siesta:  Tot    0.049125    0.002918    0.332957

siesta: Stress tensor (static) (eV/Ang**3):
siesta:     0.593000    0.000001    0.000015
siesta:     0.000001    0.595147   -0.000010
siesta:     0.000015   -0.000010    0.577874

siesta: Cell volume =       1693.984929 Ang**3

siesta: Pressure (static):
siesta:                Solid            Molecule  Units
siesta:          -0.00641141         -0.00741748  Ry/Bohr**3
siesta:          -0.58867367         -0.68104779  eV/Ang**3
siesta:        -943.16939442      -1091.17065270  kBar

siesta: Total spin polarization (Qup-Qdown) =    0.000000
siesta: Spin vector =    0.000000    0.000000    0.000000
siesta: No SpinPolK block detected...

siesta:                 ==============================
SMEAGOL                 Bias step =    5, V =  0.073 Ry
                            Begin CG move =      0
                        ==============================

superc: Internal auxiliary supercell:     3 x     3 x     1  =       9
superc: Number of atoms, orbitals, and projectors:    675   675  2700

read_ldau The LDA+U method used is from Czyzky PRB 49 14211
 
* Maximum dynamic memory allocated =    22 MB
siesta: reading saved Hamiltonian

iodm: Reading Density Matrix from files

Au_Au.HM                         
siesta: found saved Hamiltonian

siesta: Program's energy decomposition (eV):
siesta: Eions   =      7819.876033
siesta: Ena     =      6790.314025
siesta: Ekin    =       418.851160
siesta: Enl     =       472.733243
siesta: DEna    =        29.800749
siesta: DUscf   =         0.373077
siesta: DUext   =         0.000000
siesta: Exc     =     -8939.097442
siesta: eta*DQ  =         0.000000
siesta: Emadel  =         0.000000
siesta: Eharris =     -9045.874904
siesta: Eso     =         0.000000
siesta: Etot    =     -9046.901221
siesta: FreeEng =     -9046.901221

siesta: iscf   Eharris(eV)      E_KS(eV)   FreeEng(eV)   dDmax  Ef(eV)
siesta:    1    -9045.8749    -9046.9012    -9046.9012  0.0081  0.0000
siesta:    2    -9047.3279    -9043.2942    -9043.2942  0.4123  0.0000
siesta:    3    -9046.4754    -9048.7699    -9048.7699  0.2355  0.0000
siesta:    4    -9046.7405    -9047.3682    -9047.3682  0.0154  0.0000
siesta:    5    -9046.5997    -9046.7806    -9046.7806  0.0071  0.0000
siesta:    6    -9046.7181    -9046.6117    -9046.6117  0.0066  0.0000
siesta:    7    -9046.7824    -9046.7081    -9046.7081  0.0033  0.0000
siesta:    8    -9046.7558    -9046.7789    -9046.7789  0.0022  0.0000
siesta:    9    -9046.7413    -9046.7575    -9046.7575  0.0027  0.0000
siesta:   10    -9046.7287    -9046.7424    -9046.7424  0.0019  0.0000
siesta:   11    -9046.7293    -9046.7294    -9046.7294  0.0007  0.0000
siesta:   12    -9046.7286    -9046.7293    -9046.7293  0.0007  0.0000
siesta:   13    -9046.7291    -9046.7286    -9046.7286  0.0004  0.0000
siesta:   14    -9046.7335    -9046.7291    -9046.7291  0.0003  0.0000
siesta:   15    -9046.7329    -9046.7333    -9046.7333  0.0001  0.0000
 Calculating transmission coefficient

siesta: E_KS(eV) =            -9046.7330

siesta: Atomic forces (eV/Ang):
----------------------------------------
 Tot    0.049124    0.002935    0.361779
----------------------------------------
 Max    5.955785
 Res    1.487014    sqrt( Sum f_i^2 / 3N )
----------------------------------------
 Max    5.955785    constrained
 
* Maximum dynamic memory allocated =    22 MB

siesta: Program's energy decomposition (eV):
siesta:-Eions   =   -7819.876033
siesta: Ena     =    6790.314025
siesta: Ekin    =     418.991047
siesta: Enl     =     472.771439
siesta: DEna    =      29.777294
siesta: DUscf   =       0.376565
siesta: DUext   =       0.000000
siesta: Exc     =   -8939.087316
siesta: eta*DQ  =       0.000000
siesta: Emadel  =       0.000000
siesta: Ekinion =       0.000000
siesta: Eharris =   -9046.732949
siesta: Eso     =       0.000000
siesta: Etot    =   -9046.732979
siesta: FreeEng =   -9046.732979

siesta: Final energy (eV):
siesta:       Kinetic =     418.991047
siesta:       Hartree =     981.635342
siesta:    Ext. field =       0.000000
siesta:   Exch.-corr. =   -8939.087316
siesta:  Ion-electron =   -2120.112626
siesta:       Ion-ion =     611.840573
siesta:       Ekinion =       0.000000
siesta:         Total =   -9046.732979

siesta: Atomic forces (eV/Ang):
siesta:    1    0.043856    0.037862   -0.065838
siesta:    2    0.071230   -0.018064   -0.066145
siesta:    3    0.001150    0.092522   -0.068361
siesta:    4    0.002405   -0.017225   -0.065793
siesta:    5    0.001089   -0.011578   -0.048221
siesta:    6   -0.069050   -0.018111   -0.066144
siesta:    7    0.001180   -0.027479   -0.064598
siesta:    8   -0.000162   -0.017065   -0.065834
siesta:    9   -0.041548    0.037998   -0.065883
siesta:   10    0.056694   -0.058851    0.078575
siesta:   11   -0.010902    0.036337    0.177455
siesta:   12    0.001275    0.028911    0.169376
siesta:   13    0.034374    0.032196    0.136655
siesta:   14    0.001231   -0.035412    0.138509
siesta:   15    0.013360    0.036203    0.177438
siesta:   16    0.001266   -0.071611    0.084394
siesta:   17   -0.031911    0.032206    0.136667
siesta:   18   -0.054178   -0.058997    0.078518
siesta:   19    0.108253    0.042823   -0.402393
siesta:   20    0.074516    0.025102   -0.408626
siesta:   21    0.001275    0.083117   -0.446616
siesta:   22    0.039693   -0.051549   -0.409884
siesta:   23    0.001240   -0.000251   -0.528233
siesta:   24   -0.072043    0.025082   -0.408637
siesta:   25    0.001299   -0.056771   -0.497646
siesta:   26   -0.037174   -0.051389   -0.409919
siesta:   27   -0.105703    0.042980   -0.402438
siesta:   28   -0.073835   -0.102013   -5.852495
siesta:   29   -0.008444    0.023344   -5.777936
siesta:   30    0.001289    0.014442   -5.781243
siesta:   31    1.030290   -0.536142   -3.043144
siesta:   32    0.001195    1.119518   -3.043240
siesta:   33    0.010858    0.023186   -5.777975
siesta:   34    0.001251    0.045034   -5.845113
siesta:   35   -1.027983   -0.536158   -3.043161
siesta:   36    0.076328   -0.102153   -5.852488
siesta:   37    0.000102    0.008800   -3.277611
siesta:   38    0.000193    0.019145    0.347676
siesta:   39    0.000420    0.016425    2.568324
siesta:   40   -0.064875   -0.121839    5.955587
siesta:   41   -0.070904    0.070707    5.802108
siesta:   42    0.001336   -0.043306    5.811141
siesta:   43    1.436173   -0.776144    2.932369
siesta:   44    0.002120    1.584801    2.926303
siesta:   45    0.073672    0.071939    5.801433
siesta:   46    0.001025    0.066331    5.948790
siesta:   47   -1.434703   -0.775428    2.932535
siesta:   48    0.067630   -0.121166    5.955785
siesta:   49    0.038376   -0.103785    0.538753
siesta:   50   -0.089460   -0.005734    0.534784
siesta:   51    0.032335    0.047945    0.521435
siesta:   52   -0.066934    0.096750    0.521996
siesta:   53    0.156114    0.069018    0.365439
siesta:   54    0.000727   -0.092261    0.518626
siesta:   55    0.054747    0.043047    0.535352
siesta:   56    0.000654   -0.123084    0.362828
siesta:   57   -0.154658    0.068971    0.365462
siesta:   58    0.027761    0.069734   -0.076063
siesta:   59    0.057941   -0.057769   -0.070660
siesta:   60    0.000879    0.081813   -0.008871
siesta:   61   -0.024263    0.003382   -0.068796
siesta:   62    0.001997   -0.001604    0.042485
siesta:   63   -0.056586   -0.058339   -0.070623
siesta:   64    0.001295   -0.056078   -0.098478
siesta:   65    0.026932    0.002323   -0.068139
siesta:   66   -0.025223    0.069323   -0.076345
siesta:   67    0.069477   -0.051335    0.032486
siesta:   68    0.010312    0.024159    0.024790
siesta:   69    0.001235    0.053385    0.032537
siesta:   70    0.064495    0.014465    0.015574
siesta:   71    0.001134   -0.000620    0.014065
siesta:   72   -0.008007    0.024000    0.024694
siesta:   73    0.001222   -0.086134    0.026421
siesta:   74   -0.062173    0.014523    0.015543
siesta:   75   -0.067059   -0.051470    0.032460
siesta: ----------------------------------------
siesta:  Tot    0.049124    0.002935    0.361779

siesta: Stress tensor (static) (eV/Ang**3):
siesta:     0.593015    0.000001    0.000015
siesta:     0.000001    0.595193   -0.000007
siesta:     0.000015   -0.000007    0.577764

siesta: Cell volume =       1693.984929 Ang**3

siesta: Pressure (static):
siesta:                Solid            Molecule  Units
siesta:          -0.00641123         -0.00742288  Ry/Bohr**3
siesta:          -0.58865715         -0.68154352  eV/Ang**3
siesta:        -943.14292194      -1091.96490780  kBar

siesta: Total spin polarization (Qup-Qdown) =    0.000000
siesta: Spin vector =    0.000000    0.000000    0.000000
siesta: No SpinPolK block detected...

siesta:                 ==============================
SMEAGOL                 Bias step =    6, V =  0.088 Ry
                            Begin CG move =      0
                        ==============================

superc: Internal auxiliary supercell:     3 x     3 x     1  =       9
superc: Number of atoms, orbitals, and projectors:    675   675  2700

read_ldau The LDA+U method used is from Czyzky PRB 49 14211
 
* Maximum dynamic memory allocated =    22 MB
siesta: reading saved Hamiltonian

iodm: Reading Density Matrix from files

Au_Au.HM                         
siesta: found saved Hamiltonian

siesta: Program's energy decomposition (eV):
siesta: Eions   =      7819.876033
siesta: Ena     =      6790.314025
siesta: Ekin    =       418.991047
siesta: Enl     =       472.771439
siesta: DEna    =        29.777294
siesta: DUscf   =         0.376565
siesta: DUext   =         0.000000
siesta: Exc     =     -8939.087316
siesta: eta*DQ  =         0.000000
siesta: Emadel  =         0.000000
siesta: Eharris =     -9045.670317
siesta: Eso     =         0.000000
siesta: Etot    =     -9046.732979
siesta: FreeEng =     -9046.732979

siesta: iscf   Eharris(eV)      E_KS(eV)   FreeEng(eV)   dDmax  Ef(eV)
siesta:    1    -9045.6703    -9046.7330    -9046.7330  0.0080  0.0000
siesta:    2    -9047.3304    -9043.1693    -9043.1693  0.4102  0.0000
siesta:    3    -9046.3661    -9048.6876    -9048.6876  0.2322  0.0000
siesta:    4    -9046.6389    -9047.2659    -9047.2659  0.0151  0.0000
siesta:    5    -9046.4909    -9046.6790    -9046.6790  0.0071  0.0000
siesta:    6    -9046.6208    -9046.5043    -9046.5043  0.0073  0.0000
siesta:    7    -9046.6741    -9046.6088    -9046.6088  0.0035  0.0000
siesta:    8    -9046.6557    -9046.6712    -9046.6712  0.0026  0.0000
siesta:    9    -9046.6347    -9046.6571    -9046.6571  0.0033  0.0000
siesta:   10    -9046.6240    -9046.6363    -9046.6363  0.0022  0.0000
siesta:   11    -9046.6244    -9046.6248    -9046.6248  0.0009  0.0000
siesta:   12    -9046.6218    -9046.6243    -9046.6243  0.0008  0.0000
siesta:   13    -9046.6217    -9046.6219    -9046.6219  0.0007  0.0000
siesta:   14    -9046.6224    -9046.6217    -9046.6217  0.0004  0.0000
siesta:   15    -9046.6266    -9046.6224    -9046.6224  0.0003  0.0000
siesta:   16    -9046.6266    -9046.6264    -9046.6264  0.0001  0.0000
 Calculating transmission coefficient

siesta: E_KS(eV) =            -9046.6266

siesta: Atomic forces (eV/Ang):
----------------------------------------
 Tot    0.049121    0.002945    0.390671
----------------------------------------
 Max    5.960869
 Res    1.487124    sqrt( Sum f_i^2 / 3N )
----------------------------------------
 Max    5.960869    constrained
 
* Maximum dynamic memory allocated =    22 MB

siesta: Program's energy decomposition (eV):
siesta:-Eions   =   -7819.876033
siesta: Ena     =    6790.314025
siesta: Ekin    =     419.088746
siesta: Enl     =     472.801305
siesta: DEna    =      29.755443
siesta: DUscf   =       0.381791
siesta: DUext   =       0.000000
siesta: Exc     =   -8939.091868
siesta: eta*DQ  =       0.000000
siesta: Emadel  =       0.000000
siesta: Ekinion =       0.000000
siesta: Eharris =   -9046.626585
siesta: Eso     =       0.000000
siesta: Etot    =   -9046.626592
siesta: FreeEng =   -9046.626592

siesta: Final energy (eV):
siesta:       Kinetic =     419.088746
siesta:       Hartree =     981.653305
siesta:    Ext. field =       0.000000
siesta:   Exch.-corr. =   -8939.091868
siesta:  Ion-electron =   -2120.117347
siesta:       Ion-ion =     611.840573
siesta:       Ekinion =       0.000000
siesta:         Total =   -9046.626592

siesta: Atomic forces (eV/Ang):
siesta:    1    0.043828    0.037840   -0.085617
siesta:    2    0.071199   -0.018080   -0.085940
siesta:    3    0.001150    0.092524   -0.087477
siesta:    4    0.002407   -0.017188   -0.085568
siesta:    5    0.001089   -0.011580   -0.066503
siesta:    6   -0.069019   -0.018127   -0.085937
siesta:    7    0.001180   -0.027478   -0.083532
siesta:    8   -0.000164   -0.017028   -0.085609
siesta:    9   -0.041519    0.037977   -0.085662
siesta:   10    0.059491   -0.057223    0.083154
siesta:   11   -0.012092    0.037093    0.182659
siesta:   12    0.001274    0.027499    0.174437
siesta:   13    0.034079    0.032316    0.144903
siesta:   14    0.001230   -0.035770    0.146689
siesta:   15    0.014545    0.036953    0.182652
siesta:   16    0.001271   -0.074763    0.089221
siesta:   17   -0.031611    0.032329    0.144907
siesta:   18   -0.056967   -0.057365    0.083102
siesta:   19    0.098698    0.044201   -0.403052
siesta:   20    0.071041    0.015999   -0.409339
siesta:   21    0.001284    0.083217   -0.433535
siesta:   22    0.033641   -0.043882   -0.410508
siesta:   23    0.001229   -0.000312   -0.496287
siesta:   24   -0.068571    0.015980   -0.409346
siesta:   25    0.001288   -0.056807   -0.489170
siesta:   26   -0.031129   -0.043722   -0.410548
siesta:   27   -0.096149    0.044352   -0.403100
siesta:   28   -0.074929   -0.102680   -5.839791
siesta:   29   -0.005738    0.021809   -5.770588
siesta:   30    0.001286    0.017611   -5.773799
siesta:   31    1.000283   -0.518808   -3.060771
siesta:   32    0.001195    1.084798   -3.060806
siesta:   33    0.008147    0.021646   -5.770632
siesta:   34    0.001252    0.046338   -5.832547
siesta:   35   -0.997968   -0.518823   -3.060779
siesta:   36    0.077425   -0.102813   -5.839787
siesta:   37    0.000102    0.008801   -3.338630
siesta:   38    0.000192    0.019143    0.426250
siesta:   39    0.000420    0.016442    2.480452
siesta:   40   -0.065100   -0.121903    5.960676
siesta:   41   -0.075267    0.073273    5.803206
siesta:   42    0.001340   -0.048535    5.812264
siesta:   43    1.466385   -0.793560    2.936353
siesta:   44    0.002123    1.619646    2.930300
siesta:   45    0.078034    0.074506    5.802534
siesta:   46    0.001030    0.066469    5.953862
siesta:   47   -1.464920   -0.792846    2.936523
siesta:   48    0.067854   -0.121231    5.960869
siesta:   49    0.038376   -0.103902    0.540750
siesta:   50   -0.089550   -0.005600    0.536805
siesta:   51    0.033513    0.048596    0.526892
siesta:   52   -0.068112    0.097401    0.527453
siesta:   53    0.154781    0.068247    0.378008
siesta:   54    0.000735   -0.093633    0.524023
siesta:   55    0.054831    0.043174    0.537375
siesta:   56    0.000660   -0.121564    0.375375
siesta:   57   -0.153334    0.068202    0.378032
siesta:   58    0.026530    0.072339   -0.070963
siesta:   59    0.059579   -0.060132   -0.065585
siesta:   60    0.000877    0.081814    0.021232
siesta:   61   -0.027139    0.003157   -0.063705
siesta:   62    0.001997   -0.001609    0.053803
siesta:   63   -0.058224   -0.060700   -0.065549
siesta:   64    0.001294   -0.056072   -0.077185
siesta:   65    0.029810    0.002098   -0.063048
siesta:   66   -0.023991    0.071926   -0.071242
siesta:   67    0.069407   -0.051372    0.030299
siesta:   68    0.009976    0.024351    0.022290
siesta:   69    0.001235    0.052994    0.030039
siesta:   70    0.064436    0.014492    0.013417
siesta:   71    0.001134   -0.000683    0.011910
[...]
siesta:   67    0.069234   -0.051464    0.026144
siesta:   68    0.009467    0.024640    0.017655
siesta:   69    0.001235    0.052401    0.025409
siesta:   70    0.064388    0.014505    0.009703
siesta:   71    0.001133   -0.000727    0.008195
siesta:   72   -0.007162    0.024481    0.017559
siesta:   73    0.001222   -0.085847    0.020072
siesta:   74   -0.062067    0.014563    0.009671
siesta:   75   -0.066816   -0.051599    0.026118
siesta: ----------------------------------------
siesta:  Tot    0.049129    0.002981    0.448455

siesta: Stress tensor (static) (eV/Ang**3):
siesta:     0.593200    0.000001    0.000015
siesta:     0.000001    0.595380   -0.000007
siesta:     0.000015   -0.000007    0.577549

siesta: Cell volume =       1693.984929 Ang**3

siesta: Pressure (static):
siesta:                Solid            Molecule  Units
siesta:          -0.00641180         -0.00743979  Ry/Bohr**3
siesta:          -0.58870962         -0.68309623  eV/Ang**3
siesta:        -943.22699641      -1094.45265383  kBar

siesta: Total spin polarization (Qup-Qdown) =    0.000000
siesta: Spin vector =    0.000000    0.000000    0.000000
siesta: No SpinPolK block detected...

siesta:                 ==============================
SMEAGOL                 Bias step =    9, V =  0.132 Ry
                            Begin CG move =      0
                        ==============================

superc: Internal auxiliary supercell:     3 x     3 x     1  =       9
superc: Number of atoms, orbitals, and projectors:    675   675  2700

read_ldau The LDA+U method used is from Czyzky PRB 49 14211
 
* Maximum dynamic memory allocated =    22 MB
siesta: reading saved Hamiltonian

iodm: Reading Density Matrix from files

Au_Au.HM                         
siesta: found saved Hamiltonian

siesta: Program's energy decomposition (eV):
siesta: Eions   =      7819.876033
siesta: Ena     =      6790.314025
siesta: Ekin    =       419.345312
siesta: Enl     =       472.884316
siesta: DEna    =        29.694462
siesta: DUscf   =         0.395129
siesta: DUext   =         0.000000
siesta: Exc     =     -8939.108156
siesta: eta*DQ  =         0.000000
siesta: Emadel  =         0.000000
siesta: Eharris =     -9044.710563
siesta: Eso     =         0.000000
siesta: Etot    =     -9046.350944
siesta: FreeEng =     -9046.350944

siesta: iscf   Eharris(eV)      E_KS(eV)   FreeEng(eV)   dDmax  Ef(eV)
siesta:    1    -9044.7106    -9046.3509    -9046.3509  0.0080  0.0000
siesta:    2    -9047.0195    -9042.3944    -9042.3944  0.4096  0.0000
siesta:    3    -9045.7428    -9048.1494    -9048.1494  0.2262  0.0000
siesta:    4    -9046.0831    -9046.6885    -9046.6885  0.0142  0.0000
siesta:    5    -9045.9279    -9046.1222    -9046.1222  0.0071  0.0000
siesta:    6    -9046.0946    -9045.9444    -9045.9444  0.0074  0.0000
siesta:    7    -9046.0891    -9046.0737    -9046.0737  0.0058  0.0000
siesta:    8    -9046.0869    -9046.0928    -9046.0928  0.0024  0.0000
siesta:    9    -9046.0743    -9046.0879    -9046.0879  0.0035  0.0000
siesta:   10    -9046.0708    -9046.0758    -9046.0758  0.0029  0.0000
siesta:   11    -9046.0694    -9046.0716    -9046.0716  0.0011  0.0000
siesta:   12    -9046.0599    -9046.0695    -9046.0695  0.0010  0.0000
siesta:   13    -9046.0577    -9046.0602    -9046.0602  0.0007  0.0000
siesta:   14    -9046.0578    -9046.0578    -9046.0578  0.0005  0.0000
siesta:   15    -9046.0596    -9046.0578    -9046.0578  0.0004  0.0000
siesta:   16    -9046.0598    -9046.0594    -9046.0594  0.0001  0.0000
 Calculating transmission coefficient

siesta: E_KS(eV) =            -9046.0598

siesta: Atomic forces (eV/Ang):
----------------------------------------
 Tot    0.049125    0.002997    0.477174
----------------------------------------
 Max    5.975519
 Res    1.487872    sqrt( Sum f_i^2 / 3N )
----------------------------------------
 Max    5.975519    constrained
 
* Maximum dynamic memory allocated =    22 MB

siesta: Program's energy decomposition (eV):
siesta:-Eions   =   -7819.876033
siesta: Ena     =    6790.314025
siesta: Ekin    =     419.605003
siesta: Enl     =     472.969219
siesta: DEna    =      29.636796
siesta: DUscf   =       0.402247
siesta: DUext   =       0.000000
siesta: Exc     =   -8939.111064
siesta: eta*DQ  =       0.000000
siesta: Emadel  =       0.000000
siesta: Ekinion =       0.000000
siesta: Eharris =   -9046.059832
siesta: Eso     =       0.000000
siesta: Etot    =   -9046.059807
siesta: FreeEng =   -9046.059807

siesta: Final energy (eV):
siesta:       Kinetic =     419.605003
siesta:       Hartree =     981.801909
siesta:    Ext. field =       0.000000
siesta:   Exch.-corr. =   -8939.111064
siesta:  Ion-electron =   -2120.196229
siesta:       Ion-ion =     611.840573
siesta:       Ekinion =       0.000000
siesta:         Total =   -9046.059807

siesta: Atomic forces (eV/Ang):
siesta:    1    0.043720    0.037767   -0.144335
siesta:    2    0.071079   -0.018133   -0.144636
siesta:    3    0.001150    0.092519   -0.143813
siesta:    4    0.002419   -0.017062   -0.144306
siesta:    5    0.001090   -0.011576   -0.121542
siesta:    6   -0.068898   -0.018180   -0.144635
siesta:    7    0.001179   -0.027478   -0.139478
siesta:    8   -0.000177   -0.016902   -0.144346
siesta:    9   -0.041412    0.037903   -0.144381
siesta:   10    0.068575   -0.051982    0.095690
siesta:   11   -0.014664    0.038460    0.191799
siesta:   12    0.001273    0.024647    0.183806
siesta:   13    0.035779    0.031500    0.159005
siesta:   14    0.001230   -0.033795    0.160941
siesta:   15    0.017120    0.038324    0.191781
siesta:   16    0.001268   -0.085405    0.101313
siesta:   17   -0.033316    0.031510    0.159012
siesta:   18   -0.066055   -0.052127    0.095644
siesta:   19    0.071112    0.046083   -0.402337
siesta:   20    0.058760   -0.008639   -0.408522
siesta:   21    0.001277    0.083043   -0.392675
siesta:   22    0.018312   -0.021117   -0.409859
siesta:   23    0.001234   -0.000263   -0.426251
siesta:   24   -0.056276   -0.008652   -0.408529
siesta:   25    0.001284   -0.056740   -0.462866
siesta:   26   -0.015798   -0.020959   -0.409898
siesta:   27   -0.068563    0.046222   -0.402385
siesta:   28   -0.077815   -0.104260   -5.799879
siesta:   29    0.002005    0.017336   -5.746882
siesta:   30    0.001285    0.026416   -5.750261
siesta:   31    0.909811   -0.466577   -3.106858
siesta:   32    0.001195    0.980360   -3.107012
siesta:   33    0.000410    0.017180   -5.746923
siesta:   34    0.001254    0.049596   -5.792376
siesta:   35   -0.907499   -0.466594   -3.106870
siesta:   36    0.080306   -0.104390   -5.799877
siesta:   37    0.000102    0.008790   -3.502127
siesta:   38    0.000192    0.019133    0.604407
siesta:   39    0.000420    0.016496    2.285152
siesta:   40   -0.067519   -0.123231    5.975324
siesta:   41   -0.087014    0.080080    5.804582
siesta:   42    0.001343   -0.062188    5.813670
siesta:   43    1.552332   -0.843214    2.957244
siesta:   44    0.002123    1.718917    2.951226
siesta:   45    0.089784    0.081312    5.803907
siesta:   46    0.001027    0.069227    5.968477
siesta:   47   -1.550876   -0.842501    2.957416
siesta:   48    0.070272   -0.122565    5.975519
siesta:   49    0.038362   -0.108419    0.554071
siesta:   50   -0.093451   -0.003286    0.550139
siesta:   51    0.036440    0.050275    0.541482
siesta:   52   -0.071020    0.099066    0.542048
siesta:   53    0.159124    0.070736    0.410460
siesta:   54    0.000739   -0.096967    0.538596
siesta:   55    0.058752    0.045467    0.550712
siesta:   56    0.000658   -0.126612    0.407858
siesta:   57   -0.157684    0.070693    0.410485
siesta:   58    0.022418    0.080215   -0.059533
siesta:   59    0.064343   -0.067627   -0.054156
siesta:   60    0.000875    0.081808    0.115133
siesta:   61   -0.036015    0.002773   -0.052275
siesta:   62    0.001998   -0.001601    0.081276
siesta:   63   -0.062993   -0.068196   -0.054122
siesta:   64    0.001294   -0.056076   -0.016151
siesta:   65    0.038686    0.001712   -0.051618
siesta:   66   -0.019875    0.079797   -0.059810
siesta:   67    0.069143   -0.051514    0.023890
siesta:   68    0.009270    0.024752    0.015219
siesta:   69    0.001235    0.052171    0.022974
siesta:   70    0.064403    0.014491    0.007725
siesta:   71    0.001133   -0.000706    0.006220
siesta:   72   -0.006965    0.024593    0.015122
siesta:   73    0.001222   -0.085739    0.017816
siesta:   74   -0.062082    0.014548    0.007694
siesta:   75   -0.066725   -0.051649    0.023864
siesta: ----------------------------------------
siesta:  Tot    0.049125    0.002997    0.477174

siesta: Stress tensor (static) (eV/Ang**3):
siesta:     0.593124    0.000001    0.000015
siesta:     0.000001    0.595305   -0.000007
siesta:     0.000015   -0.000007    0.577312

siesta: Cell volume =       1693.984929 Ang**3

siesta: Pressure (static):
siesta:                Solid            Molecule  Units
siesta:          -0.00641039         -0.00744437  Ry/Bohr**3
siesta:          -0.58858026         -0.68351682  eV/Ang**3
siesta:        -943.01972980      -1095.12651342  kBar

siesta: Total spin polarization (Qup-Qdown) =    0.000000
siesta: Spin vector =    0.000000    0.000000    0.000000
siesta: No SpinPolK block detected...

siesta:                 ==============================
SMEAGOL                 Bias step =   10, V =  0.147 Ry
                            Begin CG move =      0
                        ==============================

superc: Internal auxiliary supercell:     3 x     3 x     1  =       9
superc: Number of atoms, orbitals, and projectors:    675   675  2700

read_ldau The LDA+U method used is from Czyzky PRB 49 14211
 
* Maximum dynamic memory allocated =    22 MB
siesta: reading saved Hamiltonian

iodm: Reading Density Matrix from files

Au_Au.HM                         
siesta: found saved Hamiltonian

siesta: Program's energy decomposition (eV):
siesta: Eions   =      7819.876033
siesta: Ena     =      6790.314025
siesta: Ekin    =       419.605003
siesta: Enl     =       472.969219
siesta: DEna    =        29.636796
siesta: DUscf   =         0.402247
siesta: DUext   =         0.000000
siesta: Exc     =     -8939.111064
siesta: eta*DQ  =         0.000000
siesta: Emadel  =         0.000000
siesta: Eharris =     -9044.306057
siesta: Eso     =         0.000000
siesta: Etot    =     -9046.059807
siesta: FreeEng =     -9046.059807

siesta: iscf   Eharris(eV)      E_KS(eV)   FreeEng(eV)   dDmax  Ef(eV)
siesta:    1    -9044.3061    -9046.0598    -9046.0598  0.0080  0.0000
siesta:    2    -9046.8618    -9042.0906    -9042.0906  0.4069  0.0000
siesta:    3    -9045.4835    -9047.8946    -9047.8946  0.2220  0.0000
siesta:    4    -9045.8398    -9046.4296    -9046.4296  0.0135  0.0000
siesta:    5    -9045.6805    -9045.8780    -9045.8780  0.0071  0.0000
siesta:    6    -9045.8612    -9045.6982    -9045.6982  0.0072  0.0000
siesta:    7    -9045.8312    -9045.8359    -9045.8359  0.0071  0.0000
siesta:    8    -9045.8318    -9045.8389    -9045.8389  0.0024  0.0000
siesta:    9    -9045.8234    -9045.8328    -9045.8328  0.0033  0.0000
siesta:   10    -9045.8228    -9045.8246    -9045.8246  0.0030  0.0000
siesta:   11    -9045.8216    -9045.8236    -9045.8236  0.0012  0.0000
siesta:   12    -9045.8070    -9045.8216    -9045.8216  0.0011  0.0000
siesta:   13    -9045.8066    -9045.8076    -9045.8076  0.0007  0.0000
siesta:   14    -9045.8058    -9045.8066    -9045.8066  0.0005  0.0000
siesta:   15    -9045.8077    -9045.8058    -9045.8058  0.0003  0.0000
siesta:   16    -9045.8076    -9045.8075    -9045.8075  0.0001  0.0000
 Calculating transmission coefficient

siesta: E_KS(eV) =            -9045.8076

siesta: Atomic forces (eV/Ang):
----------------------------------------
 Tot    0.049131    0.003013    0.505992
----------------------------------------
 Max    5.980549
 Res    1.488244    sqrt( Sum f_i^2 / 3N )
----------------------------------------
 Max    5.980549    constrained
 
* Maximum dynamic memory allocated =    22 MB

coxmol: Writing XMOL coordinates into file Au_Au.xyz               
 siesta: ERROR: PDOS implemented only with diagon

siesta: Program's energy decomposition (eV):
siesta:-Eions   =   -7819.876033
siesta: Ena     =    6790.314025
siesta: Ekin    =     419.823828
siesta: Enl     =     473.036518
siesta: DEna    =      29.592467
siesta: DUscf   =       0.410870
siesta: DUext   =       0.000000
siesta: Exc     =   -8939.109295
siesta: eta*DQ  =       0.000000
siesta: Emadel  =       0.000000
siesta: Ekinion =       0.000000
siesta: Eharris =   -9045.807595
siesta: Eso     =       0.000000
siesta: Etot    =   -9045.807619
siesta: FreeEng =   -9045.807619

siesta: Final energy (eV):
siesta:       Kinetic =     419.823828
siesta:       Hartree =     981.888026
siesta:    Ext. field =       0.000000
siesta:   Exch.-corr. =   -8939.109295
siesta:  Ion-electron =   -2120.250752
siesta:       Ion-ion =     611.840573
siesta:       Ekinion =       0.000000
siesta:         Total =   -9045.807619

siesta: Atomic forces (eV/Ang):
siesta:    1    0.043694    0.037745   -0.163783
siesta:    2    0.071048   -0.018146   -0.164091
siesta:    3    0.001151    0.092520   -0.162475
siesta:    4    0.002424   -0.017028   -0.163752
siesta:    5    0.001089   -0.011577   -0.139832
siesta:    6   -0.068867   -0.018193   -0.164089
siesta:    7    0.001179   -0.027478   -0.157968
siesta:    8   -0.000182   -0.016867   -0.163793
siesta:    9   -0.041385    0.037881   -0.163829
siesta:   10    0.071802   -0.050132    0.098695
siesta:   11   -0.015431    0.038923    0.193110
siesta:   12    0.001272    0.023740    0.185102
siesta:   13    0.035866    0.031430    0.161143
siesta:   14    0.001230   -0.033719    0.163079
siesta:   15    0.017886    0.038784    0.193101
siesta:   16    0.001271   -0.089118    0.104332
siesta:   17   -0.033400    0.031444    0.161144
siesta:   18   -0.069278   -0.050275    0.098652
siesta:   19    0.062862    0.046319   -0.401374
siesta:   20    0.054881   -0.015949   -0.407610
siesta:   21    0.001282    0.083120   -0.378563
siesta:   22    0.013970   -0.014039   -0.408858
siesta:   23    0.001228   -0.000292   -0.406365
siesta:   24   -0.052400   -0.015961   -0.407617
siesta:   25    0.001279   -0.056738   -0.453411
siesta:   26   -0.011461   -0.013883   -0.408897
siesta:   27   -0.060314    0.046456   -0.401425
siesta:   28   -0.078599   -0.104953   -5.786224
siesta:   29    0.003975    0.016102   -5.738239
siesta:   30    0.001272    0.029016   -5.741549
siesta:   31    0.879278   -0.448821   -3.120111
siesta:   32    0.001197    0.945045   -3.120207
siesta:   33   -0.001570    0.015942   -5.738280
siesta:   34    0.001265    0.050611   -5.778855
siesta:   35   -0.876948   -0.448840   -3.120119
siesta:   36    0.081092   -0.105061   -5.786219
siesta:   37    0.000102    0.008809   -3.557960
siesta:   38    0.000192    0.019129    0.650837
siesta:   39    0.000420    0.016514    2.241331
siesta:   40   -0.069126   -0.124072    5.980359
siesta:   41   -0.090583    0.082077    5.804706
siesta:   42    0.001342   -0.066413    5.813817
siesta:   43    1.580296   -0.859323    2.963735
siesta:   44    0.002122    1.751250    2.957704
siesta:   45    0.093345    0.083303    5.804033
siesta:   46    0.001027    0.071043    5.973508
siesta:   47   -1.578834   -0.858603    2.963909
siesta:   48    0.071885   -0.123408    5.980549
siesta:   49    0.038358   -0.110914    0.559211
siesta:   50   -0.095635   -0.001950    0.555297
siesta:   51    0.036932    0.050541    0.545389
siesta:   52   -0.071514    0.099331    0.545948
siesta:   53    0.162576    0.072709    0.419730
siesta:   54    0.000742   -0.097496    0.542507
siesta:   55    0.060940    0.046796    0.555872
siesta:   56    0.000655   -0.130705    0.417207
siesta:   57   -0.161142    0.072666    0.419759
siesta:   58    0.020796    0.083085   -0.055158
siesta:   59    0.066023   -0.070473   -0.049819
siesta:   60    0.000876    0.081824    0.147043
siesta:   61   -0.039324    0.002726   -0.047930
siesta:   62    0.002000   -0.001587    0.091871
siesta:   63   -0.064671   -0.071044   -0.049784
siesta:   64    0.001294   -0.056081    0.003050
siesta:   65    0.042000    0.001663   -0.047274
siesta:   66   -0.018251    0.082670   -0.055436
siesta:   67    0.069050   -0.051563    0.021701
siesta:   68    0.009105    0.024846    0.012872
siesta:   69    0.001235    0.051977    0.020632
siesta:   70    0.064440    0.014461    0.005804
siesta:   71    0.001133   -0.000657    0.004298
siesta:   72   -0.006800    0.024686    0.012775
siesta:   73    0.001222   -0.085630    0.015625
siesta:   74   -0.062119    0.014519    0.005772
siesta:   75   -0.066631   -0.051698    0.021676
siesta: ----------------------------------------
siesta:  Tot    0.049131    0.003013    0.505992

siesta: Stress tensor (static) (eV/Ang**3):
siesta:     0.593101    0.000001    0.000015
siesta:     0.000001    0.595281   -0.000007
siesta:     0.000015   -0.000007    0.577097

siesta: Cell volume =       1693.984929 Ang**3

siesta: Pressure (static):
siesta:                Solid            Molecule  Units
siesta:          -0.00640944         -0.00744932  Ry/Bohr**3
siesta:          -0.58849291         -0.68397168  eV/Ang**3
siesta:        -942.87977321      -1095.85528882  kBar

siesta: Total spin polarization (Qup-Qdown) =    0.000000
siesta: Spin vector =    0.000000    0.000000    0.000000
siesta: No SpinPolK block detected...
 
* Maximum dynamic memory allocated : Node    0 =    22 MB
* Maximum dynamic memory allocated : Node    1 =    18 MB
* Maximum dynamic memory allocated : Node    2 =    19 MB
* Maximum dynamic memory allocated : Node    3 =    21 MB
* Maximum dynamic memory allocated : Node    4 =    21 MB
* Maximum dynamic memory allocated : Node    5 =    18 MB
* Maximum dynamic memory allocated : Node    6 =    19 MB
* Maximum dynamic memory allocated : Node    7 =    21 MB
* Maximum memory occured during redistribXZ                   

timer: CPU execution times:
timer:  Routine       Calls   Time/call    Tot.time        %
timer:  siesta            1    1211.060    1211.060   100.00
timer:  Setup             1    5396.130    5396.130   445.57
timer:  bands             1       0.000       0.000     0.00
timer:  writewave         1       0.010       0.010     0.00
timer:  KSV_init          1       0.020       0.020     0.00
timer:  IterMD           11     108.746    1196.210    98.77
timer:  hsparse          12       0.075       0.900     0.07
timer:  overfsm          22       0.015       0.340     0.03
timer:  IterSCF         178       6.696    1191.910    98.42
timer:  kinefsm          22       0.014       0.310     0.03
timer:  nlefsm           22       0.083       1.830     0.15
timer:  DHSCF           181       1.968     356.160    29.41
timer:  DHSCF1            1       1.610       1.610     0.13
timer:  DHSCF2            1       5.360       5.360     0.44
timer:  REORD          2140       0.003       5.450     0.45
timer:  POISON          182       0.654     118.960     9.82
timer:  DHSCF3          181       1.578     285.540    23.58
timer:  rhoofd          181       0.120      21.740     1.80
timer:  CELLXC          181       0.324      58.630     4.84
timer:  vmat            178       0.144      25.690     2.12
timer:  emtrans         178       4.660     829.550    68.50
timer:  NEGFK           712       1.139     810.910    66.96
timer:  NEGFK_su        712       0.229     162.740    13.44
timer:  NEGFK_imag      668       0.089      59.480     4.91
timer:  NEGFK_col       668       0.009       5.910     0.49
timer:  DHSCF4           11       5.443      59.870     4.94
timer:  dfscf            11       2.205      24.260     2.00
timer:  TRANSM           44       4.415     194.270    16.04
timer:  CURRENT          44       1.368      60.200     4.97
timer:  NEGFK_real      584       0.554     323.740    26.73
  
>> End of run:  26-AUG-2013   0:59:51
