ATOMS
Au            1.78720903      1.28067091      0.00000000             0.00000000      0.00000000      0.00000000
Au            0.30935586      2.75852409      2.09000000             0.00000000      0.00000000      0.00000000
Au            1.78720903      1.28067091      4.18000000             0.00000000      0.00000000      0.00000000
Au            0.30935586      2.75852409      6.27000000             0.00000000      0.00000000      0.00000000
Au            4.74291537      1.28067091      0.00000000             0.00000000      0.00000000      0.00000000
Au            3.26506220      2.75852409      2.09000000             0.00000000      0.00000000      0.00000000
Au            4.74291537      1.28067091      4.18000000             0.00000000      0.00000000      0.00000000
Au            3.26506220      2.75852409      6.27000000             0.00000000      0.00000000      0.00000000
Au            7.69862172      1.28067091      0.00000000             0.00000000      0.00000000      0.00000000
Au            6.22076855      2.75852409      2.09000000             0.00000000      0.00000000      0.00000000
Au            7.69862172      1.28067091      4.18000000             0.00000000      0.00000000      0.00000000
Au            6.22076855      2.75852409      6.27000000             0.00000000      0.00000000      0.00000000
Au            1.78720903      4.23637726      0.00000000             0.00000000      0.00000000      0.00000000
Au            0.30935586      5.71423043      2.09000000             0.00000000      0.00000000      0.00000000
Au            1.78720903      4.23637726      4.18000000             0.00000000      0.00000000      0.00000000
Au            0.30935586      5.71423043      6.27000000             0.00000000      0.00000000      0.00000000
Au            4.74291537      4.23637726      0.00000000             0.00000000      0.00000000      0.00000000
Au            3.26506220      5.71423043      2.09000000             0.00000000      0.00000000      0.00000000
Au            4.74291537      4.23637726      4.18000000             0.00000000      0.00000000      0.00000000
Au            3.26506220      5.71423043      6.27000000             0.00000000      0.00000000      0.00000000
Au            7.69862172      4.23637726      0.00000000             0.00000000      0.00000000      0.00000000
Au            6.22076855      5.71423043      2.09000000             0.00000000      0.00000000      0.00000000
Au            7.69862172      4.23637726      4.18000000             0.00000000      0.00000000      0.00000000
Au            6.22076855      5.71423043      6.27000000             0.00000000      0.00000000      0.00000000
Au            1.78720903      7.19208360      0.00000000             0.00000000      0.00000000      0.00000000
Au            0.30935586      8.66993678      2.09000000             0.00000000      0.00000000      0.00000000
Au            1.78720903      7.19208360      4.18000000             0.00000000      0.00000000      0.00000000
Au            0.30935586      8.66993678      6.27000000             0.00000000      0.00000000      0.00000000
Au            4.74291537      7.19208360      0.00000000             0.00000000      0.00000000      0.00000000
Au            3.26506220      8.66993678      2.09000000             0.00000000      0.00000000      0.00000000
Au            4.74291537      7.19208360      4.18000000             0.00000000      0.00000000      0.00000000
Au            3.26506220      8.66993678      6.27000000             0.00000000      0.00000000      0.00000000
Au            7.69862172      7.19208360      0.00000000             0.00000000      0.00000000      0.00000000
Au            6.22076855      8.66993678      2.09000000             0.00000000      0.00000000      0.00000000
Au            7.69862172      7.19208360      4.18000000             0.00000000      0.00000000      0.00000000
Au            6.22076855      8.66993678      6.27000000             0.00000000      0.00000000      0.00000000
Au            1.78720903      1.28067091      8.36000000             0.00000000      0.00000000      0.00000000
Au            1.78720903      4.23637726      8.36000000             0.00000000      0.00000000      0.00000000
Au            1.78720903      7.19208360      8.36000000             0.00000000      0.00000000      0.00000000
Au            4.74291537      1.28067091      8.36000000             0.00000000      0.00000000      0.00000000
Au            4.74291537      4.23637726      8.36000000             0.00000000      0.00000000      0.00000000
Au            4.74291537      7.19208360      8.36000000             0.00000000      0.00000000      0.00000000
Au            7.69862172      1.28067091      8.36000000             0.00000000      0.00000000      0.00000000
Au            7.69862172      4.23637726      8.36000000             0.00000000      0.00000000      0.00000000
Au            7.69862172      7.19208360      8.36000000             0.00000000      0.00000000      0.00000000
Au            0.30935586      2.75852409     10.45000000             0.00000000      0.00000000      0.00000000
Au            0.30935586      5.71423043     10.45000000             0.00000000      0.00000000      0.00000000
Au            0.30935586      8.66993678     10.45000000             0.00000000      0.00000000      0.00000000
Au            3.26506220      2.75852409     10.45000000             0.00000000      0.00000000      0.00000000
Au            3.26506220      5.71423043     10.45000000             0.00000000      0.00000000      0.00000000
Au            3.26506220      8.66993678     10.45000000             0.00000000      0.00000000      0.00000000
Au            6.22076855      2.75852409     10.45000000             0.00000000      0.00000000      0.00000000
Au            6.22076855      5.71423043     10.45000000             0.00000000      0.00000000      0.00000000
Au            6.22076855      8.66993678     10.45000000             0.00000000      0.00000000      0.00000000
Au            1.75804965      4.20792036     12.43789353             0.00000000      0.00000000      0.00000000
Au            1.75791742      7.22209070     12.43871651             0.00000000      0.00000000      0.00000000
Au            4.77209279      4.20815453     12.43792170             0.00000000      0.00000000      0.00000000
Au            4.77209571      7.22181753     12.43885723             0.00000000      0.00000000      0.00000000
Au            3.26450745      5.71394346     14.35822747            -0.00086916     -0.01232124     -0.00364216
Au            3.26751041      5.74830988     17.02308630            -0.06478059     -0.92865642      0.00509853
H             3.25232668      5.71871818     18.90124433            -0.02139001     -0.17672809      0.01083224
H             3.25626447      5.72458511     19.77126372            -0.02089441     -0.30433152      0.01075540
Au            3.24293716      5.71685527     21.65325780            -0.01606421     -0.08897625      0.00587558
Au            3.26239937      5.71581626     24.30338197            -0.00039401     -0.00294870      0.00361673
Au            1.77175799      4.22003151     26.27380245             0.00000000      0.00000000      0.00000000
Au            1.77091567      7.20763925     26.27453697             0.00000000      0.00000000      0.00000000
Au            4.75783541      4.22077067     26.27346806             0.00000000      0.00000000      0.00000000
Au            4.75851823      7.20674793     26.27414799             0.00000000      0.00000000      0.00000000
Au            0.30935586      2.75852409     28.27000000             0.00000000      0.00000000      0.00000000
Au            0.30935586      5.71423043     28.27000000             0.00000000      0.00000000      0.00000000
Au            0.30935586      8.66993678     28.27000000             0.00000000      0.00000000      0.00000000
Au            3.26506220      2.75852409     28.27000000             0.00000000      0.00000000      0.00000000
Au            3.26506220      5.71423043     28.27000000             0.00000000      0.00000000      0.00000000
Au            3.26506220      8.66993678     28.27000000             0.00000000      0.00000000      0.00000000
Au            6.22076855      2.75852409     28.27000000             0.00000000      0.00000000      0.00000000
Au            6.22076855      5.71423043     28.27000000             0.00000000      0.00000000      0.00000000
Au            6.22076855      8.66993678     28.27000000             0.00000000      0.00000000      0.00000000
Au            1.78720903      1.28067091     30.36000000             0.00000000      0.00000000      0.00000000
Au            0.30935586      2.75852409     32.45000000             0.00000000      0.00000000      0.00000000
Au            1.78720903      1.28067091     34.54000000             0.00000000      0.00000000      0.00000000
Au            0.30935586      2.75852409     36.63000000             0.00000000      0.00000000      0.00000000
Au            4.74291537      1.28067091     30.36000000             0.00000000      0.00000000      0.00000000
Au            3.26506220      2.75852409     32.45000000             0.00000000      0.00000000      0.00000000
Au            4.74291537      1.28067091     34.54000000             0.00000000      0.00000000      0.00000000
Au            3.26506220      2.75852409     36.63000000             0.00000000      0.00000000      0.00000000
Au            7.69862172      1.28067091     30.36000000             0.00000000      0.00000000      0.00000000
Au            6.22076855      2.75852409     32.45000000             0.00000000      0.00000000      0.00000000
Au            7.69862172      1.28067091     34.54000000             0.00000000      0.00000000      0.00000000
Au            6.22076855      2.75852409     36.63000000             0.00000000      0.00000000      0.00000000
Au            1.78720903      4.23637726     30.36000000             0.00000000      0.00000000      0.00000000
Au            0.30935586      5.71423043     32.45000000             0.00000000      0.00000000      0.00000000
Au            1.78720903      4.23637726     34.54000000             0.00000000      0.00000000      0.00000000
Au            0.30935586      5.71423043     36.63000000             0.00000000      0.00000000      0.00000000
Au            4.74291537      4.23637726     30.36000000             0.00000000      0.00000000      0.00000000
Au            3.26506220      5.71423043     32.45000000             0.00000000      0.00000000      0.00000000
Au            4.74291537      4.23637726     34.54000000             0.00000000      0.00000000      0.00000000
Au            3.26506220      5.71423043     36.63000000             0.00000000      0.00000000      0.00000000
Au            7.69862172      4.23637726     30.36000000             0.00000000      0.00000000      0.00000000
Au            6.22076855      5.71423043     32.45000000             0.00000000      0.00000000      0.00000000
Au            7.69862172      4.23637726     34.54000000             0.00000000      0.00000000      0.00000000
Au            6.22076855      5.71423043     36.63000000             0.00000000      0.00000000      0.00000000
Au            1.78720903      7.19208360     30.36000000             0.00000000      0.00000000      0.00000000
Au            0.30935586      8.66993678     32.45000000             0.00000000      0.00000000      0.00000000
Au            1.78720903      7.19208360     34.54000000             0.00000000      0.00000000      0.00000000
Au            0.30935586      8.66993678     36.63000000             0.00000000      0.00000000      0.00000000
Au            4.74291537      7.19208360     30.36000000             0.00000000      0.00000000      0.00000000
Au            3.26506220      8.66993678     32.45000000             0.00000000      0.00000000      0.00000000
Au            4.74291537      7.19208360     34.54000000             0.00000000      0.00000000      0.00000000
Au            3.26506220      8.66993678     36.63000000             0.00000000      0.00000000      0.00000000
Au            7.69862172      7.19208360     30.36000000             0.00000000      0.00000000      0.00000000
Au            6.22076855      8.66993678     32.45000000             0.00000000      0.00000000      0.00000000
Au            7.69862172      7.19208360     34.54000000             0.00000000      0.00000000      0.00000000
Au            6.22076855      8.66993678     36.63000000             0.00000000      0.00000000      0.00000000
