     183
 i =       0, E =    -5729.6832400997
 Au         0.0002322785        0.0004684933        0.0003724193
 Au         0.0002878169        2.9554684813        0.0001921933
 Au         0.0003433741        5.9114684693        0.0000119064
 Au         2.9562322764        0.0004129291        0.0003145336
 Au         2.9562878147        2.9554129171        0.0001343076
 Au         2.9563433719        5.9114129050       -0.0000459794
 Au         5.9122322742        0.0003573649        0.0002566479
 Au         5.9122878126        2.9553573528        0.0000764219
 Au         5.9123433697        5.9113573408       -0.0001038651
 Au         8.6702322721        0.0003055225        0.0002026394
 Au         8.6702878105        2.9553055104        0.0000224135
 Au         8.6703433677        5.9113054984       -0.0001578735
 Au        11.6262322700        0.0002499583        0.0001447537
 Au        11.6262878083        2.9552499462       -0.0000354723
 Au        11.6263433655        5.9112499342       -0.0002157593
 Au         1.4783009882        1.4785681731        2.0902533244
 Au         1.4783565265        4.4335681611        2.0900730984
 Au         1.4784120837        7.3895681491        2.0898928114
 Au         4.4343009860        1.4785126089        2.0901954387
 Au         4.4343565243        4.4335125969        2.0900152127
 Au         4.4344120815        7.3895125848        2.0898349257
 Au         7.1923009839        1.4784607665        2.0901414302
 Au         7.1923565223        4.4334607545        2.0899612043
 Au         7.1924120795        7.3894607424        2.0897809173
 Au        10.1483009818        1.4784052023        2.0900835445
 Au        10.1483565201        4.4334051903        2.0899033185
 Au        10.1484120773        7.3894051782        2.0897230315
 Au        13.1043009796        1.4783496381        2.0900256588
 Au        13.1043565180        4.4333496260        2.0898454328
 Au        13.1044120751        7.3893496140        2.0896651458
 Au         0.0003141428        0.0007234292        4.1803724022
 Au         0.0003696812        2.9557234172        4.1801921762
 Au         0.0004252383        5.9117234051        4.1800118892
 Au         2.9563141406        0.0006678650        4.1803145164
 Au         2.9563696790        2.9556678530        4.1801342904
 Au         2.9564252361        5.9116678409        4.1799540035
 Au         5.9123141384        0.0006123008        4.1802566307
 Au         5.9123696768        2.9556122887        4.1800764047
 Au         5.9124252340        5.9116122767        4.1798961177
 Au         8.6703141364        0.0005604584        4.1802026223
 Au         8.6703696748        2.9555604463        4.1800223963
 Au         8.6704252319        5.9115604343        4.1798421093
 Au        11.6263141342        0.0005048941        4.1801447366
 Au        11.6263696726        2.9555048821        4.1799645106
 Au        11.6264252297        5.9115048701        4.1797842236
 Au         1.4783828524        1.4788231090        6.2702533072
 Au         1.4784383908        4.4338230970        6.2700730813
 Au         1.4784939479        7.3898230850        6.2698927943
 Au         4.4343828502        1.4787675448        6.2701954215
 Au         4.4344383886        4.4337675328        6.2700151955
 Au         4.4344939458        7.3897675207        6.2698349085
 Au         7.1923828482        1.4787157024        6.2701414131
 Au         7.1924383866        4.4337156904        6.2699611871
 Au         7.1924939437        7.3897156783        6.2697809001
 Au        10.1483828460        1.4786601382        6.2700835274
 Au        10.1484383844        4.4336601261        6.2699033014
 Au        10.1484939415        7.3896601141        6.2697230144
 Au        13.1043828438        1.4786045739        6.2700256416
 Au        13.1044383822        4.4336045619        6.2698454156
 Au        13.1044939394        7.3896045499        6.2696651287
 Au         0.0003960070        0.0009783651        8.3603723850
 Au         0.0004515454        2.9559783531        8.3601921590
 Au         0.0005071026        5.9119783410        8.3600118721
 Au         2.9563960048        0.0009228009        8.3603144993
 Au         2.9564515432        2.9559227888        8.3601342733
 Au         2.9565071004        5.9119227768        8.3599539863
 Au         5.9123960027        0.0008672366        8.3602566135
 Au         5.9124515410        2.9558672246        8.3600763876
 Au         5.9125070982        5.9118672126        8.3598961006
 Au         8.6703960006        0.0008153942        8.3602026051
 Au         8.6704515390        2.9558153822        8.3600223792
 Au         8.6705070962        5.9118153702        8.3598420922
 Au        11.6263959985        0.0007598300        8.3601447194
 Au        11.6264515368        2.9557598180        8.3599644934
 Au        11.6265070940        5.9117598059        8.3597842064
 Au         1.4784647166        1.4790780449       10.4502532901
 Au         1.4785202550        4.4340780329       10.4500730641
 Au         1.4785758122        7.3900780208       10.4498927771
 Au         4.4344647145        1.4790224807       10.4501954044
 Au         4.4345202528        4.4340224686       10.4500151784
 Au         4.4345758100        7.3900224566       10.4498348914
 Au         7.1924647124        1.4789706383       10.4501413959
 Au         7.1925202508        4.4339706262       10.4499611700
 Au         7.1925758080        7.3899706142       10.4497808830
 Au        10.1484647103        1.4789150741       10.4500835102
 Au        10.1485202486        4.4339150620       10.4499032842
 Au        10.1485758058        7.3899150500       10.4497229972
 Au        13.1044647081        1.4788595098       10.4500256245
 Au        13.1045202464        4.4338594978       10.4498453985
 Au        13.1045758036        7.3898594858       10.4496651115
  N         4.8557790142        5.9125610344       12.0318167842
  N         9.5285790875        5.9143733175       12.0338251534
  N         7.1925796014        5.9350675934       12.0398696172
  H        10.3346438533        5.9169845505       12.6628319904
  H         4.0607585237        5.9122644318       12.6767528540
  C         8.3725280474        5.9273250462       12.7193251419
  C         5.9993213109        5.9255618495       12.7737642159
  N         8.3129962852        5.9361975247       14.0765948088
  N         5.9319847607        5.9326471798       14.1003674675
  H         9.1616088295        5.9071544040       14.6393407703
  C         7.0876680652        5.9444104880       14.8284697966
  N         7.2033104526        5.8995019327       16.1120037406
  H         6.7902489682        6.2884818007       16.6406208686
 Au         7.2527559229        5.9356166813       21.0428695802
 Au         5.8633177382        7.3147596049       22.9918179121
 Au         8.7422659004        4.4357077738       22.9919321146
 Au         5.8632658836        4.4347596162       22.9919861840
 Au         8.7423177362        7.3147077625       22.9917639037
 Au         1.4787512807        1.4799704425       25.0822532300
 Au         1.4788068190        4.4349704304       25.0820730041
 Au         1.4788623762        7.3909704184       25.0818927171
 Au         4.4347512785        1.4799148783       25.0821953443
 Au         4.4348068169        4.4349148662       25.0820151183
 Au         4.4348623740        7.3909148542       25.0818348313
 Au         7.1927512764        1.4798630359       25.0821413359
 Au         7.1928068148        4.4348630238       25.0819611099
 Au         7.1928623720        7.3908630118       25.0817808229
 Au        10.1487512743        1.4798074716       25.0820834502
 Au        10.1488068126        4.4348074596       25.0819032242
 Au        10.1488623698        7.3908074476       25.0817229372
 Au        13.1047512721        1.4797519074       25.0820255644
 Au        13.1048068105        4.4347518954       25.0818453384
 Au        13.1048623676        7.3907518833       25.0816650515
 Au         0.0007644353        0.0021256986       27.1723723078
 Au         0.0008199737        2.9571256865       27.1721920818
 Au         0.0008755308        5.9131256745       27.1720117949
 Au         2.9567644331        0.0020701343       27.1723144221
 Au         2.9568199715        2.9570701223       27.1721341961
 Au         2.9568755286        5.9130701103       27.1719539091
 Au         5.9127644309        0.0020145701       27.1722565364
 Au         5.9128199693        2.9570145581       27.1720763104
 Au         5.9128755265        5.9130145460       27.1718960234
 Au         8.6707644289        0.0019627277       27.1722025279
 Au         8.6708199673        2.9569627157       27.1720223020
 Au         8.6708755244        5.9129627036       27.1718420150
 Au        11.6267644267        0.0019071635       27.1721446422
 Au        11.6268199651        2.9569071514       27.1719644162
 Au        11.6268755223        5.9129071394       27.1717841292
 Au         1.4788331449        1.4802253784       29.2622532129
 Au         1.4788886833        4.4352253663       29.2620729869
 Au         1.4789442404        7.3912253543       29.2618926999
 Au         4.4348331427        1.4801698141       29.2621953272
 Au         4.4348886811        4.4351698021       29.2620151012
 Au         4.4349442383        7.3911697901       29.2618348142
 Au         7.1928331407        1.4801179717       29.2621413188
 Au         7.1928886791        4.4351179597       29.2619610928
 Au         7.1929442362        7.3911179477       29.2617808058
 Au        10.1488331385        1.4800624075       29.2620834330
 Au        10.1488886769        4.4350623955       29.2619032070
 Au        10.1489442340        7.3910623834       29.2617229201
 Au        13.1048331363        1.4800068433       29.2620255473
 Au        13.1048886747        4.4350068312       29.2618453213
 Au        13.1049442319        7.3910068192       29.2616650343
 Au         0.0008462995        0.0023806344       31.3523722907
 Au         0.0009018379        2.9573806224       31.3521920647
 Au         0.0009573951        5.9133806104       31.3520117777
 Au         2.9568462974        0.0023250702       31.3523144049
 Au         2.9569018357        2.9573250582       31.3521341790
 Au         2.9569573929        5.9133250461       31.3519538920
 Au         5.9128462952        0.0022695060       31.3522565192
 Au         5.9129018335        2.9572694939       31.3520762932
 Au         5.9129573907        5.9132694819       31.3518960062
 Au         8.6708462931        0.0022176636       31.3522025108
 Au         8.6709018315        2.9572176515       31.3520222848
 Au         8.6709573887        5.9132176395       31.3518419978
 Au        11.6268462910        0.0021620994       31.3521446251
 Au        11.6269018293        2.9571620873       31.3519643991
 Au        11.6269573865        5.9131620753       31.3517841121
 Au         1.4789150091        1.4804803142       33.4422531957
 Au         1.4789705475        4.4354803022       33.4420729698
 Au         1.4790261047        7.3914802902       33.4418926828
 Au         4.4349150070        1.4804247500       33.4421953100
 Au         4.4349705453        4.4354247380       33.4420150840
 Au         4.4350261025        7.3914247259       33.4418347970
 Au         7.1929150049        1.4803729076       33.4421413016
 Au         7.1929705433        4.4353728956       33.4419610756
 Au         7.1930261005        7.3913728835       33.4417807886
 Au        10.1489150028        1.4803173434       33.4420834159
 Au        10.1489705411        4.4353173314       33.4419031899
 Au        10.1490260983        7.3913173193       33.4417229029
 Au        13.1049150006        1.4802617792       33.4420255301
 Au        13.1049705389        4.4352617671       33.4418453041
 Au        13.1050260961        7.3912617551       33.4416650172
     183
 i =       1, E =    -5729.7388492842
 Au         0.0002365263        0.0004770609        0.0003792299
 Au         0.0002930803        2.9554770486        0.0001957081
 Au         0.0003496535        5.9114770363        0.0000121241
 Au         2.9562365241        0.0004204805        0.0003202856
 Au         2.9562930781        2.9554204683        0.0001367637
 Au         2.9563496513        5.9114204560       -0.0000468202
 Au         5.9122365219        0.0003639002        0.0002613413
 Au         5.9122930759        2.9553638879        0.0000778194
 Au         5.9123496491        5.9113638756       -0.0001057645
 Au         8.6702365198        0.0003111097        0.0002063452
 Au         8.6702930738        2.9553110974        0.0000228233
 Au         8.6703496470        5.9113110852       -0.0001607606
 Au        11.6262365176        0.0002545293        0.0001474009
 Au        11.6262930716        2.9552545171       -0.0000361210
 Au        11.6263496448        5.9112545048       -0.0002197049
 Au         1.4783064924        1.4785785636        2.0902579570
 Au         1.4783630465        4.4335785513        2.0900744352
 Au         1.4784196196        7.3895785390        2.0898908512
 Au         4.4343064902        1.4785219832        2.0901990127
 Au         4.4343630443        4.4335219710        2.0900154909
 Au         4.4344196174        7.3895219587        2.0898319069
 Au         7.1923064882        1.4784691927        2.0901440166
 Au         7.1923630422        4.4334691805        2.0899604948
 Au         7.1924196153        7.3894691682        2.0897769108
 Au        10.1483064859        1.4784126124        2.0900850723
 Au        10.1483630400        4.4334126001        2.0899015505
 Au        10.1484196131        7.3894125879        2.0897179665
 Au        13.1043064837        1.4783560320        2.0900261280
 Au        13.1043630377        4.4333560198        2.0898426062
 Au        13.1044196109        7.3893560075        2.0896590222
 Au         0.0003198876        0.0007366589        4.1803792124
 Au         0.0003764417        2.9557366466        4.1801956906
 Au         0.0004330148        5.9117366344        4.1800121066
 Au         2.9563198854        0.0006800785        4.1803202681
 Au         2.9563764394        2.9556800663        4.1801367463
 Au         2.9564330126        5.9116800540        4.1799531623
 Au         5.9123198832        0.0006234982        4.1802613238
 Au         5.9123764372        2.9556234859        4.1800778020
 Au         5.9124330104        5.9116234736        4.1798942180
 Au         8.6703198811        0.0005707077        4.1802063277
 Au         8.6703764352        2.9555706954        4.1800228059
 Au         8.6704330083        5.9115706832        4.1798392219
 Au        11.6263198789        0.0005141273        4.1801473834
 Au        11.6263764329        2.9555141151        4.1799638616
 Au        11.6264330061        5.9115141028        4.1797802776
 Au         1.4783898538        1.4788381616        6.2702579396
 Au         1.4784464078        4.4338381493        6.2700744177
 Au         1.4785029810        7.3898381370        6.2698908338
 Au         4.4343898516        1.4787815812        6.2701989953
 Au         4.4344464056        4.4337815690        6.2700154734
 Au         4.4345029787        7.3897815567        6.2698318894
 Au         7.1923898495        1.4787287907        6.2701439992
 Au         7.1924464035        4.4337287785        6.2699604773
 Au         7.1925029767        7.3897287662        6.2697768934
 Au        10.1483898473        1.4786722104        6.2700850549
 Au        10.1484464013        4.4336721981        6.2699015330
 Au        10.1485029745        7.3896721859        6.2697179490
 Au        13.1043898451        1.4786156300        6.2700261105
 Au        13.1044463991        4.4336156178        6.2698425887
 Au        13.1045029722        7.3896156055        6.2696590047
 Au         0.0004032490        0.0009962569        8.3603791950
 Au         0.0004598030        2.9559962446        8.3601956731
 Au         0.0005163762        5.9119962324        8.3600120892
 Au         2.9564032467        0.0009396765        8.3603202507
 Au         2.9564598008        2.9559396643        8.3601367288
 Au         2.9565163739        5.9119396520        8.3599531448
 Au         5.9124032445        0.0008830962        8.3602613063
 Au         5.9124597986        2.9558830839        8.3600777845
 Au         5.9125163717        5.9118830716        8.3598942005
 Au         8.6704032425        0.0008303057        8.3602063103
 Au         8.6704597965        2.9558302934        8.3600227884
 Au         8.6705163696        5.9118302812        8.3598392044
 Au        11.6264032402        0.0007737253        8.3601473659
 Au        11.6264597943        2.9557737131        8.3599638441
 Au        11.6265163674        5.9117737008        8.3597802601
 Au         1.4784732151        1.4790977596       10.4502579221
 Au         1.4785297691        4.4340977473       10.4500744003
 Au         1.4785863423        7.3900977350       10.4498908163
 Au         4.4344732129        1.4790411792       10.4501989778
 Au         4.4345297669        4.4340411670       10.4500154559
 Au         4.4345863401        7.3900411547       10.4498318720
 Au         7.1924732108        1.4789883887       10.4501439817
 Au         7.1925297648        4.4339883765       10.4499604599
 Au         7.1925863380        7.3899883642       10.4497768759
 Au        10.1484732086        1.4789318084       10.4500850374
 Au        10.1485297626        4.4339317961       10.4499015155
 Au        10.1485863358        7.3899317839       10.4497179316
 Au        13.1044732064        1.4788752280       10.4500260931
 Au        13.1045297604        4.4338752158       10.4498425712
 Au        13.1045863336        7.3898752035       10.4496589873
  N         4.8557859454        5.9125731230       12.0318170911
  N         9.5285896775        5.9143856307       12.0338219559
  N         7.1925902008        5.9350871169       12.0398672328
  H        10.3343977857        5.9170690969       12.6637778533
  H         4.0610237453        5.9123582767       12.6774773283
  C         8.3732691609        5.9265092926       12.7245278348
  C         5.9994971277        5.9265320544       12.7812315022
  N         8.3126250173        5.9341542452       14.0750023408
  N         5.9303455853        5.9353801441       14.0946086806
  H         9.1614455114        5.9078102136       14.6398232102
  C         7.0851455948        5.9443188470       14.8392079192
  N         7.3099171289        5.8183492954       15.9839506105
  H         6.6964277459        6.3795781862       16.7611121937
 Au         7.2516725020        5.9356462463       21.0428671952
 Au         5.8642379195        7.3125790067       22.9918145822
 Au         8.7409723568        4.4357390045       22.9919308732
 Au         5.8641851166        4.4347917950       22.9919859314
 Au         8.7410251405        7.3125262162       22.9917595861
 Au         1.4787650196        1.4800064768       25.0822578610
 Au         1.4788215737        4.4350064645       25.0820743391
 Au         1.4788781468        7.3910064523       25.0818907552
 Au         4.4347650174        1.4799498964       25.0821989167
 Au         4.4348215714        4.4349498842       25.0820153948
 Au         4.4348781446        7.3909498719       25.0818318108
 Au         7.1927650154        1.4798971060       25.0821439206
 Au         7.1928215694        4.4348970937       25.0819603987
 Au         7.1928781425        7.3908970814       25.0817768148
 Au        10.1487650131        1.4798405256       25.0820849763
 Au        10.1488215672        4.4348405134       25.0819014544
 Au        10.1488781403        7.3908405011       25.0817178704
 Au        13.1047650109        1.4797839453       25.0820260319
 Au        13.1048215649        4.4347839330       25.0818425101
 Au        13.1048781381        7.3907839207       25.0816589261
 Au         0.0007784148        0.0021645721       27.1723791164
 Au         0.0008349689        2.9571645598       27.1721955945
 Au         0.0008915420        5.9131645476       27.1720120106
 Au         2.9567784126        0.0021079917       27.1723201721
 Au         2.9568349666        2.9571079795       27.1721366502
 Au         2.9568915398        5.9131079672       27.1719530662
 Au         5.9127784104        0.0020514114       27.1722612277
 Au         5.9128349644        2.9570513991       27.1720777059
 Au         5.9128915376        5.9130513869       27.1718941219
 Au         8.6707784083        0.0019986209       27.1722062317
 Au         8.6708349623        2.9569986087       27.1720227098
 Au         8.6708915355        5.9129985964       27.1718391258
 Au        11.6267784061        0.0019420406       27.1721472873
 Au        11.6268349601        2.9569420283       27.1719637655
 Au        11.6268915333        5.9129420160       27.1717801815
 Au         1.4788483810        1.4802660748       29.2622578435
 Au         1.4789049350        4.4352660625       29.2620743217
 Au         1.4789615082        7.3912660503       29.2618907377
 Au         4.4348483787        1.4802094944       29.2621988992
 Au         4.4349049328        4.4352094822       29.2620153773
 Au         4.4349615059        7.3912094699       29.2618317934
 Au         7.1928483767        1.4801567040       29.2621439031
 Au         7.1929049307        4.4351566917       29.2619603813
 Au         7.1929615039        7.3911566794       29.2617767973
 Au        10.1488483745        1.4801001236       29.2620849588
 Au        10.1489049285        4.4351001114       29.2619014369
 Au        10.1489615016        7.3911000991       29.2617178530
 Au        13.1048483722        1.4800435433       29.2620260145
 Au        13.1049049263        4.4350435310       29.2618424926
 Au        13.1049614994        7.3910435187       29.2616589087
 Au         0.0008617762        0.0024241701       31.3523790989
 Au         0.0009183302        2.9574241578       31.3521955771
 Au         0.0009749033        5.9134241456       31.3520119931
 Au         2.9568617739        0.0023675897       31.3523201546
 Au         2.9569183280        2.9573675775       31.3521366327
 Au         2.9569749011        5.9133675652       31.3519530488
 Au         5.9128617717        0.0023110094       31.3522612103
 Au         5.9129183257        2.9573109971       31.3520776884
 Au         5.9129748989        5.9133109849       31.3518941045
 Au         8.6708617697        0.0022582189       31.3522062142
 Au         8.6709183237        2.9572582067       31.3520226923
 Au         8.6709748968        5.9132581944       31.3518391084
 Au        11.6268617674        0.0022016386       31.3521472699
 Au        11.6269183215        2.9572016263       31.3519637480
 Au        11.6269748946        5.9132016140       31.3517801641
 Au         1.4789317423        1.4805256728       33.4422578260
 Au         1.4789882963        4.4355256605       33.4420743042
 Au         1.4790448695        7.3915256483       33.4418907202
 Au         4.4349317401        1.4804690924       33.4421988817
 Au         4.4349882941        4.4354690802       33.4420153599
 Au         4.4350448673        7.3914690679       33.4418317759
 Au         7.1929317380        1.4804163020       33.4421438856
 Au         7.1929882920        4.4354162897       33.4419603638
 Au         7.1930448652        7.3914162774       33.4417767798
 Au        10.1489317358        1.4803597216       33.4420849413
 Au        10.1489882898        4.4353597094       33.4419014195
 Au        10.1490448630        7.3913596971       33.4417178355
 Au        13.1049317336        1.4803031413       33.4420259970
 Au        13.1049882876        4.4353031290       33.4418424752
 Au        13.1050448608        7.3913031167       33.4416588912
     183
 i =       2, E =    -5729.7650816643
 Au         0.0002318812        0.0004676918        0.0003717818
 Au         0.0002873245        2.9554676798        0.0001918643
 Au         0.0003427865        5.9114676677        0.0000118859
 Au         2.9562318790        0.0004122227        0.0003139952
 Au         2.9562873223        2.9554122107        0.0001340776
 Au         2.9563427843        5.9114121986       -0.0000459008
 Au         5.9122318768        0.0003567536        0.0002562085
 Au         5.9122873201        2.9553567416        0.0000762910
 Au         5.9123427822        5.9113567295       -0.0001036874
 Au         8.6702318748        0.0003049999        0.0002022925
 Au         8.6702873181        2.9553049879        0.0000223750
 Au         8.6703427801        5.9113049759       -0.0001576034
 Au        11.6262318726        0.0002495308        0.0001445059
 Au        11.6262873159        2.9552495188       -0.0000354116
 Au        11.6263427780        5.9112495068       -0.0002153900
 Au         1.4783004732        1.4785672010        2.0902528907
 Au         1.4783559165        4.4335671890        2.0900729732
 Au         1.4784113785        7.3895671770        2.0898929948
 Au         4.4343004710        1.4785117319        2.0901951041
 Au         4.4343559143        4.4335117199        2.0900151866
 Au         4.4344113763        7.3895117079        2.0898352081
 Au         7.1923004690        1.4784599782        2.0901411881
 Au         7.1923559123        4.4334599662        2.0899612706
 Au         7.1924113743        7.3894599542        2.0897812922
 Au        10.1483004668        1.4784045091        2.0900834014
 Au        10.1483559101        4.4334044971        2.0899034839
 Au        10.1484113721        7.3894044851        2.0897235055
 Au        13.1043004646        1.4783490400        2.0900256148
 Au        13.1043559079        4.4333490280        2.0898456973
 Au        13.1044113700        7.3893490160        2.0896657189
 Au         0.0003136053        0.0007221913        4.1803717647
 Au         0.0003690486        2.9557221793        4.1801918472
 Au         0.0004245106        5.9117221673        4.1800118688
 Au         2.9563136031        0.0006667222        4.1803139780
 Au         2.9563690464        2.9556667102        4.1801340605
 Au         2.9564245085        5.9116666982        4.1799540821
 Au         5.9123136010        0.0006112531        4.1802561914
 Au         5.9123690442        2.9556112411        4.1800762739
 Au         5.9124245063        5.9116112291        4.1798962955
 Au         8.6703135989        0.0005594995        4.1802022754
 Au         8.6703690422        2.9555594875        4.1800223579
 Au         8.6704245043        5.9115594754        4.1798423795
 Au        11.6263135968        0.0005040304        4.1801444888
 Au        11.6263690400        2.9555040184        4.1799645712
 Au        11.6264245021        5.9115040063        4.1797845928
 Au         1.4783821973        1.4788217005        6.2702528736
 Au         1.4784376406        4.4338216885        6.2700729561
 Au         1.4784931026        7.3898216765        6.2698929777
 Au         4.4343821951        1.4787662314        6.2701950869
 Au         4.4344376384        4.4337662194        6.2700151694
 Au         4.4344931005        7.3897662074        6.2698351910
 Au         7.1923821931        1.4787144778        6.2701411710
 Au         7.1924376364        4.4337144658        6.2699612535
 Au         7.1924930984        7.3897144538        6.2697812751
 Au        10.1483821909        1.4786590087        6.2700833843
 Au        10.1484376342        4.4336589967        6.2699034668
 Au        10.1484930963        7.3896589847        6.2697234884
 Au        13.1043821888        1.4786035396        6.2700255977
 Au        13.1044376320        4.4336035276        6.2698456801
 Au        13.1044930941        7.3896035156        6.2696657017
 Au         0.0003953294        0.0009766909        8.3603717476
 Au         0.0004507727        2.9559766789        8.3601918301
 Au         0.0005062348        5.9119766668        8.3600118517
 Au         2.9563953273        0.0009212218        8.3603139609
 Au         2.9564507705        2.9559212098        8.3601340434
 Au         2.9565062326        5.9119211977        8.3599540650
 Au         5.9123953251        0.0008657527        8.3602561743
 Au         5.9124507684        2.9558657407        8.3600762567
 Au         5.9125062304        5.9118657286        8.3598962783
 Au         8.6703953231        0.0008139990        8.3602022583
 Au         8.6704507663        2.9558139870        8.3600223408
 Au         8.6705062284        5.9118139750        8.3598423624
 Au        11.6263953209        0.0007585299        8.3601444716
 Au        11.6264507642        2.9557585179        8.3599645541
 Au        11.6265062262        5.9117585059        8.3597845757
 Au         1.4784639214        1.4790762001       10.4502528565
 Au         1.4785193647        4.4340761881       10.4500729390
 Au         1.4785748268        7.3900761760       10.4498929606
 Au         4.4344639193        1.4790207310       10.4501950698
 Au         4.4345193625        4.4340207190       10.4500151523
 Au         4.4345748246        7.3900207069       10.4498351739
 Au         7.1924639172        1.4789689773       10.4501411539
 Au         7.1925193605        4.4339689653       10.4499612363
 Au         7.1925748226        7.3899689533       10.4497812579
 Au        10.1484639151        1.4789135082       10.4500833672
 Au        10.1485193583        4.4339134962       10.4499034497
 Au        10.1485748204        7.3899134842       10.4497234713
 Au        13.1044639129        1.4788580391       10.4500255805
 Au        13.1045193562        4.4338580271       10.4498456630
 Au        13.1045748182        7.3898580151       10.4496656846
  N         4.8557783656        5.9125599033       12.0318167554
  N         9.5285780965        5.9143721654       12.0338254526
  N         7.1925786095        5.9350657665       12.0398698403