 # Version information for this restart file 
 # current date 2024-01-10 21:40:56.148
 # current working dir /gpfs/home/cahart/transport/melamine/au_from-h2/ci-neb/ts2/dft_leads-sz_tip-dzvp_surf-dzvp_kpoints-2-4-20_replicas-5
 # Program compiled at                              Thu 21 Sep 19:20:17 BST 2023
 # Program compiled on                                           hx1-c12-login-1
 # Program compiled for                                                    local
 # Source code revision number                                       git:5518aa6
 &GLOBAL
   EXTENDED_FFT_LENGTHS  T
   PRINT_LEVEL  MEDIUM
   PROJECT_NAME 2_dft_wfn-r-0
   OUTPUT_FILE_NAME 2_dft_wfn-r-0.out
   RUN_TYPE  BAND
 &END GLOBAL
 &MOTION
   &CONSTRAINT
     &FIXED_ATOMS
       LIST  1..93 104..183
     &END FIXED_ATOMS
   &END CONSTRAINT
   &BAND
     NPROC_REP  64
     BAND_TYPE  CI-NEB
     NUMBER_OF_REPLICA  5
     K_SPRING     5.0000000000000003E-02
     &CI_NEB
       NSTEPS_IT  5
     &END CI_NEB
     &OPTIMIZE_BAND
       OPT_TYPE  DIIS
       &DIIS
         MAX_STEPS  1000
       &END DIIS
     &END OPTIMIZE_BAND
     &REPLICA
       &COORD
             0.0000000000000000E+00    0.0000000000000000E+00    0.0000000000000000E+00
             0.0000000000000000E+00    2.9550000000000045E+00    0.0000000000000000E+00
             0.0000000000000000E+00    5.9110000000000040E+00    0.0000000000000000E+00
             2.9560000000000053E+00    0.0000000000000000E+00    0.0000000000000000E+00
             2.9560000000000053E+00    2.9550000000000045E+00    0.0000000000000000E+00
             2.9560000000000053E+00    5.9110000000000040E+00    0.0000000000000000E+00
             5.9120000000000106E+00    0.0000000000000000E+00    0.0000000000000000E+00
             5.9120000000000106E+00    2.9550000000000045E+00    0.0000000000000000E+00
             5.9120000000000106E+00    5.9110000000000040E+00    0.0000000000000000E+00
             8.6700000000000106E+00    0.0000000000000000E+00    0.0000000000000000E+00
             8.6700000000000106E+00    2.9550000000000045E+00    0.0000000000000000E+00
             8.6700000000000106E+00    5.9110000000000040E+00    0.0000000000000000E+00
             1.1626000000000014E+01    0.0000000000000000E+00    0.0000000000000000E+00
             1.1626000000000014E+01    2.9550000000000045E+00    0.0000000000000000E+00
             1.1626000000000014E+01    5.9110000000000040E+00    0.0000000000000000E+00
             1.4780000000000026E+00    1.4780000000000026E+00    2.0900000000000025E+00
             1.4780000000000026E+00    4.4330000000000052E+00    2.0900000000000025E+00
             1.4780000000000026E+00    7.3890000000000082E+00    2.0900000000000025E+00
             4.4340000000000055E+00    1.4780000000000026E+00    2.0900000000000025E+00
             4.4340000000000055E+00    4.4330000000000052E+00    2.0900000000000025E+00
             4.4340000000000055E+00    7.3890000000000082E+00    2.0900000000000025E+00
             7.1920000000000073E+00    1.4780000000000026E+00    2.0900000000000025E+00
             7.1920000000000073E+00    4.4330000000000052E+00    2.0900000000000025E+00
             7.1920000000000073E+00    7.3890000000000082E+00    2.0900000000000025E+00
             1.0148000000000012E+01    1.4780000000000026E+00    2.0900000000000025E+00
             1.0148000000000012E+01    4.4330000000000052E+00    2.0900000000000025E+00
             1.0148000000000012E+01    7.3890000000000082E+00    2.0900000000000025E+00
             1.3104000000000017E+01    1.4780000000000026E+00    2.0900000000000025E+00
             1.3104000000000017E+01    4.4330000000000052E+00    2.0900000000000025E+00
             1.3104000000000017E+01    7.3890000000000082E+00    2.0900000000000025E+00
             0.0000000000000000E+00    0.0000000000000000E+00    4.1800000000000050E+00
             0.0000000000000000E+00    2.9550000000000045E+00    4.1800000000000050E+00
             0.0000000000000000E+00    5.9110000000000040E+00    4.1800000000000050E+00
             2.9560000000000053E+00    0.0000000000000000E+00    4.1800000000000050E+00
             2.9560000000000053E+00    2.9550000000000045E+00    4.1800000000000050E+00
             2.9560000000000053E+00    5.9110000000000040E+00    4.1800000000000050E+00
             5.9120000000000106E+00    0.0000000000000000E+00    4.1800000000000050E+00
             5.9120000000000106E+00    2.9550000000000045E+00    4.1800000000000050E+00
             5.9120000000000106E+00    5.9110000000000040E+00    4.1800000000000050E+00
             8.6700000000000106E+00    0.0000000000000000E+00    4.1800000000000050E+00
             8.6700000000000106E+00    2.9550000000000045E+00    4.1800000000000050E+00
             8.6700000000000106E+00    5.9110000000000040E+00    4.1800000000000050E+00
             1.1626000000000014E+01    0.0000000000000000E+00    4.1800000000000050E+00
             1.1626000000000014E+01    2.9550000000000045E+00    4.1800000000000050E+00
             1.1626000000000014E+01    5.9110000000000040E+00    4.1800000000000050E+00
             1.4780000000000026E+00    1.4780000000000026E+00    6.2700000000000076E+00
             1.4780000000000026E+00    4.4330000000000052E+00    6.2700000000000076E+00
             1.4780000000000026E+00    7.3890000000000082E+00    6.2700000000000076E+00
             4.4340000000000055E+00    1.4780000000000026E+00    6.2700000000000076E+00
             4.4340000000000055E+00    4.4330000000000052E+00    6.2700000000000076E+00
             4.4340000000000055E+00    7.3890000000000082E+00    6.2700000000000076E+00
             7.1920000000000073E+00    1.4780000000000026E+00    6.2700000000000076E+00
             7.1920000000000073E+00    4.4330000000000052E+00    6.2700000000000076E+00
             7.1920000000000073E+00    7.3890000000000082E+00    6.2700000000000076E+00
             1.0148000000000012E+01    1.4780000000000026E+00    6.2700000000000076E+00
             1.0148000000000012E+01    4.4330000000000052E+00    6.2700000000000076E+00
             1.0148000000000012E+01    7.3890000000000082E+00    6.2700000000000076E+00
             1.3104000000000017E+01    1.4780000000000026E+00    6.2700000000000076E+00
             1.3104000000000017E+01    4.4330000000000052E+00    6.2700000000000076E+00
             1.3104000000000017E+01    7.3890000000000082E+00    6.2700000000000076E+00
             0.0000000000000000E+00    0.0000000000000000E+00    8.3600000000000101E+00
             0.0000000000000000E+00    2.9550000000000045E+00    8.3600000000000101E+00
             0.0000000000000000E+00    5.9110000000000040E+00    8.3600000000000101E+00
             2.9560000000000053E+00    0.0000000000000000E+00    8.3600000000000101E+00
             2.9560000000000053E+00    2.9550000000000045E+00    8.3600000000000101E+00
             2.9560000000000053E+00    5.9110000000000040E+00    8.3600000000000101E+00
             5.9120000000000106E+00    0.0000000000000000E+00    8.3600000000000101E+00
             5.9120000000000106E+00    2.9550000000000045E+00    8.3600000000000101E+00
             5.9120000000000106E+00    5.9110000000000040E+00    8.3600000000000101E+00
             8.6700000000000106E+00    0.0000000000000000E+00    8.3600000000000101E+00
             8.6700000000000106E+00    2.9550000000000045E+00    8.3600000000000101E+00
             8.6700000000000106E+00    5.9110000000000040E+00    8.3600000000000101E+00
             1.1626000000000014E+01    0.0000000000000000E+00    8.3600000000000101E+00
             1.1626000000000014E+01    2.9550000000000045E+00    8.3600000000000101E+00
             1.1626000000000014E+01    5.9110000000000040E+00    8.3600000000000101E+00
             1.4780000000000026E+00    1.4780000000000026E+00    1.0450000000000008E+01
             1.4780000000000026E+00    4.4330000000000052E+00    1.0450000000000008E+01
             1.4780000000000026E+00    7.3890000000000082E+00    1.0450000000000008E+01
             4.4340000000000055E+00    1.4780000000000026E+00    1.0450000000000008E+01
             4.4340000000000055E+00    4.4330000000000052E+00    1.0450000000000008E+01
             4.4340000000000055E+00    7.3890000000000082E+00    1.0450000000000008E+01
             7.1920000000000073E+00    1.4780000000000026E+00    1.0450000000000008E+01
             7.1920000000000073E+00    4.4330000000000052E+00    1.0450000000000008E+01
             7.1920000000000073E+00    7.3890000000000082E+00    1.0450000000000008E+01
             1.0148000000000012E+01    1.4780000000000026E+00    1.0450000000000008E+01
             1.0148000000000012E+01    4.4330000000000052E+00    1.0450000000000008E+01
             1.0148000000000012E+01    7.3890000000000082E+00    1.0450000000000008E+01
             1.3104000000000017E+01    1.4780000000000026E+00    1.0450000000000008E+01
             1.3104000000000017E+01    4.4330000000000052E+00    1.0450000000000008E+01
             1.3104000000000017E+01    7.3890000000000082E+00    1.0450000000000008E+01
             4.8554000000000057E+00    5.9119000000000046E+00    1.2031800000000011E+01
             9.5280000000000111E+00    5.9137000000000084E+00    1.2034000000000013E+01
             7.1920000000000073E+00    5.9340000000000073E+00    1.2040000000000010E+01
             1.0318905404800015E+01    5.9087793826000068E+00    1.2685747073200018E+01
             4.0673339928000045E+00    5.9059993220000075E+00    1.2687741368900012E+01
             8.3738707293000090E+00    5.9179777707000092E+00    1.2731457252200009E+01
             5.9989554222000052E+00    5.9152564166000072E+00    1.2792642411200015E+01
             8.3227525762000099E+00    5.9051536095000081E+00    1.4080497642100022E+01
             5.9344285049000094E+00    5.8981604865000090E+00    1.4101749969600016E+01
             9.1743570613000092E+00    5.8876302392000071E+00    1.4641017735300016E+01
             7.1039653577000088E+00    5.8899410689000069E+00    1.4828703219100015E+01
             7.2416021047000081E+00    5.8657702092000061E+00    1.6106466757300026E+01
             6.3118250323000078E+00    5.8547577071000063E+00    1.6539601306200023E+01
             7.3120000000000074E+00    5.9340000000000073E+00    2.1043000000000013E+01
             5.8130000000000068E+00    7.4340000000000108E+00    2.2992000000000026E+01
             8.8130000000000113E+00    4.4340000000000055E+00    2.2992000000000026E+01
             5.8130000000000068E+00    4.4330000000000052E+00    2.2992000000000026E+01
             8.8130000000000113E+00    7.4340000000000108E+00    2.2992000000000026E+01
             1.4780000000000026E+00    1.4780000000000026E+00    2.5082000000000029E+01
             1.4780000000000026E+00    4.4330000000000052E+00    2.5082000000000029E+01
             1.4780000000000026E+00    7.3890000000000082E+00    2.5082000000000029E+01
             4.4340000000000055E+00    1.4780000000000026E+00    2.5082000000000029E+01
             4.4340000000000055E+00    4.4330000000000052E+00    2.5082000000000029E+01
             4.4340000000000055E+00    7.3890000000000082E+00    2.5082000000000029E+01
             7.1920000000000073E+00    1.4780000000000026E+00    2.5082000000000029E+01
             7.1920000000000073E+00    4.4330000000000052E+00    2.5082000000000029E+01
             7.1920000000000073E+00    7.3890000000000082E+00    2.5082000000000029E+01
             1.0148000000000012E+01    1.4780000000000026E+00    2.5082000000000029E+01
             1.0148000000000012E+01    4.4330000000000052E+00    2.5082000000000029E+01
             1.0148000000000012E+01    7.3890000000000082E+00    2.5082000000000029E+01
             1.3104000000000017E+01    1.4780000000000026E+00    2.5082000000000029E+01
             1.3104000000000017E+01    4.4330000000000052E+00    2.5082000000000029E+01
             1.3104000000000017E+01    7.3890000000000082E+00    2.5082000000000029E+01
             0.0000000000000000E+00    0.0000000000000000E+00    2.7172000000000036E+01
             0.0000000000000000E+00    2.9550000000000045E+00    2.7172000000000036E+01
             0.0000000000000000E+00    5.9110000000000040E+00    2.7172000000000036E+01
             2.9560000000000053E+00    0.0000000000000000E+00    2.7172000000000036E+01
             2.9560000000000053E+00    2.9550000000000045E+00    2.7172000000000036E+01
             2.9560000000000053E+00    5.9110000000000040E+00    2.7172000000000036E+01
             5.9120000000000106E+00    0.0000000000000000E+00    2.7172000000000036E+01
             5.9120000000000106E+00    2.9550000000000045E+00    2.7172000000000036E+01
             5.9120000000000106E+00    5.9110000000000040E+00    2.7172000000000036E+01
             8.6700000000000106E+00    0.0000000000000000E+00    2.7172000000000036E+01
             8.6700000000000106E+00    2.9550000000000045E+00    2.7172000000000036E+01
             8.6700000000000106E+00    5.9110000000000040E+00    2.7172000000000036E+01
             1.1626000000000014E+01    0.0000000000000000E+00    2.7172000000000036E+01
             1.1626000000000014E+01    2.9550000000000045E+00    2.7172000000000036E+01
             1.1626000000000014E+01    5.9110000000000040E+00    2.7172000000000036E+01
             1.4780000000000026E+00    1.4780000000000026E+00    2.9262000000000043E+01
             1.4780000000000026E+00    4.4330000000000052E+00    2.9262000000000043E+01
             1.4780000000000026E+00    7.3890000000000082E+00    2.9262000000000043E+01
             4.4340000000000055E+00    1.4780000000000026E+00    2.9262000000000043E+01
             4.4340000000000055E+00    4.4330000000000052E+00    2.9262000000000043E+01
             4.4340000000000055E+00    7.3890000000000082E+00    2.9262000000000043E+01
             7.1920000000000073E+00    1.4780000000000026E+00    2.9262000000000043E+01
             7.1920000000000073E+00    4.4330000000000052E+00    2.9262000000000043E+01
             7.1920000000000073E+00    7.3890000000000082E+00    2.9262000000000043E+01
             1.0148000000000012E+01    1.4780000000000026E+00    2.9262000000000043E+01
             1.0148000000000012E+01    4.4330000000000052E+00    2.9262000000000043E+01
             1.0148000000000012E+01    7.3890000000000082E+00    2.9262000000000043E+01
             1.3104000000000017E+01    1.4780000000000026E+00    2.9262000000000043E+01
             1.3104000000000017E+01    4.4330000000000052E+00    2.9262000000000043E+01
             1.3104000000000017E+01    7.3890000000000082E+00    2.9262000000000043E+01
             0.0000000000000000E+00    0.0000000000000000E+00    3.1352000000000029E+01
             0.0000000000000000E+00    2.9550000000000045E+00    3.1352000000000029E+01
             0.0000000000000000E+00    5.9110000000000040E+00    3.1352000000000029E+01
             2.9560000000000053E+00    0.0000000000000000E+00    3.1352000000000029E+01
             2.9560000000000053E+00    2.9550000000000045E+00    3.1352000000000029E+01
             2.9560000000000053E+00    5.9110000000000040E+00    3.1352000000000029E+01
             5.9120000000000106E+00    0.0000000000000000E+00    3.1352000000000029E+01
             5.9120000000000106E+00    2.9550000000000045E+00    3.1352000000000029E+01
             5.9120000000000106E+00    5.9110000000000040E+00    3.1352000000000029E+01
             8.6700000000000106E+00    0.0000000000000000E+00    3.1352000000000029E+01
             8.6700000000000106E+00    2.9550000000000045E+00    3.1352000000000029E+01
             8.6700000000000106E+00    5.9110000000000040E+00    3.1352000000000029E+01
             1.1626000000000014E+01    0.0000000000000000E+00    3.1352000000000029E+01
             1.1626000000000014E+01    2.9550000000000045E+00    3.1352000000000029E+01
             1.1626000000000014E+01    5.9110000000000040E+00    3.1352000000000029E+01
             1.4780000000000026E+00    1.4780000000000026E+00    3.3442000000000043E+01
             1.4780000000000026E+00    4.4330000000000052E+00    3.3442000000000043E+01
             1.4780000000000026E+00    7.3890000000000082E+00    3.3442000000000043E+01
             4.4340000000000055E+00    1.4780000000000026E+00    3.3442000000000043E+01
             4.4340000000000055E+00    4.4330000000000052E+00    3.3442000000000043E+01
             4.4340000000000055E+00    7.3890000000000082E+00    3.3442000000000043E+01
             7.1920000000000073E+00    1.4780000000000026E+00    3.3442000000000043E+01
             7.1920000000000073E+00    4.4330000000000052E+00    3.3442000000000043E+01
             7.1920000000000073E+00    7.3890000000000082E+00    3.3442000000000043E+01
             1.0148000000000012E+01    1.4780000000000026E+00    3.3442000000000043E+01
             1.0148000000000012E+01    4.4330000000000052E+00    3.3442000000000043E+01
             1.0148000000000012E+01    7.3890000000000082E+00    3.3442000000000043E+01
             1.3104000000000017E+01    1.4780000000000026E+00    3.3442000000000043E+01
             1.3104000000000017E+01    4.4330000000000052E+00    3.3442000000000043E+01
             1.3104000000000017E+01    7.3890000000000082E+00    3.3442000000000043E+01
       &END COORD
       &VELOCITY
             0.0000000000000000E+00    0.0000000000000000E+00    0.0000000000000000E+00
             0.0000000000000000E+00    0.0000000000000000E+00    0.0000000000000000E+00
             0.0000000000000000E+00    0.0000000000000000E+00    0.0000000000000000E+00
             0.0000000000000000E+00    0.0000000000000000E+00    0.0000000000000000E+00
             0.0000000000000000E+00    0.0000000000000000E+00    0.0000000000000000E+00
             0.0000000000000000E+00    0.0000000000000000E+00    0.0000000000000000E+00
             0.0000000000000000E+00    0.0000000000000000E+00    0.0000000000000000E+00
             0.0000000000000000E+00    0.0000000000000000E+00    0.0000000000000000E+00
             0.0000000000000000E+00    0.0000000000000000E+00    0.0000000000000000E+00
             0.0000000000000000E+00    0.0000000000000000E+00    0.0000000000000000E+00
             0.0000000000000000E+00    0.0000000000000000E+00    0.0000000000000000E+00
             0.0000000000000000E+00    0.0000000000000000E+00    0.0000000000000000E+00
             0.0000000000000000E+00    0.0000000000000000E+00    0.0000000000000000E+00
             0.0000000000000000E+00    0.0000000000000000E+00    0.0000000000000000E+00
             0.0000000000000000E+00    0.0000000000000000E+00    0.0000000000000000E+00
             0.0000000000000000E+00    0.0000000000000000E+00    0.0000000000000000E+00
             0.0000000000000000E+00    0.0000000000000000E+00    0.0000000000000000E+00
             0.0000000000000000E+00    0.0000000000000000E+00    0.0000000000000000E+00
             0.0000000000000000E+00    0.0000000000000000E+00    0.0000000000000000E+00
             0.0000000000000000E+00    0.0000000000000000E+00    0.0000000000000000E+00
             0.0000000000000000E+00    0.0000000000000000E+00    0.0000000000000000E+00
             0.0000000000000000E+00    0.0000000000000000E+00    0.0000000000000000E+00
             0.0000000000000000E+00    0.0000000000000000E+00    0.0000000000000000E+00
             0.0000000000000000E+00    0.0000000000000000E+00    0.0000000000000000E+00
             0.0000000000000000E+00    0.0000000000000000E+00    0.0000000000000000E+00
             0.0000000000000000E+00    0.0000000000000000E+00    0.0000000000000000E+00
             0.0000000000000000E+00    0.0000000000000000E+00    0.0000000000000000E+00
             0.0000000000000000E+00    0.0000000000000000E+00    0.0000000000000000E+00
             0.0000000000000000E+00    0.0000000000000000E+00    0.0000000000000000E+00
             0.0000000000000000E+00    0.0000000000000000E+00    0.0000000000000000E+00
             0.0000000000000000E+00    0.0000000000000000E+00    0.0000000000000000E+00
             0.0000000000000000E+00    0.0000000000000000E+00    0.0000000000000000E+00
             0.0000000000000000E+00    0.0000000000000000E+00    0.0000000000000000E+00
             0.0000000000000000E+00    0.0000000000000000E+00    0.0000000000000000E+00
             0.0000000000000000E+00    0.0000000000000000E+00    0.0000000000000000E+00
             0.0000000000000000E+00    0.0000000000000000E+00    0.0000000000000000E+00
             0.0000000000000000E+00    0.0000000000000000E+00    0.0000000000000000E+00
             0.0000000000000000E+00    0.0000000000000000E+00    0.0000000000000000E+00
             0.0000000000000000E+00    0.0000000000000000E+00    0.0000000000000000E+00
             0.0000000000000000E+00    0.0000000000000000E+00    0.0000000000000000E+00
             0.0000000000000000E+00    0.0000000000000000E+00    0.0000000000000000E+00
             0.0000000000000000E+00    0.0000000000000000E+00    0.0000000000000000E+00
             0.0000000000000000E+00    0.0000000000000000E+00    0.0000000000000000E+00
             0.0000000000000000E+00    0.0000000000000000E+00    0.0000000000000000E+00
             0.0000000000000000E+00    0.0000000000000000E+00    0.0000000000000000E+00
             0.0000000000000000E+00    0.0000000000000000E+00    0.0000000000000000E+00
             0.0000000000000000E+00    0.0000000000000000E+00    0.0000000000000000E+00
             0.0000000000000000E+00    0.0000000000000000E+00    0.0000000000000000E+00
             0.0000000000000000E+00    0.0000000000000000E+00    0.0000000000000000E+00
             0.0000000000000000E+00    0.0000000000000000E+00    0.0000000000000000E+00
             0.0000000000000000E+00    0.0000000000000000E+00    0.0000000000000000E+00
             0.0000000000000000E+00    0.0000000000000000E+00    0.0000000000000000E+00
             0.0000000000000000E+00    0.0000000000000000E+00    0.0000000000000000E+00
             0.0000000000000000E+00    0.0000000000000000E+00    0.0000000000000000E+00
             0.0000000000000000E+00    0.0000000000000000E+00    0.0000000000000000E+00
             0.0000000000000000E+00    0.0000000000000000E+00    0.0000000000000000E+00
             0.0000000000000000E+00    0.0000000000000000E+00    0.0000000000000000E+00
             0.0000000000000000E+00    0.0000000000000000E+00    0.0000000000000000E+00
             0.0000000000000000E+00    0.0000000000000000E+00    0.0000000000000000E+00
             0.0000000000000000E+00    0.0000000000000000E+00    0.0000000000000000E+00
             0.0000000000000000E+00    0.0000000000000000E+00    0.0000000000000000E+00
             0.0000000000000000E+00    0.0000000000000000E+00    0.0000000000000000E+00
             0.0000000000000000E+00    0.0000000000000000E+00    0.0000000000000000E+00
             0.0000000000000000E+00    0.0000000000000000E+00    0.0000000000000000E+00
             0.0000000000000000E+00    0.0000000000000000E+00    0.0000000000000000E+00
             0.0000000000000000E+00    0.0000000000000000E+00    0.0000000000000000E+00
             0.0000000000000000E+00    0.0000000000000000E+00    0.0000000000000000E+00
             0.0000000000000000E+00    0.0000000000000000E+00    0.0000000000000000E+00
             0.0000000000000000E+00    0.0000000000000000E+00    0.0000000000000000E+00
             0.0000000000000000E+00    0.0000000000000000E+00    0.0000000000000000E+00
             0.0000000000000000E+00    0.0000000000000000E+00    0.0000000000000000E+00
             0.0000000000000000E+00    0.0000000000000000E+00    0.0000000000000000E+00
             0.0000000000000000E+00    0.0000000000000000E+00    0.0000000000000000E+00
             0.0000000000000000E+00    0.0000000000000000E+00    0.0000000000000000E+00
             0.0000000000000000E+00    0.0000000000000000E+00    0.0000000000000000E+00
             0.0000000000000000E+00    0.0000000000000000E+00    0.0000000000000000E+00
             0.0000000000000000E+00    0.0000000000000000E+00    0.0000000000000000E+00
             0.0000000000000000E+00    0.0000000000000000E+00    0.0000000000000000E+00
             0.0000000000000000E+00    0.0000000000000000E+00    0.0000000000000000E+00
             0.0000000000000000E+00    0.0000000000000000E+00    0.0000000000000000E+00
             0.0000000000000000E+00    0.0000000000000000E+00    0.0000000000000000E+00
             0.0000000000000000E+00    0.0000000000000000E+00    0.0000000000000000E+00
             0.0000000000000000E+00    0.0000000000000000E+00    0.0000000000000000E+00
             0.0000000000000000E+00    0.0000000000000000E+00    0.0000000000000000E+00
             0.0000000000000000E+00    0.0000000000000000E+00    0.0000000000000000E+00
             0.0000000000000000E+00    0.0000000000000000E+00    0.0000000000000000E+00
             0.0000000000000000E+00    0.0000000000000000E+00    0.0000000000000000E+00
             0.0000000000000000E+00    0.0000000000000000E+00    0.0000000000000000E+00
             0.0000000000000000E+00    0.0000000000000000E+00    0.0000000000000000E+00
             0.0000000000000000E+00    0.0000000000000000E+00    0.0000000000000000E+00
             0.0000000000000000E+00    0.0000000000000000E+00    0.0000000000000000E+00
             0.0000000000000000E+00    0.0000000000000000E+00    0.0000000000000000E+00
             0.0000000000000000E+00    0.0000000000000000E+00    0.0000000000000000E+00
             0.0000000000000000E+00    0.0000000000000000E+00    0.0000000000000000E+00
             0.0000000000000000E+00    0.0000000000000000E+00    0.0000000000000000E+00
             0.0000000000000000E+00    0.0000000000000000E+00    0.0000000000000000E+00
             0.0000000000000000E+00    0.0000000000000000E+00    0.0000000000000000E+00
             0.0000000000000000E+00    0.0000000000000000E+00    0.0000000000000000E+00
             0.0000000000000000E+00    0.0000000000000000E+00    0.0000000000000000E+00
             0.0000000000000000E+00    0.0000000000000000E+00    0.0000000000000000E+00
             0.0000000000000000E+00    0.0000000000000000E+00    0.0000000000000000E+00
             0.0000000000000000E+00    0.0000000000000000E+00    0.0000000000000000E+00
             0.0000000000000000E+00    0.0000000000000000E+00    0.0000000000000000E+00
             0.0000000000000000E+00    0.0000000000000000E+00    0.0000000000000000E+00
             0.0000000000000000E+00    0.0000000000000000E+00    0.0000000000000000E+00
             0.0000000000000000E+00    0.0000000000000000E+00    0.0000000000000000E+00
             0.0000000000000000E+00    0.0000000000000000E+00    0.0000000000000000E+00
             0.0000000000000000E+00    0.0000000000000000E+00    0.0000000000000000E+00
             0.0000000000000000E+00    0.0000000000000000E+00    0.0000000000000000E+00
             0.0000000000000000E+00    0.0000000000000000E+00    0.0000000000000000E+00
             0.0000000000000000E+00    0.0000000000000000E+00    0.0000000000000000E+00
             0.0000000000000000E+00    0.0000000000000000E+00    0.0000000000000000E+00
             0.0000000000000000E+00    0.0000000000000000E+00    0.0000000000000000E+00
             0.0000000000000000E+00    0.0000000000000000E+00    0.0000000000000000E+00
             0.0000000000000000E+00    0.0000000000000000E+00    0.0000000000000000E+00
             0.0000000000000000E+00    0.0000000000000000E+00    0.0000000000000000E+00
             0.0000000000000000E+00    0.0000000000000000E+00    0.0000000000000000E+00
             0.0000000000000000E+00    0.0000000000000000E+00    0.0000000000000000E+00
             0.0000000000000000E+00    0.0000000000000000E+00    0.0000000000000000E+00
             0.0000000000000000E+00    0.0000000000000000E+00    0.0000000000000000E+00
             0.0000000000000000E+00    0.0000000000000000E+00    0.0000000000000000E+00
             0.0000000000000000E+00    0.0000000000000000E+00    0.0000000000000000E+00
             0.0000000000000000E+00    0.0000000000000000E+00    0.0000000000000000E+00
             0.0000000000000000E+00    0.0000000000000000E+00    0.0000000000000000E+00
             0.0000000000000000E+00    0.0000000000000000E+00    0.0000000000000000E+00
             0.0000000000000000E+00    0.0000000000000000E+00    0.0000000000000000E+00
             0.0000000000000000E+00    0.0000000000000000E+00    0.0000000000000000E+00
             0.0000000000000000E+00    0.0000000000000000E+00    0.0000000000000000E+00
             0.0000000000000000E+00    0.0000000000000000E+00    0.0000000000000000E+00
             0.0000000000000000E+00    0.0000000000000000E+00    0.0000000000000000E+00
             0.0000000000000000E+00    0.0000000000000000E+00    0.0000000000000000E+00
             0.0000000000000000E+00    0.0000000000000000E+00    0.0000000000000000E+00
             0.0000000000000000E+00    0.0000000000000000E+00    0.0000000000000000E+00
             0.0000000000000000E+00    0.0000000000000000E+00    0.0000000000000000E+00
             0.0000000000000000E+00    0.0000000000000000E+00    0.0000000000000000E+00
             0.0000000000000000E+00    0.0000000000000000E+00    0.0000000000000000E+00
             0.0000000000000000E+00    0.0000000000000000E+00    0.0000000000000000E+00
             0.0000000000000000E+00    0.0000000000000000E+00    0.0000000000000000E+00
             0.0000000000000000E+00    0.0000000000000000E+00    0.0000000000000000E+00
             0.0000000000000000E+00    0.0000000000000000E+00    0.0000000000000000E+00
             0.0000000000000000E+00    0.0000000000000000E+00    0.0000000000000000E+00
             0.0000000000000000E+00    0.0000000000000000E+00    0.0000000000000000E+00
             0.0000000000000000E+00    0.0000000000000000E+00    0.0000000000000000E+00
             0.0000000000000000E+00    0.0000000000000000E+00    0.0000000000000000E+00