 # Version information for this restart file 
 # current date 2024-01-10 22:47:29.846
 # current working dir /gpfs/home/cahart/transport/melamine/au_from-h2/ci-neb/ts2/dft_leads-sz_tip-dzvp_surf-dzvp_kpoints-2-4-20_replicas-5
 # Program compiled at                              Thu 21 Sep 19:20:17 BST 2023
 # Program compiled on                                           hx1-c12-login-1
 # Program compiled for                                                    local
 # Source code revision number                                       git:5518aa6
 &GLOBAL
   EXTENDED_FFT_LENGTHS  T
   PRINT_LEVEL  MEDIUM
   PROJECT_NAME 2_dft_wfn-r-0
   OUTPUT_FILE_NAME 2_dft_wfn-r-0.out
   RUN_TYPE  BAND
 &END GLOBAL
 &MOTION
   &CONSTRAINT
     &FIXED_ATOMS
       LIST  1..93 104..183
     &END FIXED_ATOMS
   &END CONSTRAINT
   &BAND
     NPROC_REP  64
     BAND_TYPE  CI-NEB
     NUMBER_OF_REPLICA  5
     K_SPRING     5.0000000000000003E-02
     &CI_NEB
       NSTEPS_IT  5
     &END CI_NEB
     &OPTIMIZE_BAND
       OPT_TYPE  DIIS
       &DIIS
         MAX_STEPS  1000
       &END DIIS
     &END OPTIMIZE_BAND
     &REPLICA
       &COORD
             0.0000000000000000E+00    0.0000000000000000E+00    0.0000000000000000E+00
             0.0000000000000000E+00    2.9550000000000090E+00    0.0000000000000000E+00
             0.0000000000000000E+00    5.9110000000000120E+00    0.0000000000000000E+00
             2.9560000000000102E+00    0.0000000000000000E+00    0.0000000000000000E+00
             2.9560000000000102E+00    2.9550000000000090E+00    0.0000000000000000E+00
             2.9560000000000102E+00    5.9110000000000120E+00    0.0000000000000000E+00
             5.9120000000000203E+00    0.0000000000000000E+00    0.0000000000000000E+00
             5.9120000000000203E+00    2.9550000000000090E+00    0.0000000000000000E+00
             5.9120000000000203E+00    5.9110000000000120E+00    0.0000000000000000E+00
             8.6700000000000212E+00    0.0000000000000000E+00    0.0000000000000000E+00
             8.6700000000000212E+00    2.9550000000000090E+00    0.0000000000000000E+00
             8.6700000000000212E+00    5.9110000000000120E+00    0.0000000000000000E+00
             1.1626000000000030E+01    0.0000000000000000E+00    0.0000000000000000E+00
             1.1626000000000030E+01    2.9550000000000090E+00    0.0000000000000000E+00
             1.1626000000000030E+01    5.9110000000000120E+00    0.0000000000000000E+00
             1.4780000000000051E+00    1.4780000000000051E+00    2.0900000000000065E+00
             1.4780000000000051E+00    4.4330000000000132E+00    2.0900000000000065E+00
             1.4780000000000051E+00    7.3890000000000216E+00    2.0900000000000065E+00
             4.4340000000000117E+00    1.4780000000000051E+00    2.0900000000000065E+00
             4.4340000000000117E+00    4.4330000000000132E+00    2.0900000000000065E+00
             4.4340000000000117E+00    7.3890000000000216E+00    2.0900000000000065E+00
             7.1920000000000170E+00    1.4780000000000051E+00    2.0900000000000065E+00
             7.1920000000000170E+00    4.4330000000000132E+00    2.0900000000000065E+00
             7.1920000000000170E+00    7.3890000000000216E+00    2.0900000000000065E+00
             1.0148000000000030E+01    1.4780000000000051E+00    2.0900000000000065E+00
             1.0148000000000030E+01    4.4330000000000132E+00    2.0900000000000065E+00
             1.0148000000000030E+01    7.3890000000000216E+00    2.0900000000000065E+00
             1.3104000000000038E+01    1.4780000000000051E+00    2.0900000000000065E+00
             1.3104000000000038E+01    4.4330000000000132E+00    2.0900000000000065E+00
             1.3104000000000038E+01    7.3890000000000216E+00    2.0900000000000065E+00
             0.0000000000000000E+00    0.0000000000000000E+00    4.1800000000000130E+00
             0.0000000000000000E+00    2.9550000000000090E+00    4.1800000000000130E+00
             0.0000000000000000E+00    5.9110000000000120E+00    4.1800000000000130E+00
             2.9560000000000102E+00    0.0000000000000000E+00    4.1800000000000130E+00
             2.9560000000000102E+00    2.9550000000000090E+00    4.1800000000000130E+00
             2.9560000000000102E+00    5.9110000000000120E+00    4.1800000000000130E+00
             5.9120000000000203E+00    0.0000000000000000E+00    4.1800000000000130E+00
             5.9120000000000203E+00    2.9550000000000090E+00    4.1800000000000130E+00
             5.9120000000000203E+00    5.9110000000000120E+00    4.1800000000000130E+00
             8.6700000000000212E+00    0.0000000000000000E+00    4.1800000000000130E+00
             8.6700000000000212E+00    2.9550000000000090E+00    4.1800000000000130E+00
             8.6700000000000212E+00    5.9110000000000120E+00    4.1800000000000130E+00
             1.1626000000000030E+01    0.0000000000000000E+00    4.1800000000000130E+00
             1.1626000000000030E+01    2.9550000000000090E+00    4.1800000000000130E+00
             1.1626000000000030E+01    5.9110000000000120E+00    4.1800000000000130E+00
             1.4780000000000051E+00    1.4780000000000051E+00    6.2700000000000173E+00
             1.4780000000000051E+00    4.4330000000000132E+00    6.2700000000000173E+00
             1.4780000000000051E+00    7.3890000000000216E+00    6.2700000000000173E+00
             4.4340000000000117E+00    1.4780000000000051E+00    6.2700000000000173E+00
             4.4340000000000117E+00    4.4330000000000132E+00    6.2700000000000173E+00
             4.4340000000000117E+00    7.3890000000000216E+00    6.2700000000000173E+00
             7.1920000000000170E+00    1.4780000000000051E+00    6.2700000000000173E+00
             7.1920000000000170E+00    4.4330000000000132E+00    6.2700000000000173E+00
             7.1920000000000170E+00    7.3890000000000216E+00    6.2700000000000173E+00
             1.0148000000000030E+01    1.4780000000000051E+00    6.2700000000000173E+00
             1.0148000000000030E+01    4.4330000000000132E+00    6.2700000000000173E+00
             1.0148000000000030E+01    7.3890000000000216E+00    6.2700000000000173E+00
             1.3104000000000038E+01    1.4780000000000051E+00    6.2700000000000173E+00
             1.3104000000000038E+01    4.4330000000000132E+00    6.2700000000000173E+00
             1.3104000000000038E+01    7.3890000000000216E+00    6.2700000000000173E+00
             0.0000000000000000E+00    0.0000000000000000E+00    8.3600000000000261E+00
             0.0000000000000000E+00    2.9550000000000090E+00    8.3600000000000261E+00
             0.0000000000000000E+00    5.9110000000000120E+00    8.3600000000000261E+00
             2.9560000000000102E+00    0.0000000000000000E+00    8.3600000000000261E+00
             2.9560000000000102E+00    2.9550000000000090E+00    8.3600000000000261E+00
             2.9560000000000102E+00    5.9110000000000120E+00    8.3600000000000261E+00
             5.9120000000000203E+00    0.0000000000000000E+00    8.3600000000000261E+00
             5.9120000000000203E+00    2.9550000000000090E+00    8.3600000000000261E+00
             5.9120000000000203E+00    5.9110000000000120E+00    8.3600000000000261E+00
             8.6700000000000212E+00    0.0000000000000000E+00    8.3600000000000261E+00
             8.6700000000000212E+00    2.9550000000000090E+00    8.3600000000000261E+00
             8.6700000000000212E+00    5.9110000000000120E+00    8.3600000000000261E+00
             1.1626000000000030E+01    0.0000000000000000E+00    8.3600000000000261E+00
             1.1626000000000030E+01    2.9550000000000090E+00    8.3600000000000261E+00
             1.1626000000000030E+01    5.9110000000000120E+00    8.3600000000000261E+00
             1.4780000000000051E+00    1.4780000000000051E+00    1.0450000000000024E+01
             1.4780000000000051E+00    4.4330000000000132E+00    1.0450000000000024E+01
             1.4780000000000051E+00    7.3890000000000216E+00    1.0450000000000024E+01
             4.4340000000000117E+00    1.4780000000000051E+00    1.0450000000000024E+01
             4.4340000000000117E+00    4.4330000000000132E+00    1.0450000000000024E+01
             4.4340000000000117E+00    7.3890000000000216E+00    1.0450000000000024E+01
             7.1920000000000170E+00    1.4780000000000051E+00    1.0450000000000024E+01
             7.1920000000000170E+00    4.4330000000000132E+00    1.0450000000000024E+01
             7.1920000000000170E+00    7.3890000000000216E+00    1.0450000000000024E+01
             1.0148000000000030E+01    1.4780000000000051E+00    1.0450000000000024E+01
             1.0148000000000030E+01    4.4330000000000132E+00    1.0450000000000024E+01
             1.0148000000000030E+01    7.3890000000000216E+00    1.0450000000000024E+01
             1.3104000000000038E+01    1.4780000000000051E+00    1.0450000000000024E+01
             1.3104000000000038E+01    4.4330000000000132E+00    1.0450000000000024E+01
             1.3104000000000038E+01    7.3890000000000216E+00    1.0450000000000024E+01
             4.8554000000000110E+00    5.9119000000000135E+00    1.2031800000000025E+01
             9.5280000000000218E+00    5.9137000000000182E+00    1.2034000000000031E+01
             7.1920000000000170E+00    5.9340000000000162E+00    1.2040000000000028E+01
             1.0318905404800027E+01    5.9087793826000174E+00    1.2685747073200035E+01
             4.0673339928000098E+00    5.9059993220000164E+00    1.2687741368900033E+01
             8.3738707293000267E+00    5.9179777707000172E+00    1.2731457252200025E+01
             5.9989554222000159E+00    5.9152564166000179E+00    1.2792642411200033E+01
             8.3227525762000241E+00    5.9051536095000170E+00    1.4080497642100044E+01
             5.9344285049000174E+00    5.8981604865000179E+00    1.4101749969600037E+01
             9.1743570613000287E+00    5.8876302392000159E+00    1.4641017735300043E+01
             7.1039653577000177E+00    5.8899410689000193E+00    1.4828703219100040E+01
             7.2416021047000214E+00    5.8657702092000150E+00    1.6106466757300058E+01
             6.3118250323000185E+00    5.8547577071000161E+00    1.6539601306200048E+01
             7.3120000000000180E+00    5.9340000000000162E+00    2.1043000000000049E+01
             5.8130000000000148E+00    7.4340000000000224E+00    2.2992000000000072E+01
             8.8130000000000237E+00    4.4340000000000117E+00    2.2992000000000072E+01
             5.8130000000000148E+00    4.4330000000000132E+00    2.2992000000000072E+01
             8.8130000000000237E+00    7.4340000000000224E+00    2.2992000000000072E+01
             1.4780000000000051E+00    1.4780000000000051E+00    2.5082000000000061E+01
             1.4780000000000051E+00    4.4330000000000132E+00    2.5082000000000061E+01
             1.4780000000000051E+00    7.3890000000000216E+00    2.5082000000000061E+01
             4.4340000000000117E+00    1.4780000000000051E+00    2.5082000000000061E+01
             4.4340000000000117E+00    4.4330000000000132E+00    2.5082000000000061E+01
             4.4340000000000117E+00    7.3890000000000216E+00    2.5082000000000061E+01
             7.1920000000000170E+00    1.4780000000000051E+00    2.5082000000000061E+01
             7.1920000000000170E+00    4.4330000000000132E+00    2.5082000000000061E+01
             7.1920000000000170E+00    7.3890000000000216E+00    2.5082000000000061E+01
             1.0148000000000030E+01    1.4780000000000051E+00    2.5082000000000061E+01
             1.0148000000000030E+01    4.4330000000000132E+00    2.5082000000000061E+01
             1.0148000000000030E+01    7.3890000000000216E+00    2.5082000000000061E+01
             1.3104000000000038E+01    1.4780000000000051E+00    2.5082000000000061E+01
             1.3104000000000038E+01    4.4330000000000132E+00    2.5082000000000061E+01
             1.3104000000000038E+01    7.3890000000000216E+00    2.5082000000000061E+01
             0.0000000000000000E+00    0.0000000000000000E+00    2.7172000000000072E+01
             0.0000000000000000E+00    2.9550000000000090E+00    2.7172000000000072E+01
             0.0000000000000000E+00    5.9110000000000120E+00    2.7172000000000072E+01
             2.9560000000000102E+00    0.0000000000000000E+00    2.7172000000000072E+01
             2.9560000000000102E+00    2.9550000000000090E+00    2.7172000000000072E+01
             2.9560000000000102E+00    5.9110000000000120E+00    2.7172000000000072E+01
             5.9120000000000203E+00    0.0000000000000000E+00    2.7172000000000072E+01
             5.9120000000000203E+00    2.9550000000000090E+00    2.7172000000000072E+01
             5.9120000000000203E+00    5.9110000000000120E+00    2.7172000000000072E+01
             8.6700000000000212E+00    0.0000000000000000E+00    2.7172000000000072E+01
             8.6700000000000212E+00    2.9550000000000090E+00    2.7172000000000072E+01
             8.6700000000000212E+00    5.9110000000000120E+00    2.7172000000000072E+01
             1.1626000000000030E+01    0.0000000000000000E+00    2.7172000000000072E+01
             1.1626000000000030E+01    2.9550000000000090E+00    2.7172000000000072E+01
             1.1626000000000030E+01    5.9110000000000120E+00    2.7172000000000072E+01
             1.4780000000000051E+00    1.4780000000000051E+00    2.9262000000000089E+01
             1.4780000000000051E+00    4.4330000000000132E+00    2.9262000000000089E+01
             1.4780000000000051E+00    7.3890000000000216E+00    2.9262000000000089E+01
             4.4340000000000117E+00    1.4780000000000051E+00    2.9262000000000089E+01
             4.4340000000000117E+00    4.4330000000000132E+00    2.9262000000000089E+01
             4.4340000000000117E+00    7.3890000000000216E+00    2.9262000000000089E+01
             7.1920000000000170E+00    1.4780000000000051E+00    2.9262000000000089E+01
             7.1920000000000170E+00    4.4330000000000132E+00    2.9262000000000089E+01
             7.1920000000000170E+00    7.3890000000000216E+00    2.9262000000000089E+01
             1.0148000000000030E+01    1.4780000000000051E+00    2.9262000000000089E+01
             1.0148000000000030E+01    4.4330000000000132E+00    2.9262000000000089E+01
             1.0148000000000030E+01    7.3890000000000216E+00    2.9262000000000089E+01
             1.3104000000000038E+01    1.4780000000000051E+00    2.9262000000000089E+01
             1.3104000000000038E+01    4.4330000000000132E+00    2.9262000000000089E+01
             1.3104000000000038E+01    7.3890000000000216E+00    2.9262000000000089E+01
             0.0000000000000000E+00    0.0000000000000000E+00    3.1352000000000057E+01
             0.0000000000000000E+00    2.9550000000000090E+00    3.1352000000000057E+01
             0.0000000000000000E+00    5.9110000000000120E+00    3.1352000000000057E+01
             2.9560000000000102E+00    0.0000000000000000E+00    3.1352000000000057E+01
             2.9560000000000102E+00    2.9550000000000090E+00    3.1352000000000057E+01
             2.9560000000000102E+00    5.9110000000000120E+00    3.1352000000000057E+01
             5.9120000000000203E+00    0.0000000000000000E+00    3.1352000000000057E+01
             5.9120000000000203E+00    2.9550000000000090E+00    3.1352000000000057E+01
             5.9120000000000203E+00    5.9110000000000120E+00    3.1352000000000057E+01
             8.6700000000000212E+00    0.0000000000000000E+00    3.1352000000000057E+01
             8.6700000000000212E+00    2.9550000000000090E+00    3.1352000000000057E+01
             8.6700000000000212E+00    5.9110000000000120E+00    3.1352000000000057E+01
             1.1626000000000030E+01    0.0000000000000000E+00    3.1352000000000057E+01
             1.1626000000000030E+01    2.9550000000000090E+00    3.1352000000000057E+01
             1.1626000000000030E+01    5.9110000000000120E+00    3.1352000000000057E+01
             1.4780000000000051E+00    1.4780000000000051E+00    3.3442000000000085E+01
             1.4780000000000051E+00    4.4330000000000132E+00    3.3442000000000085E+01
             1.4780000000000051E+00    7.3890000000000216E+00    3.3442000000000085E+01
             4.4340000000000117E+00    1.4780000000000051E+00    3.3442000000000085E+01
             4.4340000000000117E+00    4.4330000000000132E+00    3.3442000000000085E+01
             4.4340000000000117E+00    7.3890000000000216E+00    3.3442000000000085E+01
             7.1920000000000170E+00    1.4780000000000051E+00    3.3442000000000085E+01
             7.1920000000000170E+00    4.4330000000000132E+00    3.3442000000000085E+01
             7.1920000000000170E+00    7.3890000000000216E+00    3.3442000000000085E+01
             1.0148000000000030E+01    1.4780000000000051E+00    3.3442000000000085E+01
             1.0148000000000030E+01    4.4330000000000132E+00    3.3442000000000085E+01
             1.0148000000000030E+01    7.3890000000000216E+00    3.3442000000000085E+01
             1.3104000000000038E+01    1.4780000000000051E+00    3.3442000000000085E+01
             1.3104000000000038E+01    4.4330000000000132E+00    3.3442000000000085E+01
             1.3104000000000038E+01    7.3890000000000216E+00    3.3442000000000085E+01
       &END COORD
       &VELOCITY
             0.0000000000000000E+00    0.0000000000000000E+00    0.0000000000000000E+00
             0.0000000000000000E+00    0.0000000000000000E+00    0.0000000000000000E+00
             0.0000000000000000E+00    0.0000000000000000E+00    0.0000000000000000E+00
             0.0000000000000000E+00    0.0000000000000000E+00    0.0000000000000000E+00
             0.0000000000000000E+00    0.0000000000000000E+00    0.0000000000000000E+00
             0.0000000000000000E+00    0.0000000000000000E+00    0.0000000000000000E+00
             0.0000000000000000E+00    0.0000000000000000E+00    0.0000000000000000E+00
             0.0000000000000000E+00    0.0000000000000000E+00    0.0000000000000000E+00
             0.0000000000000000E+00    0.0000000000000000E+00    0.0000000000000000E+00
             0.0000000000000000E+00    0.0000000000000000E+00    0.0000000000000000E+00
             0.0000000000000000E+00    0.0000000000000000E+00    0.0000000000000000E+00
             0.0000000000000000E+00    0.0000000000000000E+00    0.0000000000000000E+00
             0.0000000000000000E+00    0.0000000000000000E+00    0.0000000000000000E+00
             0.0000000000000000E+00    0.0000000000000000E+00    0.0000000000000000E+00
             0.0000000000000000E+00    0.0000000000000000E+00    0.0000000000000000E+00
             0.0000000000000000E+00    0.0000000000000000E+00    0.0000000000000000E+00
             0.0000000000000000E+00    0.0000000000000000E+00    0.0000000000000000E+00
             0.0000000000000000E+00    0.0000000000000000E+00    0.0000000000000000E+00
             0.0000000000000000E+00    0.0000000000000000E+00    0.0000000000000000E+00
             0.0000000000000000E+00    0.0000000000000000E+00    0.0000000000000000E+00
             0.0000000000000000E+00    0.0000000000000000E+00    0.0000000000000000E+00
             0.0000000000000000E+00    0.0000000000000000E+00    0.0000000000000000E+00
             0.0000000000000000E+00    0.0000000000000000E+00    0.0000000000000000E+00
             0.0000000000000000E+00    0.0000000000000000E+00    0.0000000000000000E+00
             0.0000000000000000E+00    0.0000000000000000E+00    0.0000000000000000E+00
             0.0000000000000000E+00    0.0000000000000000E+00    0.0000000000000000E+00
             0.0000000000000000E+00    0.0000000000000000E+00    0.0000000000000000E+00
             0.0000000000000000E+00    0.0000000000000000E+00    0.0000000000000000E+00
             0.0000000000000000E+00    0.0000000000000000E+00    0.0000000000000000E+00
             0.0000000000000000E+00    0.0000000000000000E+00    0.0000000000000000E+00
             0.0000000000000000E+00    0.0000000000000000E+00    0.0000000000000000E+00
             0.0000000000000000E+00    0.0000000000000000E+00    0.0000000000000000E+00
             0.0000000000000000E+00    0.0000000000000000E+00    0.0000000000000000E+00
             0.0000000000000000E+00    0.0000000000000000E+00    0.0000000000000000E+00
             0.0000000000000000E+00    0.0000000000000000E+00    0.0000000000000000E+00
             0.0000000000000000E+00    0.0000000000000000E+00    0.0000000000000000E+00
             0.0000000000000000E+00    0.0000000000000000E+00    0.0000000000000000E+00
             0.0000000000000000E+00    0.0000000000000000E+00    0.0000000000000000E+00
             0.0000000000000000E+00    0.0000000000000000E+00    0.0000000000000000E+00
             0.0000000000000000E+00    0.0000000000000000E+00    0.0000000000000000E+00
             0.0000000000000000E+00    0.0000000000000000E+00    0.0000000000000000E+00
             0.0000000000000000E+00    0.0000000000000000E+00    0.0000000000000000E+00
             0.0000000000000000E+00    0.0000000000000000E+00    0.0000000000000000E+00
             0.0000000000000000E+00    0.0000000000000000E+00    0.0000000000000000E+00
             0.0000000000000000E+00    0.0000000000000000E+00    0.0000000000000000E+00
             0.0000000000000000E+00    0.0000000000000000E+00    0.0000000000000000E+00
             0.0000000000000000E+00    0.0000000000000000E+00    0.0000000000000000E+00
             0.0000000000000000E+00    0.0000000000000000E+00    0.0000000000000000E+00
             0.0000000000000000E+00    0.0000000000000000E+00    0.0000000000000000E+00
             0.0000000000000000E+00    0.0000000000000000E+00    0.0000000000000000E+00
             0.0000000000000000E+00    0.0000000000000000E+00    0.0000000000000000E+00
             0.0000000000000000E+00    0.0000000000000000E+00    0.0000000000000000E+00
             0.0000000000000000E+00    0.0000000000000000E+00    0.0000000000000000E+00
             0.0000000000000000E+00    0.0000000000000000E+00    0.0000000000000000E+00
             0.0000000000000000E+00    0.0000000000000000E+00    0.0000000000000000E+00
             0.0000000000000000E+00    0.0000000000000000E+00    0.0000000000000000E+00
             0.0000000000000000E+00    0.0000000000000000E+00    0.0000000000000000E+00
             0.0000000000000000E+00    0.0000000000000000E+00    0.0000000000000000E+00
             0.0000000000000000E+00    0.0000000000000000E+00    0.0000000000000000E+00
             0.0000000000000000E+00    0.0000000000000000E+00    0.0000000000000000E+00
             0.0000000000000000E+00    0.0000000000000000E+00    0.0000000000000000E+00
             0.0000000000000000E+00    0.0000000000000000E+00    0.0000000000000000E+00
             0.0000000000000000E+00    0.0000000000000000E+00    0.0000000000000000E+00
             0.0000000000000000E+00    0.0000000000000000E+00    0.0000000000000000E+00
             0.0000000000000000E+00    0.0000000000000000E+00    0.0000000000000000E+00
             0.0000000000000000E+00    0.0000000000000000E+00    0.0000000000000000E+00
             0.0000000000000000E+00    0.0000000000000000E+00    0.0000000000000000E+00
             0.0000000000000000E+00    0.0000000000000000E+00    0.0000000000000000E+00
             0.0000000000000000E+00    0.0000000000000000E+00    0.0000000000000000E+00
             0.0000000000000000E+00    0.0000000000000000E+00    0.0000000000000000E+00
             0.0000000000000000E+00    0.0000000000000000E+00    0.0000000000000000E+00
             0.0000000000000000E+00    0.0000000000000000E+00    0.0000000000000000E+00
             0.0000000000000000E+00    0.0000000000000000E+00    0.0000000000000000E+00
             0.0000000000000000E+00    0.0000000000000000E+00    0.0000000000000000E+00
             0.0000000000000000E+00    0.0000000000000000E+00    0.0000000000000000E+00
             0.0000000000000000E+00    0.0000000000000000E+00    0.0000000000000000E+00
             0.0000000000000000E+00    0.0000000000000000E+00    0.0000000000000000E+00
             0.0000000000000000E+00    0.0000000000000000E+00    0.0000000000000000E+00
             0.0000000000000000E+00    0.0000000000000000E+00    0.0000000000000000E+00
             0.0000000000000000E+00    0.0000000000000000E+00    0.0000000000000000E+00
             0.0000000000000000E+00    0.0000000000000000E+00    0.0000000000000000E+00
             0.0000000000000000E+00    0.0000000000000000E+00    0.0000000000000000E+00
             0.0000000000000000E+00    0.0000000000000000E+00    0.0000000000000000E+00
             0.0000000000000000E+00    0.0000000000000000E+00    0.0000000000000000E+00
             0.0000000000000000E+00    0.0000000000000000E+00    0.0000000000000000E+00
             0.0000000000000000E+00    0.0000000000000000E+00    0.0000000000000000E+00
             0.0000000000000000E+00    0.0000000000000000E+00    0.0000000000000000E+00
             0.0000000000000000E+00    0.0000000000000000E+00    0.0000000000000000E+00
             0.0000000000000000E+00    0.0000000000000000E+00    0.0000000000000000E+00
             0.0000000000000000E+00    0.0000000000000000E+00    0.0000000000000000E+00
             0.0000000000000000E+00    0.0000000000000000E+00    0.0000000000000000E+00
             0.0000000000000000E+00    0.0000000000000000E+00    0.0000000000000000E+00
             0.0000000000000000E+00    0.0000000000000000E+00    0.0000000000000000E+00
             0.0000000000000000E+00    0.0000000000000000E+00    0.0000000000000000E+00
             0.0000000000000000E+00    0.0000000000000000E+00    0.0000000000000000E+00
             0.0000000000000000E+00    0.0000000000000000E+00    0.0000000000000000E+00
             0.0000000000000000E+00    0.0000000000000000E+00    0.0000000000000000E+00
             0.0000000000000000E+00    0.0000000000000000E+00    0.0000000000000000E+00
             0.0000000000000000E+00    0.0000000000000000E+00    0.0000000000000000E+00
             0.0000000000000000E+00    0.0000000000000000E+00    0.0000000000000000E+00
             0.0000000000000000E+00    0.0000000000000000E+00    0.0000000000000000E+00
             0.0000000000000000E+00    0.0000000000000000E+00    0.0000000000000000E+00
             0.0000000000000000E+00    0.0000000000000000E+00    0.0000000000000000E+00
             0.0000000000000000E+00    0.0000000000000000E+00    0.0000000000000000E+00
             0.0000000000000000E+00    0.0000000000000000E+00    0.0000000000000000E+00
             0.0000000000000000E+00    0.0000000000000000E+00    0.0000000000000000E+00
             0.0000000000000000E+00    0.0000000000000000E+00    0.0000000000000000E+00
             0.0000000000000000E+00    0.0000000000000000E+00    0.0000000000000000E+00
             0.0000000000000000E+00    0.0000000000000000E+00    0.0000000000000000E+00
             0.0000000000000000E+00    0.0000000000000000E+00    0.0000000000000000E+00
             0.0000000000000000E+00    0.0000000000000000E+00    0.0000000000000000E+00
             0.0000000000000000E+00    0.0000000000000000E+00    0.0000000000000000E+00
             0.0000000000000000E+00    0.0000000000000000E+00    0.0000000000000000E+00
             0.0000000000000000E+00    0.0000000000000000E+00    0.0000000000000000E+00
             0.0000000000000000E+00    0.0000000000000000E+00    0.0000000000000000E+00
             0.0000000000000000E+00    0.0000000000000000E+00    0.0000000000000000E+00
             0.0000000000000000E+00    0.0000000000000000E+00    0.0000000000000000E+00
             0.0000000000000000E+00    0.0000000000000000E+00    0.0000000000000000E+00
             0.0000000000000000E+00    0.0000000000000000E+00    0.0000000000000000E+00
             0.0000000000000000E+00    0.0000000000000000E+00    0.0000000000000000E+00
             0.0000000000000000E+00    0.0000000000000000E+00    0.0000000000000000E+00
             0.0000000000000000E+00    0.0000000000000000E+00    0.0000000000000000E+00
             0.0000000000000000E+00    0.0000000000000000E+00    0.0000000000000000E+00
             0.0000000000000000E+00    0.0000000000000000E+00    0.0000000000000000E+00
             0.0000000000000000E+00    0.0000000000000000E+00    0.0000000000000000E+00
             0.0000000000000000E+00    0.0000000000000000E+00    0.0000000000000000E+00
             0.0000000000000000E+00    0.0000000000000000E+00    0.0000000000000000E+00
             0.0000000000000000E+00    0.0000000000000000E+00    0.0000000000000000E+00
             0.0000000000000000E+00    0.0000000000000000E+00    0.0000000000000000E+00
             0.0000000000000000E+00    0.0000000000000000E+00    0.0000000000000000E+00
             0.0000000000000000E+00    0.0000000000000000E+00    0.0000000000000000E+00
             0.0000000000000000E+00    0.0000000000000000E+00    0.0000000000000000E+00
             0.0000000000000000E+00    0.0000000000000000E+00    0.0000000000000000E+00
             0.0000000000000000E+00    0.0000000000000000E+00    0.0000000000000000E+00
             0.0000000000000000E+00    0.0000000000000000E+00    0.0000000000000000E+00
             0.0000000000000000E+00    0.0000000000000000E+00    0.0000000000000000E+00
             0.0000000000000000E+00    0.0000000000000000E+00    0.0000000000000000E+00
             0.0000000000000000E+00    0.0000000000000000E+00    0.0000000000000000E+00
             0.0000000000000000E+00    0.0000000000000000E+00    0.0000000000000000E+00
             0.0000000000000000E+00    0.0000000000000000E+00    0.0000000000000000E+00
             0.0000000000000000E+00    0.0000000000000000E+00    0.0000000000000000E+00
             0.0000000000000000E+00    0.0000000000000000E+00    0.0000000000000000E+00
             0.0000000000000000E+00    0.0000000000000000E+00    0.0000000000000000E+00
             0.0000000000000000E+00    0.0000000000000000E+00    0.0000000000000000E+00