     183
 i =       0, E =    -5729.7721846642
 Au         0.0000344330        0.0000501315       -0.0000169380
 Au         0.0000297614        2.9550501315       -0.0000155011
 Au         0.0000250882        5.9110501315       -0.0000140637
 Au         2.9560344330        0.0000548047       -0.0000161895
 Au         2.9560297614        2.9550548047       -0.0000147526
 Au         2.9560250882        5.9110548047       -0.0000133152
 Au         5.9120344330        0.0000594779       -0.0000154411
 Au         5.9120297614        2.9550594779       -0.0000140042
 Au         5.9120250882        5.9110594779       -0.0000125668
 Au         8.6700344330        0.0000638381       -0.0000147428
 Au         8.6700297614        2.9550638381       -0.0000133059
 Au         8.6700250882        5.9110638381       -0.0000118685
 Au        11.6260344330        0.0000685113       -0.0000139944
 Au        11.6260297614        2.9550685113       -0.0000125575
 Au        11.6260250882        5.9110685113       -0.0000111201
 Au         1.4780315672        1.4780514518        2.0899841549
 Au         1.4780268956        4.4330514518        2.0899855918
 Au         1.4780222224        7.3890514518        2.0899870292
 Au         4.4340315672        1.4780561250        2.0899849034
 Au         4.4340268956        4.4330561250        2.0899863403
 Au         4.4340222224        7.3890561250        2.0899877777
 Au         7.1920315672        1.4780604852        2.0899856017
 Au         7.1920268956        4.4330604852        2.0899870386
 Au         7.1920222224        7.3890604852        2.0899884760
 Au        10.1480315672        1.4780651584        2.0899863501
 Au        10.1480268956        4.4330651584        2.0899877870
 Au        10.1480222224        7.3890651584        2.0899892244
 Au        13.1040315672        1.4780698316        2.0899870986
 Au        13.1040268956        4.4330698316        2.0899885355
 Au        13.1040222224        7.3890698316        2.0899899729
 Au         0.0000333747        0.0000480990        4.1799830620
 Au         0.0000287030        2.9550480990        4.1799844989
 Au         0.0000240299        5.9110480990        4.1799859363
 Au         2.9560333747        0.0000527722        4.1799838105
 Au         2.9560287030        2.9550527722        4.1799852474
 Au         2.9560240298        5.9110527722        4.1799866848
 Au         5.9120333747        0.0000574454        4.1799845589
 Au         5.9120287030        2.9550574454        4.1799859958
 Au         5.9120240298        5.9110574454        4.1799874332
 Au         8.6700333747        0.0000618055        4.1799852572
 Au         8.6700287030        2.9550618055        4.1799866941
 Au         8.6700240298        5.9110618055        4.1799881315
 Au        11.6260333747        0.0000664787        4.1799860056
 Au        11.6260287030        2.9550664787        4.1799874425
 Au        11.6260240298        5.9110664787        4.1799888799
 Au         1.4780305089        1.4780494193        6.2699841549
 Au         1.4780258373        4.4330494193        6.2699855918
 Au         1.4780211641        7.3890494193        6.2699870292
 Au         4.4340305089        1.4780540925        6.2699849034
 Au         4.4340258373        4.4330540925        6.2699863403
 Au         4.4340211641        7.3890540925        6.2699877777
 Au         7.1920305089        1.4780584526        6.2699856017
 Au         7.1920258373        4.4330584526        6.2699870386
 Au         7.1920211641        7.3890584526        6.2699884760
 Au        10.1480305089        1.4780631258        6.2699863501
 Au        10.1480258373        4.4330631258        6.2699877870
 Au        10.1480211641        7.3890631258        6.2699892244
 Au        13.1040305089        1.4780677990        6.2699870986
 Au        13.1040258373        4.4330677990        6.2699885355
 Au        13.1040211641        7.3890677990        6.2699899728
 Au         0.0000323163        0.0000460664        8.3599830620
 Au         0.0000276447        2.9550460664        8.3599844989
 Au         0.0000229715        5.9110460664        8.3599859363
 Au         2.9560323163        0.0000507396        8.3599838105
 Au         2.9560276447        2.9550507396        8.3599852474
 Au         2.9560229715        5.9110507396        8.3599866848
 Au         5.9120323163        0.0000554128        8.3599845589
 Au         5.9120276447        2.9550554128        8.3599859958
 Au         5.9120229715        5.9110554128        8.3599874332
 Au         8.6700323163        0.0000597730        8.3599852572
 Au         8.6700276447        2.9550597730        8.3599866941
 Au         8.6700229715        5.9110597730        8.3599881315
 Au        11.6260323163        0.0000644462        8.3599860056
 Au        11.6260276447        2.9550644462        8.3599874425
 Au        11.6260229715        5.9110644462        8.3599888799
 Au         1.4780294506        1.4780473867       10.4499841549
 Au         1.4780247789        4.4330473867       10.4499855918
 Au         1.4780201057        7.3890473867       10.4499870292
 Au         4.4340294505        1.4780520599       10.4499849034
 Au         4.4340247789        4.4330520599       10.4499863403
 Au         4.4340201057        7.3890520599       10.4499877777
 Au         7.1920294505        1.4780564201       10.4499856017
 Au         7.1920247789        4.4330564201       10.4499870386
 Au         7.1920201057        7.3890564201       10.4499884760
 Au        10.1480294505        1.4780610933       10.4499863501
 Au        10.1480247789        4.4330610933       10.4499877870
 Au        10.1480201057        7.3890610933       10.4499892244
 Au        13.1040294505        1.4780657665       10.4499870986
 Au        13.1040247789        4.4330657665       10.4499885355
 Au        13.1040201057        7.3890657665       10.4499899728
  N         4.8554220404        5.9119519569       12.0317871661
  N         9.5280220370        5.9137593429       12.0339883500
  N         7.1920220034        5.9340556469       12.0399877685
  H        10.3194902592        5.9053238304       12.6848049520
  H         4.0684421349        5.9044569558       12.6895846324
  C         8.3716134870        5.9045503652       12.7273950567
  C         6.0000580832        5.9089033847       12.7963624370
  N         8.3196152842        5.8591998273       14.0820895470
  N         5.9337752086        5.8824837836       14.1008229282
  H         9.1938237691        5.8323594083       14.6034134549
  C         7.0903937260        5.8638742098       14.8438047902
  N         7.0755388268        5.8464611038       16.1287543027
  H         8.0200444401        5.8337483356       16.5270468651
 Au         7.3120197239        5.9340514588       21.0429877988
 Au         5.8130168591        7.4340481413       22.9919881487
 Au         8.8130216018        4.4340528840       22.9919874495
 Au         5.8130216034        4.4330481413       22.9919866894
 Au         8.8130168590        7.4340528840       22.9919889083
 Au         1.4780257458        1.4780402717       25.0819841549
 Au         1.4780210742        4.4330402717       25.0819855918
 Au         1.4780164010        7.3890402717       25.0819870292
 Au         4.4340257458        1.4780449449       25.0819849034
 Au         4.4340210742        4.4330449449       25.0819863403
 Au         4.4340164010        7.3890449449       25.0819877777
 Au         7.1920257458        1.4780493051       25.0819856017
 Au         7.1920210742        4.4330493051       25.0819870386
 Au         7.1920164010        7.3890493051       25.0819884760
 Au        10.1480257458        1.4780539783       25.0819863501
 Au        10.1480210742        4.4330539783       25.0819877870
 Au        10.1480164010        7.3890539783       25.0819892244
 Au        13.1040257458        1.4780586515       25.0819870986
 Au        13.1040210742        4.4330586515       25.0819885355
 Au        13.1040164010        7.3890586515       25.0819899728
 Au         0.0000275533        0.0000369188       27.1719830620
 Au         0.0000228817        2.9550369188       27.1719844989
 Au         0.0000182085        5.9110369188       27.1719859363
 Au         2.9560275533        0.0000415920       27.1719838105
 Au         2.9560228817        2.9550415920       27.1719852474
 Au         2.9560182085        5.9110415920       27.1719866848
 Au         5.9120275533        0.0000462652       27.1719845589
 Au         5.9120228816        2.9550462652       27.1719859958
 Au         5.9120182085        5.9110462652       27.1719874332
 Au         8.6700275533        0.0000506254       27.1719852572
 Au         8.6700228816        2.9550506254       27.1719866941
 Au         8.6700182084        5.9110506254       27.1719881315
 Au        11.6260275533        0.0000552986       27.1719860056
 Au        11.6260228816        2.9550552986       27.1719874425
 Au        11.6260182084        5.9110552986       27.1719888799
 Au         1.4780246875        1.4780382391       29.2619841549
 Au         1.4780200159        4.4330382391       29.2619855918
 Au         1.4780153427        7.3890382391       29.2619870292
 Au         4.4340246875        1.4780429123       29.2619849034
 Au         4.4340200159        4.4330429123       29.2619863403
 Au         4.4340153427        7.3890429123       29.2619877777
 Au         7.1920246875        1.4780472725       29.2619856017
 Au         7.1920200159        4.4330472725       29.2619870386
 Au         7.1920153427        7.3890472725       29.2619884760
 Au        10.1480246875        1.4780519457       29.2619863501
 Au        10.1480200159        4.4330519457       29.2619877870
 Au        10.1480153427        7.3890519457       29.2619892244
 Au        13.1040246875        1.4780566189       29.2619870986
 Au        13.1040200159        4.4330566189       29.2619885355
 Au        13.1040153427        7.3890566189       29.2619899728
 Au         0.0000264949        0.0000348863       31.3519830620
 Au         0.0000218233        2.9550348863       31.3519844989
 Au         0.0000171501        5.9110348863       31.3519859363
 Au         2.9560264949        0.0000395595       31.3519838105
 Au         2.9560218233        2.9550395595       31.3519852474
 Au         2.9560171501        5.9110395594       31.3519866848
 Au         5.9120264949        0.0000442327       31.3519845589
 Au         5.9120218233        2.9550442327       31.3519859958
 Au         5.9120171501        5.9110442326       31.3519874332
 Au         8.6700264949        0.0000485928       31.3519852572
 Au         8.6700218233        2.9550485928       31.3519866941
 Au         8.6700171501        5.9110485928       31.3519881315
 Au        11.6260264949        0.0000532660       31.3519860056
 Au        11.6260218233        2.9550532660       31.3519874425
 Au        11.6260171501        5.9110532660       31.3519888799
 Au         1.4780236292        1.4780362066       33.4419841549
 Au         1.4780189575        4.4330362066       33.4419855918
 Au         1.4780142843        7.3890362066       33.4419870292
 Au         4.4340236292        1.4780408798       33.4419849034
 Au         4.4340189575        4.4330408798       33.4419863403
 Au         4.4340142843        7.3890408798       33.4419877777
 Au         7.1920236292        1.4780452399       33.4419856017
 Au         7.1920189575        4.4330452399       33.4419870386
 Au         7.1920142843        7.3890452399       33.4419884760
 Au        10.1480236291        1.4780499131       33.4419863501
 Au        10.1480189575        4.4330499131       33.4419877870
 Au        10.1480142843        7.3890499131       33.4419892244
 Au        13.1040236291        1.4780545863       33.4419870986
 Au        13.1040189575        4.4330545863       33.4419885355
 Au        13.1040142843        7.3890545863       33.4419899728
     183
 i =       1, E =    -5729.7721846643
 Au         0.0000344330        0.0000501315       -0.0000169380
 Au         0.0000297614        2.9550501315       -0.0000155011
 Au         0.0000250882        5.9110501315       -0.0000140637
 Au         2.9560344330        0.0000548047       -0.0000161895
 Au         2.9560297614        2.9550548047       -0.0000147526
 Au         2.9560250882        5.9110548047       -0.0000133152
 Au         5.9120344330        0.0000594779       -0.0000154411
 Au         5.9120297614        2.9550594779       -0.0000140042
 Au         5.9120250882        5.9110594779       -0.0000125668
 Au         8.6700344330        0.0000638381       -0.0000147428
 Au         8.6700297614        2.9550638381       -0.0000133059
 Au         8.6700250882        5.9110638381       -0.0000118685
 Au        11.6260344330        0.0000685113       -0.0000139944
 Au        11.6260297614        2.9550685113       -0.0000125575
 Au        11.6260250882        5.9110685113       -0.0000111201
 Au         1.4780315672        1.4780514518        2.0899841549
 Au         1.4780268956        4.4330514518        2.0899855918
 Au         1.4780222224        7.3890514518        2.0899870292
 Au         4.4340315672        1.4780561250        2.0899849034
 Au         4.4340268956        4.4330561250        2.0899863403
 Au         4.4340222224        7.3890561250        2.0899877777
 Au         7.1920315672        1.4780604852        2.0899856017
 Au         7.1920268956        4.4330604852        2.0899870386
 Au         7.1920222224        7.3890604852        2.0899884760
 Au        10.1480315672        1.4780651584        2.0899863501
 Au        10.1480268956        4.4330651584        2.0899877870
 Au        10.1480222224        7.3890651584        2.0899892244
 Au        13.1040315672        1.4780698316        2.0899870986
 Au        13.1040268956        4.4330698316        2.0899885355
 Au        13.1040222224        7.3890698316        2.0899899729
 Au         0.0000333747        0.0000480990        4.1799830620
 Au         0.0000287030        2.9550480990        4.1799844989
 Au         0.0000240299        5.9110480990        4.1799859363
 Au         2.9560333747        0.0000527722        4.1799838105
 Au         2.9560287030        2.9550527722        4.1799852474
 Au         2.9560240298        5.9110527722        4.1799866848
 Au         5.9120333747        0.0000574454        4.1799845589
 Au         5.9120287030        2.9550574454        4.1799859958
 Au         5.9120240298        5.9110574454        4.1799874332
 Au         8.6700333747        0.0000618055        4.1799852572
 Au         8.6700287030        2.9550618055        4.1799866941
 Au         8.6700240298        5.9110618055        4.1799881315
 Au        11.6260333747        0.0000664787        4.1799860056
 Au        11.6260287030        2.9550664787        4.1799874425
 Au        11.6260240298        5.9110664787        4.1799888799
 Au         1.4780305089        1.4780494193        6.2699841549
 Au         1.4780258373        4.4330494193        6.2699855918
 Au         1.4780211641        7.3890494193        6.2699870292
 Au         4.4340305089        1.4780540925        6.2699849034
 Au         4.4340258373        4.4330540925        6.2699863403
 Au         4.4340211641        7.3890540925        6.2699877777
 Au         7.1920305089        1.4780584526        6.2699856017
 Au         7.1920258373        4.4330584526        6.2699870386
 Au         7.1920211641        7.3890584526        6.2699884760
 Au        10.1480305089        1.4780631258        6.2699863501
 Au        10.1480258373        4.4330631258        6.2699877870
 Au        10.1480211641        7.3890631258        6.2699892244
 Au        13.1040305089        1.4780677990        6.2699870986
 Au        13.1040258373        4.4330677990        6.2699885355
 Au        13.1040211641        7.3890677990        6.2699899728
 Au         0.0000323163        0.0000460664        8.3599830620
 Au         0.0000276447        2.9550460664        8.3599844989
 Au         0.0000229715        5.9110460664        8.3599859363
 Au         2.9560323163        0.0000507396        8.3599838105
 Au         2.9560276447        2.9550507396        8.3599852474
 Au         2.9560229715        5.9110507396        8.3599866848
 Au         5.9120323163        0.0000554128        8.3599845589
 Au         5.9120276447        2.9550554128        8.3599859958
 Au         5.9120229715        5.9110554128        8.3599874332
 Au         8.6700323163        0.0000597730        8.3599852572
 Au         8.6700276447        2.9550597730        8.3599866941
 Au         8.6700229715        5.9110597730        8.3599881315
 Au        11.6260323163        0.0000644462        8.3599860056
 Au        11.6260276447        2.9550644462        8.3599874425
 Au        11.6260229715        5.9110644462        8.3599888799
 Au         1.4780294506        1.4780473867       10.4499841549
 Au         1.4780247789        4.4330473867       10.4499855918
 Au         1.4780201057        7.3890473867       10.4499870292
 Au         4.4340294505        1.4780520599       10.4499849034
 Au         4.4340247789        4.4330520599       10.4499863403
 Au         4.4340201057        7.3890520599       10.4499877777
 Au         7.1920294505        1.4780564201       10.4499856017
 Au         7.1920247789        4.4330564201       10.4499870386
 Au         7.1920201057        7.3890564201       10.4499884760
 Au        10.1480294505        1.4780610933       10.4499863501
 Au        10.1480247789        4.4330610933       10.4499877870
 Au        10.1480201057        7.3890610933       10.4499892244
 Au        13.1040294505        1.4780657665       10.4499870986
 Au        13.1040247789        4.4330657665       10.4499885355
 Au        13.1040201057        7.3890657665       10.4499899728
  N         4.8554220404        5.9119519569       12.0317871661
  N         9.5280220370        5.9137593429       12.0339883500
  N         7.1920220034        5.9340556469       12.0399877685
  H        10.3194902592        5.9053238304       12.6848049520
  H         4.0684421349        5.9044569558       12.6895846324
  C         8.3716134870        5.9045503652       12.7273950567
  C         6.0000580832        5.9089033847       12.7963624370
  N         8.3196152842        5.8591998273       14.0820895470
  N         5.9337752086        5.8824837836       14.1008229282
  H         9.1938237691        5.8323594083       14.6034134549
  C         7.0903937260        5.8638742098       14.8438047902
  N         7.0755388268        5.8464611038       16.1287543027
  H         8.0200444401        5.8337483356       16.5270468651
 Au         7.3120197239        5.9340514588       21.0429877988
 Au         5.8130168591        7.4340481413       22.9919881487
 Au         8.8130216018        4.4340528840       22.9919874495
 Au         5.8130216034        4.4330481413       22.9919866894
 Au         8.8130168590        7.4340528840       22.9919889083
 Au         1.4780257458        1.4780402717       25.0819841549
 Au         1.4780210742        4.4330402717       25.0819855918
 Au         1.4780164010        7.3890402717       25.0819870292
 Au         4.4340257458        1.4780449449       25.0819849034
 Au         4.4340210742        4.4330449449       25.0819863403
 Au         4.4340164010        7.3890449449       25.0819877777
 Au         7.1920257458        1.4780493051       25.0819856017
 Au         7.1920210742        4.4330493051       25.0819870386
 Au         7.1920164010        7.3890493051       25.0819884760
 Au        10.1480257458        1.4780539783       25.0819863501
 Au        10.1480210742        4.4330539783       25.0819877870
 Au        10.1480164010        7.3890539783       25.0819892244
 Au        13.1040257458        1.4780586515       25.0819870986
 Au        13.1040210742        4.4330586515       25.0819885355
 Au        13.1040164010        7.3890586515       25.0819899728
 Au         0.0000275533        0.0000369188       27.1719830620
 Au         0.0000228817        2.9550369188       27.1719844989
 Au         0.0000182085        5.9110369188       27.1719859363
 Au         2.9560275533        0.0000415920       27.1719838105
 Au         2.9560228817        2.9550415920       27.1719852474
 Au         2.9560182085        5.9110415920       27.1719866848
 Au         5.9120275533        0.0000462652       27.1719845589
 Au         5.9120228816        2.9550462652       27.1719859958
 Au         5.9120182085        5.9110462652       27.1719874332
 Au         8.6700275533        0.0000506254       27.1719852572
 Au         8.6700228816        2.9550506254       27.1719866941
 Au         8.6700182084        5.9110506254       27.1719881315
 Au        11.6260275533        0.0000552986       27.1719860056
 Au        11.6260228816        2.9550552986       27.1719874425
 Au        11.6260182084        5.9110552986       27.1719888799
 Au         1.4780246875        1.4780382391       29.2619841549
 Au         1.4780200159        4.4330382391       29.2619855918
 Au         1.4780153427        7.3890382391       29.2619870292
 Au         4.4340246875        1.4780429123       29.2619849034
 Au         4.4340200159        4.4330429123       29.2619863403
 Au         4.4340153427        7.3890429123       29.2619877777
 Au         7.1920246875        1.4780472725       29.2619856017
 Au         7.1920200159        4.4330472725       29.2619870386
 Au         7.1920153427        7.3890472725       29.2619884760
 Au        10.1480246875        1.4780519457       29.2619863501
 Au        10.1480200159        4.4330519457       29.2619877870
 Au        10.1480153427        7.3890519457       29.2619892244
 Au        13.1040246875        1.4780566189       29.2619870986
 Au        13.1040200159        4.4330566189       29.2619885355
 Au        13.1040153427        7.3890566189       29.2619899728
 Au         0.0000264949        0.0000348863       31.3519830620
 Au         0.0000218233        2.9550348863       31.3519844989
 Au         0.0000171501        5.9110348863       31.3519859363
 Au         2.9560264949        0.0000395595       31.3519838105
 Au         2.9560218233        2.9550395595       31.3519852474
 Au         2.9560171501        5.9110395594       31.3519866848
 Au         5.9120264949        0.0000442327       31.3519845589
 Au         5.9120218233        2.9550442327       31.3519859958
 Au         5.9120171501        5.9110442326       31.3519874332
 Au         8.6700264949        0.0000485928       31.3519852572
 Au         8.6700218233        2.9550485928       31.3519866941
 Au         8.6700171501        5.9110485928       31.3519881315
 Au        11.6260264949        0.0000532660       31.3519860056
 Au        11.6260218233        2.9550532660       31.3519874425
 Au        11.6260171501        5.9110532660       31.3519888799
 Au         1.4780236292        1.4780362066       33.4419841549
 Au         1.4780189575        4.4330362066       33.4419855918
 Au         1.4780142843        7.3890362066       33.4419870292
 Au         4.4340236292        1.4780408798       33.4419849034
 Au         4.4340189575        4.4330408798       33.4419863403
 Au         4.4340142843        7.3890408798       33.4419877777
 Au         7.1920236292        1.4780452399       33.4419856017
 Au         7.1920189575        4.4330452399       33.4419870386
 Au         7.1920142843        7.3890452399       33.4419884760
 Au        10.1480236291        1.4780499131       33.4419863501
 Au        10.1480189575        4.4330499131       33.4419877870
 Au        10.1480142843        7.3890499131       33.4419892244
 Au        13.1040236291        1.4780545863       33.4419870986
 Au        13.1040189575        4.4330545863       33.4419885355
 Au        13.1040142843        7.3890545863       33.4419899728
     183
 i =       2, E =    -5729.7721846639
 Au         0.0000344330        0.0000501315       -0.0000169380
 Au         0.0000297614        2.9550501315       -0.0000155011
 Au         0.0000250882        5.9110501315       -0.0000140637
 Au         2.9560344330        0.0000548047       -0.0000161895
 Au         2.9560297614        2.9550548047       -0.0000147526
 Au         2.9560250882        5.9110548047       -0.0000133152
 Au         5.9120344330        0.0000594779       -0.0000154411
 Au         5.9120297614        2.9550594779       -0.0000140042
 Au         5.9120250882        5.9110594779       -0.0000125668
 Au         8.6700344330        0.0000638381       -0.0000147428
 Au         8.6700297614        2.9550638381       -0.0000133059
 Au         8.6700250882        5.9110638381       -0.0000118685
 Au        11.6260344330        0.0000685113       -0.0000139944
 Au        11.6260297614        2.9550685113       -0.0000125575
 Au        11.6260250882        5.9110685113       -0.0000111201
 Au         1.4780315672        1.4780514518        2.0899841549
 Au         1.4780268956        4.4330514518        2.0899855918
 Au         1.4780222224        7.3890514518        2.0899870292
 Au         4.4340315672        1.4780561250        2.0899849034
 Au         4.4340268956        4.4330561250        2.0899863403
 Au         4.4340222224        7.3890561250        2.0899877777
 Au         7.1920315672        1.4780604852        2.0899856017
 Au         7.1920268956        4.4330604852        2.0899870386
 Au         7.1920222224        7.3890604852        2.0899884760
 Au        10.1480315672        1.4780651584        2.0899863501
 Au        10.1480268956        4.4330651584        2.0899877870
 Au        10.1480222224        7.3890651584        2.0899892244
 Au        13.1040315672        1.4780698316        2.0899870986
 Au        13.1040268956        4.4330698316        2.0899885355
 Au        13.1040222224        7.3890698316        2.0899899729
 Au         0.0000333747        0.0000480990        4.1799830620
 Au         0.0000287030        2.9550480990        4.1799844989
 Au         0.0000240299        5.9110480990        4.1799859363
 Au         2.9560333747        0.0000527722        4.1799838105
 Au         2.9560287030        2.9550527722        4.1799852474
 Au         2.9560240298        5.9110527722        4.1799866848
 Au         5.9120333747        0.0000574454        4.1799845589
 Au         5.9120287030        2.9550574454        4.1799859958
 Au         5.9120240298        5.9110574454        4.1799874332
 Au         8.6700333747        0.0000618055        4.1799852572
 Au         8.6700287030        2.9550618055        4.1799866941
 Au         8.6700240298        5.9110618055        4.1799881315
 Au        11.6260333747        0.0000664787        4.1799860056
 Au        11.6260287030        2.9550664787        4.1799874425
 Au        11.6260240298        5.9110664787        4.1799888799
 Au         1.4780305089        1.4780494193        6.2699841549
 Au         1.4780258373        4.4330494193        6.2699855918
 Au         1.4780211641        7.3890494193        6.2699870292
 Au         4.4340305089        1.4780540925        6.2699849034
 Au         4.4340258373        4.4330540925        6.2699863403
 Au         4.4340211641        7.3890540925        6.2699877777
 Au         7.1920305089        1.4780584526        6.2699856017
 Au         7.1920258373        4.4330584526        6.2699870386
 Au         7.1920211641        7.3890584526        6.2699884760
 Au        10.1480305089        1.4780631258        6.2699863501
 Au        10.1480258373        4.4330631258        6.2699877870
 Au        10.1480211641        7.3890631258        6.2699892244
 Au        13.1040305089        1.4780677990        6.2699870986
 Au        13.1040258373        4.4330677990        6.2699885355
 Au        13.1040211641        7.3890677990        6.2699899728
 Au         0.0000323163        0.0000460664        8.3599830620
 Au         0.0000276447        2.9550460664        8.3599844989
 Au         0.0000229715        5.9110460664        8.3599859363
 Au         2.9560323163        0.0000507396        8.3599838105
 Au         2.9560276447        2.9550507396        8.3599852474
 Au         2.9560229715        5.9110507396        8.3599866848
 Au         5.9120323163        0.0000554128        8.3599845589
 Au         5.9120276447        2.9550554128        8.3599859958
 Au         5.9120229715        5.9110554128        8.3599874332
 Au         8.6700323163        0.0000597730        8.3599852572
 Au         8.6700276447        2.9550597730        8.3599866941
 Au         8.6700229715        5.9110597730        8.3599881315
 Au        11.6260323163        0.0000644462        8.3599860056
 Au        11.6260276447        2.9550644462        8.3599874425
 Au        11.6260229715        5.9110644462        8.3599888799
 Au         1.4780294506        1.4780473867       10.4499841549
 Au         1.4780247789        4.4330473867       10.4499855918
 Au         1.4780201057        7.3890473867       10.4499870292
 Au         4.4340294505        1.4780520599       10.4499849034
 Au         4.4340247789        4.4330520599       10.4499863403
 Au         4.4340201057        7.3890520599       10.4499877777
 Au         7.1920294505        1.4780564201       10.4499856017
 Au         7.1920247789        4.4330564201       10.4499870386
 Au         7.1920201057        7.3890564201       10.4499884760
 Au        10.1480294505        1.4780610933       10.4499863501
 Au        10.1480247789        4.4330610933       10.4499877870
 Au        10.1480201057        7.3890610933       10.4499892244
 Au        13.1040294505        1.4780657665       10.4499870986
 Au        13.1040247789        4.4330657665       10.4499885355
 Au        13.1040201057        7.3890657665       10.4499899728
  N         4.8554220404        5.9119519569       12.0317871661
  N         9.5280220370        5.9137593429       12.0339883500
  N         7.1920220034        5.9340556469       12.0399877685