 # Version information for this restart file 
 # current date 2024-01-11 00:30:51.030
 # current working dir /gpfs/home/cahart/transport/melamine/au_from-h2/ci-neb/ts2/dft_leads-sz_tip-dzvp_surf-dzvp_kpoints-2-4-20_replicas-5
 # Program compiled at                              Thu 21 Sep 19:20:17 BST 2023
 # Program compiled on                                           hx1-c12-login-1
 # Program compiled for                                                    local
 # Source code revision number                                       git:5518aa6
 &GLOBAL
   EXTENDED_FFT_LENGTHS  T
   PRINT_LEVEL  MEDIUM
   PROJECT_NAME 2_dft_wfn-r-0
   OUTPUT_FILE_NAME 2_dft_wfn-r-0.out
   RUN_TYPE  BAND
 &END GLOBAL
 &MOTION
   &CONSTRAINT
     &FIXED_ATOMS
       LIST  1..93 104..183
     &END FIXED_ATOMS
   &END CONSTRAINT
   &BAND
     NPROC_REP  64
     BAND_TYPE  CI-NEB
     NUMBER_OF_REPLICA  5
     K_SPRING     5.0000000000000003E-02
     &CI_NEB
       NSTEPS_IT  5
     &END CI_NEB
     &OPTIMIZE_BAND
       OPT_TYPE  DIIS
       &DIIS
         MAX_STEPS  1000
       &END DIIS
     &END OPTIMIZE_BAND
     &REPLICA
       &COORD
             0.0000000000000000E+00    0.0000000000000000E+00    0.0000000000000000E+00
             0.0000000000000000E+00    2.9550000000000107E+00    0.0000000000000000E+00
             0.0000000000000000E+00    5.9110000000000138E+00    0.0000000000000000E+00
             2.9560000000000115E+00    0.0000000000000000E+00    0.0000000000000000E+00
             2.9560000000000115E+00    2.9550000000000107E+00    0.0000000000000000E+00
             2.9560000000000115E+00    5.9110000000000138E+00    0.0000000000000000E+00
             5.9120000000000230E+00    0.0000000000000000E+00    0.0000000000000000E+00
             5.9120000000000230E+00    2.9550000000000107E+00    0.0000000000000000E+00
             5.9120000000000230E+00    5.9110000000000138E+00    0.0000000000000000E+00
             8.6700000000000284E+00    0.0000000000000000E+00    0.0000000000000000E+00
             8.6700000000000284E+00    2.9550000000000107E+00    0.0000000000000000E+00
             8.6700000000000284E+00    5.9110000000000138E+00    0.0000000000000000E+00
             1.1626000000000039E+01    0.0000000000000000E+00    0.0000000000000000E+00
             1.1626000000000039E+01    2.9550000000000107E+00    0.0000000000000000E+00
             1.1626000000000039E+01    5.9110000000000138E+00    0.0000000000000000E+00
             1.4780000000000058E+00    1.4780000000000058E+00    2.0900000000000092E+00
             1.4780000000000058E+00    4.4330000000000176E+00    2.0900000000000092E+00
             1.4780000000000058E+00    7.3890000000000287E+00    2.0900000000000092E+00
             4.4340000000000170E+00    1.4780000000000058E+00    2.0900000000000092E+00
             4.4340000000000170E+00    4.4330000000000176E+00    2.0900000000000092E+00
             4.4340000000000170E+00    7.3890000000000287E+00    2.0900000000000092E+00
             7.1920000000000224E+00    1.4780000000000058E+00    2.0900000000000092E+00
             7.1920000000000224E+00    4.4330000000000176E+00    2.0900000000000092E+00
             7.1920000000000224E+00    7.3890000000000287E+00    2.0900000000000092E+00
             1.0148000000000042E+01    1.4780000000000058E+00    2.0900000000000092E+00
             1.0148000000000042E+01    4.4330000000000176E+00    2.0900000000000092E+00
             1.0148000000000042E+01    7.3890000000000287E+00    2.0900000000000092E+00
             1.3104000000000051E+01    1.4780000000000058E+00    2.0900000000000092E+00
             1.3104000000000051E+01    4.4330000000000176E+00    2.0900000000000092E+00
             1.3104000000000051E+01    7.3890000000000287E+00    2.0900000000000092E+00
             0.0000000000000000E+00    0.0000000000000000E+00    4.1800000000000184E+00
             0.0000000000000000E+00    2.9550000000000107E+00    4.1800000000000184E+00
             0.0000000000000000E+00    5.9110000000000138E+00    4.1800000000000184E+00
             2.9560000000000115E+00    0.0000000000000000E+00    4.1800000000000184E+00
             2.9560000000000115E+00    2.9550000000000107E+00    4.1800000000000184E+00
             2.9560000000000115E+00    5.9110000000000138E+00    4.1800000000000184E+00
             5.9120000000000230E+00    0.0000000000000000E+00    4.1800000000000184E+00
             5.9120000000000230E+00    2.9550000000000107E+00    4.1800000000000184E+00
             5.9120000000000230E+00    5.9110000000000138E+00    4.1800000000000184E+00
             8.6700000000000284E+00    0.0000000000000000E+00    4.1800000000000184E+00
             8.6700000000000284E+00    2.9550000000000107E+00    4.1800000000000184E+00
             8.6700000000000284E+00    5.9110000000000138E+00    4.1800000000000184E+00
             1.1626000000000039E+01    0.0000000000000000E+00    4.1800000000000184E+00
             1.1626000000000039E+01    2.9550000000000107E+00    4.1800000000000184E+00
             1.1626000000000039E+01    5.9110000000000138E+00    4.1800000000000184E+00
             1.4780000000000058E+00    1.4780000000000058E+00    6.2700000000000191E+00
             1.4780000000000058E+00    4.4330000000000176E+00    6.2700000000000191E+00
             1.4780000000000058E+00    7.3890000000000287E+00    6.2700000000000191E+00
             4.4340000000000170E+00    1.4780000000000058E+00    6.2700000000000191E+00
             4.4340000000000170E+00    4.4330000000000176E+00    6.2700000000000191E+00
             4.4340000000000170E+00    7.3890000000000287E+00    6.2700000000000191E+00
             7.1920000000000224E+00    1.4780000000000058E+00    6.2700000000000191E+00
             7.1920000000000224E+00    4.4330000000000176E+00    6.2700000000000191E+00
             7.1920000000000224E+00    7.3890000000000287E+00    6.2700000000000191E+00
             1.0148000000000042E+01    1.4780000000000058E+00    6.2700000000000191E+00
             1.0148000000000042E+01    4.4330000000000176E+00    6.2700000000000191E+00
             1.0148000000000042E+01    7.3890000000000287E+00    6.2700000000000191E+00
             1.3104000000000051E+01    1.4780000000000058E+00    6.2700000000000191E+00
             1.3104000000000051E+01    4.4330000000000176E+00    6.2700000000000191E+00
             1.3104000000000051E+01    7.3890000000000287E+00    6.2700000000000191E+00
             0.0000000000000000E+00    0.0000000000000000E+00    8.3600000000000367E+00
             0.0000000000000000E+00    2.9550000000000107E+00    8.3600000000000367E+00
             0.0000000000000000E+00    5.9110000000000138E+00    8.3600000000000367E+00
             2.9560000000000115E+00    0.0000000000000000E+00    8.3600000000000367E+00
             2.9560000000000115E+00    2.9550000000000107E+00    8.3600000000000367E+00
             2.9560000000000115E+00    5.9110000000000138E+00    8.3600000000000367E+00
             5.9120000000000230E+00    0.0000000000000000E+00    8.3600000000000367E+00
             5.9120000000000230E+00    2.9550000000000107E+00    8.3600000000000367E+00
             5.9120000000000230E+00    5.9110000000000138E+00    8.3600000000000367E+00
             8.6700000000000284E+00    0.0000000000000000E+00    8.3600000000000367E+00
             8.6700000000000284E+00    2.9550000000000107E+00    8.3600000000000367E+00
             8.6700000000000284E+00    5.9110000000000138E+00    8.3600000000000367E+00
             1.1626000000000039E+01    0.0000000000000000E+00    8.3600000000000367E+00
             1.1626000000000039E+01    2.9550000000000107E+00    8.3600000000000367E+00
             1.1626000000000039E+01    5.9110000000000138E+00    8.3600000000000367E+00
             1.4780000000000058E+00    1.4780000000000058E+00    1.0450000000000031E+01
             1.4780000000000058E+00    4.4330000000000176E+00    1.0450000000000031E+01
             1.4780000000000058E+00    7.3890000000000287E+00    1.0450000000000031E+01
             4.4340000000000170E+00    1.4780000000000058E+00    1.0450000000000031E+01
             4.4340000000000170E+00    4.4330000000000176E+00    1.0450000000000031E+01
             4.4340000000000170E+00    7.3890000000000287E+00    1.0450000000000031E+01
             7.1920000000000224E+00    1.4780000000000058E+00    1.0450000000000031E+01
             7.1920000000000224E+00    4.4330000000000176E+00    1.0450000000000031E+01
             7.1920000000000224E+00    7.3890000000000287E+00    1.0450000000000031E+01
             1.0148000000000042E+01    1.4780000000000058E+00    1.0450000000000031E+01
             1.0148000000000042E+01    4.4330000000000176E+00    1.0450000000000031E+01
             1.0148000000000042E+01    7.3890000000000287E+00    1.0450000000000031E+01
             1.3104000000000051E+01    1.4780000000000058E+00    1.0450000000000031E+01
             1.3104000000000051E+01    4.4330000000000176E+00    1.0450000000000031E+01
             1.3104000000000051E+01    7.3890000000000287E+00    1.0450000000000031E+01
             4.8554000000000173E+00    5.9119000000000170E+00    1.2031800000000031E+01
             9.5280000000000236E+00    5.9137000000000244E+00    1.2034000000000038E+01
             7.1920000000000224E+00    5.9340000000000215E+00    1.2040000000000036E+01
             1.0318905404800036E+01    5.9087793826000228E+00    1.2685747073200043E+01
             4.0673339928000134E+00    5.9059993220000209E+00    1.2687741368900040E+01
             8.3738707293000321E+00    5.9179777707000207E+00    1.2731457252200032E+01
             5.9989554222000185E+00    5.9152564166000223E+00    1.2792642411200042E+01
             8.3227525762000329E+00    5.9051536095000232E+00    1.4080497642100056E+01
             5.9344285049000192E+00    5.8981604865000232E+00    1.4101749969600050E+01
             9.1743570613000358E+00    5.8876302392000195E+00    1.4641017735300048E+01
             7.1039653577000257E+00    5.8899410689000229E+00    1.4828703219100044E+01
             7.2416021047000276E+00    5.8657702092000203E+00    1.6106466757300076E+01
             6.3118250323000229E+00    5.8547577071000187E+00    1.6539601306200062E+01
             7.3120000000000243E+00    5.9340000000000215E+00    2.1043000000000067E+01
             5.8130000000000193E+00    7.4340000000000268E+00    2.2992000000000100E+01
             8.8130000000000290E+00    4.4340000000000170E+00    2.2992000000000100E+01
             5.8130000000000193E+00    4.4330000000000176E+00    2.2992000000000100E+01
             8.8130000000000290E+00    7.4340000000000268E+00    2.2992000000000100E+01
             1.4780000000000058E+00    1.4780000000000058E+00    2.5082000000000072E+01
             1.4780000000000058E+00    4.4330000000000176E+00    2.5082000000000072E+01
             1.4780000000000058E+00    7.3890000000000287E+00    2.5082000000000072E+01
             4.4340000000000170E+00    1.4780000000000058E+00    2.5082000000000072E+01
             4.4340000000000170E+00    4.4330000000000176E+00    2.5082000000000072E+01
             4.4340000000000170E+00    7.3890000000000287E+00    2.5082000000000072E+01
             7.1920000000000224E+00    1.4780000000000058E+00    2.5082000000000072E+01
             7.1920000000000224E+00    4.4330000000000176E+00    2.5082000000000072E+01
             7.1920000000000224E+00    7.3890000000000287E+00    2.5082000000000072E+01
             1.0148000000000042E+01    1.4780000000000058E+00    2.5082000000000072E+01
             1.0148000000000042E+01    4.4330000000000176E+00    2.5082000000000072E+01
             1.0148000000000042E+01    7.3890000000000287E+00    2.5082000000000072E+01
             1.3104000000000051E+01    1.4780000000000058E+00    2.5082000000000072E+01
             1.3104000000000051E+01    4.4330000000000176E+00    2.5082000000000072E+01
             1.3104000000000051E+01    7.3890000000000287E+00    2.5082000000000072E+01
             0.0000000000000000E+00    0.0000000000000000E+00    2.7172000000000097E+01
             0.0000000000000000E+00    2.9550000000000107E+00    2.7172000000000097E+01
             0.0000000000000000E+00    5.9110000000000138E+00    2.7172000000000097E+01
             2.9560000000000115E+00    0.0000000000000000E+00    2.7172000000000097E+01
             2.9560000000000115E+00    2.9550000000000107E+00    2.7172000000000097E+01
             2.9560000000000115E+00    5.9110000000000138E+00    2.7172000000000097E+01
             5.9120000000000230E+00    0.0000000000000000E+00    2.7172000000000097E+01
             5.9120000000000230E+00    2.9550000000000107E+00    2.7172000000000097E+01
             5.9120000000000230E+00    5.9110000000000138E+00    2.7172000000000097E+01
             8.6700000000000284E+00    0.0000000000000000E+00    2.7172000000000097E+01
             8.6700000000000284E+00    2.9550000000000107E+00    2.7172000000000097E+01
             8.6700000000000284E+00    5.9110000000000138E+00    2.7172000000000097E+01
             1.1626000000000039E+01    0.0000000000000000E+00    2.7172000000000097E+01
             1.1626000000000039E+01    2.9550000000000107E+00    2.7172000000000097E+01
             1.1626000000000039E+01    5.9110000000000138E+00    2.7172000000000097E+01
             1.4780000000000058E+00    1.4780000000000058E+00    2.9262000000000125E+01
             1.4780000000000058E+00    4.4330000000000176E+00    2.9262000000000125E+01
             1.4780000000000058E+00    7.3890000000000287E+00    2.9262000000000125E+01
             4.4340000000000170E+00    1.4780000000000058E+00    2.9262000000000125E+01
             4.4340000000000170E+00    4.4330000000000176E+00    2.9262000000000125E+01
             4.4340000000000170E+00    7.3890000000000287E+00    2.9262000000000125E+01
             7.1920000000000224E+00    1.4780000000000058E+00    2.9262000000000125E+01
             7.1920000000000224E+00    4.4330000000000176E+00    2.9262000000000125E+01
             7.1920000000000224E+00    7.3890000000000287E+00    2.9262000000000125E+01
             1.0148000000000042E+01    1.4780000000000058E+00    2.9262000000000125E+01
             1.0148000000000042E+01    4.4330000000000176E+00    2.9262000000000125E+01
             1.0148000000000042E+01    7.3890000000000287E+00    2.9262000000000125E+01
             1.3104000000000051E+01    1.4780000000000058E+00    2.9262000000000125E+01
             1.3104000000000051E+01    4.4330000000000176E+00    2.9262000000000125E+01
             1.3104000000000051E+01    7.3890000000000287E+00    2.9262000000000125E+01
             0.0000000000000000E+00    0.0000000000000000E+00    3.1352000000000093E+01
             0.0000000000000000E+00    2.9550000000000107E+00    3.1352000000000093E+01
             0.0000000000000000E+00    5.9110000000000138E+00    3.1352000000000093E+01
             2.9560000000000115E+00    0.0000000000000000E+00    3.1352000000000093E+01
             2.9560000000000115E+00    2.9550000000000107E+00    3.1352000000000093E+01
             2.9560000000000115E+00    5.9110000000000138E+00    3.1352000000000093E+01
             5.9120000000000230E+00    0.0000000000000000E+00    3.1352000000000093E+01
             5.9120000000000230E+00    2.9550000000000107E+00    3.1352000000000093E+01
             5.9120000000000230E+00    5.9110000000000138E+00    3.1352000000000093E+01
             8.6700000000000284E+00    0.0000000000000000E+00    3.1352000000000093E+01
             8.6700000000000284E+00    2.9550000000000107E+00    3.1352000000000093E+01
             8.6700000000000284E+00    5.9110000000000138E+00    3.1352000000000093E+01
             1.1626000000000039E+01    0.0000000000000000E+00    3.1352000000000093E+01
             1.1626000000000039E+01    2.9550000000000107E+00    3.1352000000000093E+01
             1.1626000000000039E+01    5.9110000000000138E+00    3.1352000000000093E+01
             1.4780000000000058E+00    1.4780000000000058E+00    3.3442000000000093E+01
             1.4780000000000058E+00    4.4330000000000176E+00    3.3442000000000093E+01
             1.4780000000000058E+00    7.3890000000000287E+00    3.3442000000000093E+01
             4.4340000000000170E+00    1.4780000000000058E+00    3.3442000000000093E+01
             4.4340000000000170E+00    4.4330000000000176E+00    3.3442000000000093E+01
             4.4340000000000170E+00    7.3890000000000287E+00    3.3442000000000093E+01
             7.1920000000000224E+00    1.4780000000000058E+00    3.3442000000000093E+01
             7.1920000000000224E+00    4.4330000000000176E+00    3.3442000000000093E+01
             7.1920000000000224E+00    7.3890000000000287E+00    3.3442000000000093E+01
             1.0148000000000042E+01    1.4780000000000058E+00    3.3442000000000093E+01
             1.0148000000000042E+01    4.4330000000000176E+00    3.3442000000000093E+01
             1.0148000000000042E+01    7.3890000000000287E+00    3.3442000000000093E+01
             1.3104000000000051E+01    1.4780000000000058E+00    3.3442000000000093E+01
             1.3104000000000051E+01    4.4330000000000176E+00    3.3442000000000093E+01
             1.3104000000000051E+01    7.3890000000000287E+00    3.3442000000000093E+01
       &END COORD
       &VELOCITY
             0.0000000000000000E+00    0.0000000000000000E+00    0.0000000000000000E+00
             0.0000000000000000E+00    0.0000000000000000E+00    0.0000000000000000E+00
             0.0000000000000000E+00    0.0000000000000000E+00    0.0000000000000000E+00
             0.0000000000000000E+00    0.0000000000000000E+00    0.0000000000000000E+00
             0.0000000000000000E+00    0.0000000000000000E+00    0.0000000000000000E+00
             0.0000000000000000E+00    0.0000000000000000E+00    0.0000000000000000E+00
             0.0000000000000000E+00    0.0000000000000000E+00    0.0000000000000000E+00
             0.0000000000000000E+00    0.0000000000000000E+00    0.0000000000000000E+00
             0.0000000000000000E+00    0.0000000000000000E+00    0.0000000000000000E+00
             0.0000000000000000E+00    0.0000000000000000E+00    0.0000000000000000E+00
             0.0000000000000000E+00    0.0000000000000000E+00    0.0000000000000000E+00
             0.0000000000000000E+00    0.0000000000000000E+00    0.0000000000000000E+00
             0.0000000000000000E+00    0.0000000000000000E+00    0.0000000000000000E+00
             0.0000000000000000E+00    0.0000000000000000E+00    0.0000000000000000E+00
             0.0000000000000000E+00    0.0000000000000000E+00    0.0000000000000000E+00
             0.0000000000000000E+00    0.0000000000000000E+00    0.0000000000000000E+00
             0.0000000000000000E+00    0.0000000000000000E+00    0.0000000000000000E+00
             0.0000000000000000E+00    0.0000000000000000E+00    0.0000000000000000E+00
             0.0000000000000000E+00    0.0000000000000000E+00    0.0000000000000000E+00
             0.0000000000000000E+00    0.0000000000000000E+00    0.0000000000000000E+00
             0.0000000000000000E+00    0.0000000000000000E+00    0.0000000000000000E+00
             0.0000000000000000E+00    0.0000000000000000E+00    0.0000000000000000E+00
             0.0000000000000000E+00    0.0000000000000000E+00    0.0000000000000000E+00
             0.0000000000000000E+00    0.0000000000000000E+00    0.0000000000000000E+00
             0.0000000000000000E+00    0.0000000000000000E+00    0.0000000000000000E+00
             0.0000000000000000E+00    0.0000000000000000E+00    0.0000000000000000E+00
             0.0000000000000000E+00    0.0000000000000000E+00    0.0000000000000000E+00
             0.0000000000000000E+00    0.0000000000000000E+00    0.0000000000000000E+00
             0.0000000000000000E+00    0.0000000000000000E+00    0.0000000000000000E+00
             0.0000000000000000E+00    0.0000000000000000E+00    0.0000000000000000E+00
             0.0000000000000000E+00    0.0000000000000000E+00    0.0000000000000000E+00
             0.0000000000000000E+00    0.0000000000000000E+00    0.0000000000000000E+00
             0.0000000000000000E+00    0.0000000000000000E+00    0.0000000000000000E+00
             0.0000000000000000E+00    0.0000000000000000E+00    0.0000000000000000E+00
             0.0000000000000000E+00    0.0000000000000000E+00    0.0000000000000000E+00
             0.0000000000000000E+00    0.0000000000000000E+00    0.0000000000000000E+00
             0.0000000000000000E+00    0.0000000000000000E+00    0.0000000000000000E+00
             0.0000000000000000E+00    0.0000000000000000E+00    0.0000000000000000E+00
             0.0000000000000000E+00    0.0000000000000000E+00    0.0000000000000000E+00
             0.0000000000000000E+00    0.0000000000000000E+00    0.0000000000000000E+00
             0.0000000000000000E+00    0.0000000000000000E+00    0.0000000000000000E+00
             0.0000000000000000E+00    0.0000000000000000E+00    0.0000000000000000E+00
             0.0000000000000000E+00    0.0000000000000000E+00    0.0000000000000000E+00
             0.0000000000000000E+00    0.0000000000000000E+00    0.0000000000000000E+00
             0.0000000000000000E+00    0.0000000000000000E+00    0.0000000000000000E+00
             0.0000000000000000E+00    0.0000000000000000E+00    0.0000000000000000E+00
             0.0000000000000000E+00    0.0000000000000000E+00    0.0000000000000000E+00
             0.0000000000000000E+00    0.0000000000000000E+00    0.0000000000000000E+00
             0.0000000000000000E+00    0.0000000000000000E+00    0.0000000000000000E+00
             0.0000000000000000E+00    0.0000000000000000E+00    0.0000000000000000E+00
             0.0000000000000000E+00    0.0000000000000000E+00    0.0000000000000000E+00
             0.0000000000000000E+00    0.0000000000000000E+00    0.0000000000000000E+00
             0.0000000000000000E+00    0.0000000000000000E+00    0.0000000000000000E+00
             0.0000000000000000E+00    0.0000000000000000E+00    0.0000000000000000E+00
             0.0000000000000000E+00    0.0000000000000000E+00    0.0000000000000000E+00
             0.0000000000000000E+00    0.0000000000000000E+00    0.0000000000000000E+00
             0.0000000000000000E+00    0.0000000000000000E+00    0.0000000000000000E+00
             0.0000000000000000E+00    0.0000000000000000E+00    0.0000000000000000E+00
             0.0000000000000000E+00    0.0000000000000000E+00    0.0000000000000000E+00
             0.0000000000000000E+00    0.0000000000000000E+00    0.0000000000000000E+00
             0.0000000000000000E+00    0.0000000000000000E+00    0.0000000000000000E+00
             0.0000000000000000E+00    0.0000000000000000E+00    0.0000000000000000E+00
             0.0000000000000000E+00    0.0000000000000000E+00    0.0000000000000000E+00
             0.0000000000000000E+00    0.0000000000000000E+00    0.0000000000000000E+00
             0.0000000000000000E+00    0.0000000000000000E+00    0.0000000000000000E+00
             0.0000000000000000E+00    0.0000000000000000E+00    0.0000000000000000E+00
             0.0000000000000000E+00    0.0000000000000000E+00    0.0000000000000000E+00
             0.0000000000000000E+00    0.0000000000000000E+00    0.0000000000000000E+00
             0.0000000000000000E+00    0.0000000000000000E+00    0.0000000000000000E+00
             0.0000000000000000E+00    0.0000000000000000E+00    0.0000000000000000E+00
             0.0000000000000000E+00    0.0000000000000000E+00    0.0000000000000000E+00
             0.0000000000000000E+00    0.0000000000000000E+00    0.0000000000000000E+00
             0.0000000000000000E+00    0.0000000000000000E+00    0.0000000000000000E+00
             0.0000000000000000E+00    0.0000000000000000E+00    0.0000000000000000E+00
             0.0000000000000000E+00    0.0000000000000000E+00    0.0000000000000000E+00
             0.0000000000000000E+00    0.0000000000000000E+00    0.0000000000000000E+00
             0.0000000000000000E+00    0.0000000000000000E+00    0.0000000000000000E+00
             0.0000000000000000E+00    0.0000000000000000E+00    0.0000000000000000E+00
             0.0000000000000000E+00    0.0000000000000000E+00    0.0000000000000000E+00
             0.0000000000000000E+00    0.0000000000000000E+00    0.0000000000000000E+00
             0.0000000000000000E+00    0.0000000000000000E+00    0.0000000000000000E+00
             0.0000000000000000E+00    0.0000000000000000E+00    0.0000000000000000E+00
             0.0000000000000000E+00    0.0000000000000000E+00    0.0000000000000000E+00
             0.0000000000000000E+00    0.0000000000000000E+00    0.0000000000000000E+00
             0.0000000000000000E+00    0.0000000000000000E+00    0.0000000000000000E+00
             0.0000000000000000E+00    0.0000000000000000E+00    0.0000000000000000E+00
             0.0000000000000000E+00    0.0000000000000000E+00    0.0000000000000000E+00
             0.0000000000000000E+00    0.0000000000000000E+00    0.0000000000000000E+00
             0.0000000000000000E+00    0.0000000000000000E+00    0.0000000000000000E+00
             0.0000000000000000E+00    0.0000000000000000E+00    0.0000000000000000E+00
             0.0000000000000000E+00    0.0000000000000000E+00    0.0000000000000000E+00
             0.0000000000000000E+00    0.0000000000000000E+00    0.0000000000000000E+00
             0.0000000000000000E+00    0.0000000000000000E+00    0.0000000000000000E+00
             0.0000000000000000E+00    0.0000000000000000E+00    0.0000000000000000E+00
             0.0000000000000000E+00    0.0000000000000000E+00    0.0000000000000000E+00
             0.0000000000000000E+00    0.0000000000000000E+00    0.0000000000000000E+00
             0.0000000000000000E+00    0.0000000000000000E+00    0.0000000000000000E+00
             0.0000000000000000E+00    0.0000000000000000E+00    0.0000000000000000E+00
             0.0000000000000000E+00    0.0000000000000000E+00    0.0000000000000000E+00
             0.0000000000000000E+00    0.0000000000000000E+00    0.0000000000000000E+00
             0.0000000000000000E+00    0.0000000000000000E+00    0.0000000000000000E+00
             0.0000000000000000E+00    0.0000000000000000E+00    0.0000000000000000E+00
             0.0000000000000000E+00    0.0000000000000000E+00    0.0000000000000000E+00
             0.0000000000000000E+00    0.0000000000000000E+00    0.0000000000000000E+00
             0.0000000000000000E+00    0.0000000000000000E+00    0.0000000000000000E+00
             0.0000000000000000E+00    0.0000000000000000E+00    0.0000000000000000E+00
             0.0000000000000000E+00    0.0000000000000000E+00    0.0000000000000000E+00
             0.0000000000000000E+00    0.0000000000000000E+00    0.0000000000000000E+00
             0.0000000000000000E+00    0.0000000000000000E+00    0.0000000000000000E+00
             0.0000000000000000E+00    0.0000000000000000E+00    0.0000000000000000E+00
             0.0000000000000000E+00    0.0000000000000000E+00    0.0000000000000000E+00
             0.0000000000000000E+00    0.0000000000000000E+00    0.0000000000000000E+00
             0.0000000000000000E+00    0.0000000000000000E+00    0.0000000000000000E+00
             0.0000000000000000E+00    0.0000000000000000E+00    0.0000000000000000E+00
             0.0000000000000000E+00    0.0000000000000000E+00    0.0000000000000000E+00
             0.0000000000000000E+00    0.0000000000000000E+00    0.0000000000000000E+00
             0.0000000000000000E+00    0.0000000000000000E+00    0.0000000000000000E+00
             0.0000000000000000E+00    0.0000000000000000E+00    0.0000000000000000E+00
             0.0000000000000000E+00    0.0000000000000000E+00    0.0000000000000000E+00
             0.0000000000000000E+00    0.0000000000000000E+00    0.0000000000000000E+00
             0.0000000000000000E+00    0.0000000000000000E+00    0.0000000000000000E+00
             0.0000000000000000E+00    0.0000000000000000E+00    0.0000000000000000E+00
             0.0000000000000000E+00    0.0000000000000000E+00    0.0000000000000000E+00
             0.0000000000000000E+00    0.0000000000000000E+00    0.0000000000000000E+00
             0.0000000000000000E+00    0.0000000000000000E+00    0.0000000000000000E+00
             0.0000000000000000E+00    0.0000000000000000E+00    0.0000000000000000E+00
             0.0000000000000000E+00    0.0000000000000000E+00    0.0000000000000000E+00
             0.0000000000000000E+00    0.0000000000000000E+00    0.0000000000000000E+00
             0.0000000000000000E+00    0.0000000000000000E+00    0.0000000000000000E+00
             0.0000000000000000E+00    0.0000000000000000E+00    0.0000000000000000E+00
             0.0000000000000000E+00    0.0000000000000000E+00    0.0000000000000000E+00
             0.0000000000000000E+00    0.0000000000000000E+00    0.0000000000000000E+00
             0.0000000000000000E+00    0.0000000000000000E+00    0.0000000000000000E+00
             0.0000000000000000E+00    0.0000000000000000E+00    0.0000000000000000E+00
             0.0000000000000000E+00    0.0000000000000000E+00    0.0000000000000000E+00
             0.0000000000000000E+00    0.0000000000000000E+00    0.0000000000000000E+00
             0.0000000000000000E+00    0.0000000000000000E+00    0.0000000000000000E+00
             0.0000000000000000E+00    0.0000000000000000E+00    0.0000000000000000E+00
             0.0000000000000000E+00    0.0000000000000000E+00    0.0000000000000000E+00
             0.0000000000000000E+00    0.0000000000000000E+00    0.0000000000000000E+00
             0.0000000000000000E+00    0.0000000000000000E+00    0.0000000000000000E+00
             0.0000000000000000E+00    0.0000000000000000E+00    0.0000000000000000E+00
             0.0000000000000000E+00    0.0000000000000000E+00    0.0000000000000000E+00
             0.0000000000000000E+00    0.0000000000000000E+00    0.0000000000000000E+00