     183
 i =       0, E =    -5729.7310239752
 Au         0.0004645571        0.0009369867        0.0007448386
 Au         0.0005756338        2.9559369626        0.0003843867
 Au         0.0006867481        5.9119369385        0.0000238127
 Au         2.9564645527        0.0008258582        0.0006290672
 Au         2.9565756295        2.9558258341        0.0002686152
 Au         2.9566867438        5.9118258101       -0.0000919588
 Au         5.9124645484        0.0007147298        0.0005132957
 Au         5.9125756251        2.9557147057        0.0001528437
 Au         5.9126867394        5.9117146816       -0.0002077302
 Au         8.6704645443        0.0006110450        0.0004052789
 Au         8.6705756210        2.9556110209        0.0000448269
 Au         8.6706867354        5.9116109968       -0.0003157470
 Au        11.6264645399        0.0004999165        0.0002895074
 Au        11.6265756167        2.9554998924       -0.0000709446
 Au        11.6266867310        5.9114998684       -0.0004315185
 Au         1.4786019763        1.4791363463        2.0905066488
 Au         1.4787130530        4.4341363222        2.0901461968
 Au         1.4788241674        7.3901362981        2.0897856228
 Au         4.4346019719        1.4790252178        2.0903908773
 Au         4.4347130487        4.4340251938        2.0900304253
 Au         4.4348241630        7.3900251697        2.0896698514
 Au         7.1926019679        1.4789215330        2.0902828605
 Au         7.1927130446        4.4339215090        2.0899224085
 Au         7.1928241590        7.3899214849        2.0895618346
 Au        10.1486019635        1.4788104046        2.0901670890
 Au        10.1487130403        4.4338103805        2.0898066370
 Au        10.1488241546        7.3898103564        2.0894460631
 Au        13.1046019592        1.4786992761        2.0900513175
 Au        13.1047130359        4.4336992521        2.0896908656
 Au        13.1048241502        7.3896992280        2.0893302916
 Au         0.0006282856        0.0014468584        4.1807448043
 Au         0.0007393623        2.9564468344        4.1803843524
 Au         0.0008504766        5.9124468103        4.1800237784
 Au         2.9566282812        0.0013357300        4.1806290329
 Au         2.9567393579        2.9563357059        4.1802685809
 Au         2.9568504723        5.9123356818        4.1799080069
 Au         5.9126282768        0.0012246015        4.1805132614
 Au         5.9127393536        2.9562245775        4.1801528094
 Au         5.9128504679        5.9122245534        4.1797922355
 Au         8.6706282728        0.0011209167        4.1804052446
 Au         8.6707393495        2.9561208927        4.1800447926
 Au         8.6708504639        5.9121208686        4.1796842187
 Au        11.6266282684        0.0010097883        4.1802894731
 Au        11.6267393452        2.9560097642        4.1799290211
 Au        11.6268504595        5.9120097401        4.1795684472
 Au         1.4787657048        1.4796462181        6.2705066145
 Au         1.4788767815        4.4346461940        6.2701461625
 Au         1.4789878959        7.3906461699        6.2697855885
 Au         4.4347657004        1.4795350896        6.2703908430
 Au         4.4348767772        4.4345350655        6.2700303910
 Au         4.4349878915        7.3905350414        6.2696698171
 Au         7.1927656964        1.4794314048        6.2702828262
 Au         7.1928767731        4.4344313807        6.2699223742
 Au         7.1929878874        7.3904313566        6.2695618003
 Au        10.1487656920        1.4793202763        6.2701670547
 Au        10.1488767688        4.4343202523        6.2698066027
 Au        10.1489878831        7.3903202282        6.2694460288
 Au        13.1047656877        1.4792091479        6.2700512832
 Au        13.1048767644        4.4342091238        6.2696908313
 Au        13.1049878787        7.3902090997        6.2693302573
 Au         0.0007920140        0.0019567302        8.3607447700
 Au         0.0009030908        2.9569567061        8.3603843181
 Au         0.0010142051        5.9129566821        8.3600237441
 Au         2.9567920097        0.0018456017        8.3606289986
 Au         2.9569030864        2.9568455777        8.3602685466
 Au         2.9570142008        5.9128455536        8.3599079726
 Au         5.9127920053        0.0017344733        8.3605132271
 Au         5.9129030821        2.9567344492        8.3601527751
 Au         5.9130141964        5.9127344251        8.3597922012
 Au         8.6707920013        0.0016307885        8.3604052103
 Au         8.6709030780        2.9566307644        8.3600447583
 Au         8.6710141923        5.9126307403        8.3596841843
 Au        11.6267919969        0.0015196600        8.3602894388
 Au        11.6269030737        2.9565196360        8.3599289868
 Au        11.6270141880        5.9125196119        8.3595684129
 Au         1.4789294333        1.4801560898       10.4505065802
 Au         1.4790405100        4.4351560657       10.4501461282
 Au         1.4791516243        7.3911560417       10.4497855542
 Au         4.4349294289        1.4800449614       10.4503908087
 Au         4.4350405057        4.4350449373       10.4500303567
 Au         4.4351516200        7.3910449132       10.4496697828
 Au         7.1929294249        1.4799412766       10.4502827919
 Au         7.1930405016        4.4349412525       10.4499223399
 Au         7.1931516159        7.3909412284       10.4495617660
 Au        10.1489294205        1.4798301481       10.4501670204
 Au        10.1490404972        4.4348301240       10.4498065684
 Au        10.1491516116        7.3908301000       10.4494459945
 Au        13.1049294161        1.4797190197       10.4500512489
 Au        13.1050404929        4.4347189956       10.4496907970
 Au        13.1051516072        7.3907189715       10.4493302230
  N         4.8561580283        5.9132220687       12.0318335683
  N         9.5291581750        5.9150466350       12.0336503067
  N         7.1931592028        5.9361351867       12.0397392343
  H        10.3503823019        5.9251897183       12.6399169075
  H         4.0541830545        5.9185295416       12.6657643391
  C         8.3711853655        5.9366723216       12.7071930316
  C         5.9996871996        5.9358672825       12.7548860206
  N         8.3032399943        5.9672414400       14.0726919754
  N         5.9295410165        5.9671338732       14.0989849653
  H         9.1488605977        5.9266785687       14.6376638053
  C         7.0713707727        5.9988799071       14.8282363741
  N         7.1650188004        5.9332336562       16.1175407240
  H         7.2686729042        6.7222058942       16.7416404311
 Au         7.1935118458        5.9372333627       21.0427391605
 Au         5.9136354765        7.1955192099       22.9916358242
 Au         8.6715318008        4.4374155475       22.9918642293
 Au         5.9135317673        4.4365192323       22.9919723681
 Au         8.6716354724        7.1954155251       22.9915278074
 Au         1.4795025613        1.4819408850       25.0825064601
 Au         1.4796136381        4.4369408609       25.0821460081
 Au         1.4797247524        7.3929408368       25.0817854342
 Au         4.4355025570        1.4818297565       25.0823906886
 Au         4.4356136337        4.4368297324       25.0820302366
 Au         4.4357247480        7.3928297084       25.0816696627
 Au         7.1935025529        1.4817260717       25.0822826718
 Au         7.1936136296        4.4367260476       25.0819222198
 Au         7.1937247440        7.3927260236       25.0815616459
 Au        10.1495025485        1.4816149433       25.0821669003
 Au        10.1496136253        4.4366149192       25.0818064484
 Au        10.1497247396        7.3926148951       25.0814458744
 Au        13.1055025442        1.4815038148       25.0820511289
 Au        13.1056136209        4.4365037907       25.0816906769
 Au        13.1057247353        7.3925037667       25.0813301029
 Au         0.0015288706        0.0042513971       27.1727446157
 Au         0.0016399473        2.9592513730       27.1723841637
 Au         0.0017510616        5.9152513490       27.1720235897
 Au         2.9575288662        0.0041402687       27.1726288442
 Au         2.9576399430        2.9591402446       27.1722683922
 Au         2.9577510573        5.9151402205       27.1719078183
 Au         5.9135288619        0.0040291402       27.1725130727
 Au         5.9136399386        2.9590291161       27.1721526207
 Au         5.9137510529        5.9150290921       27.1717920468
 Au         8.6715288578        0.0039254554       27.1724050559
 Au         8.6716399345        2.9589254313       27.1720446039
 Au         8.6717510489        5.9149254073       27.1716840300
 Au        11.6275288534        0.0038143270       27.1722892844
 Au        11.6276399302        2.9588143029       27.1719288325
 Au        11.6277510445        5.9148142788       27.1715682585
 Au         1.4796662898        1.4824507567       29.2625064258
 Au         1.4797773665        4.4374507327       29.2621459738
 Au         1.4798884809        7.3934507086       29.2617853999
 Au         4.4356662854        1.4823396283       29.2623906543
 Au         4.4357773622        4.4373396042       29.2620302023
 Au         4.4358884765        7.3933395801       29.2616696284
 Au         7.1936662814        1.4822359435       29.2622826375
 Au         7.1937773581        4.4372359194       29.2619221855
 Au         7.1938884725        7.3932358953       29.2615616116
 Au        10.1496662770        1.4821248150       29.2621668660
 Au        10.1497773538        4.4371247909       29.2618064141
 Au        10.1498884681        7.3931247669       29.2614458401
 Au        13.1056662727        1.4820136866       29.2620510946
 Au        13.1057773494        4.4370136625       29.2616906426
 Au        13.1058884637        7.3930136384       29.2613300686
 Au         0.0016925991        0.0047612689       31.3527445814
 Au         0.0018036758        2.9597612448       31.3523841294
 Au         0.0019147901        5.9157612207       31.3520235554
 Au         2.9576925947        0.0046501404       31.3526288099
 Au         2.9578036714        2.9596501164       31.3522683579
 Au         2.9579147858        5.9156500923       31.3519077840
 Au         5.9136925903        0.0045390120       31.3525130384
 Au         5.9138036671        2.9595389879       31.3521525864
 Au         5.9139147814        5.9155389638       31.3517920125
 Au         8.6716925863        0.0044353272       31.3524050216
 Au         8.6718036630        2.9594353031       31.3520445696
 Au         8.6719147774        5.9154352790       31.3516839957
 Au        11.6276925819        0.0043241987       31.3522892501
 Au        11.6278036587        2.9593241746       31.3519287981
 Au        11.6279147730        5.9153241506       31.3515682242
 Au         1.4798300183        1.4829606285       33.4425063915
 Au         1.4799410950        4.4379606044       33.4421459395
 Au         1.4800522094        7.3939605803       33.4417853656
 Au         4.4358300139        1.4828495000       33.4423906200
 Au         4.4359410907        4.4378494760       33.4420301680
 Au         4.4360522050        7.3938494519       33.4416695941
 Au         7.1938300099        1.4827458152       33.4422826032
 Au         7.1939410866        4.4377457912       33.4419221512
 Au         7.1940522009        7.3937457671       33.4415615773
 Au        10.1498300055        1.4826346868       33.4421668317
 Au        10.1499410823        4.4376346627       33.4418063798
 Au        10.1500521966        7.3936346386       33.4414458058
 Au        13.1058300012        1.4825235583       33.4420510603
 Au        13.1059410779        4.4375235343       33.4416906083
 Au        13.1060521922        7.3935235102       33.4413300343
     183
 i =       1, E =    -5729.7328309126
 Au         0.0004642708        0.0009364147        0.0007443997
 Au         0.0005752827        2.9559363906        0.0003841620
 Au         0.0006863321        5.9119363665        0.0000238024
 Au         2.9564642665        0.0008253511        0.0006286969
 Au         2.9565752783        2.9558253271        0.0002684593
 Au         2.9566863278        5.9118253030       -0.0000919003
 Au         5.9124642621        0.0007142876        0.0005129942
 Au         5.9125752740        2.9557142635        0.0001527566
 Au         5.9126863234        5.9117142394       -0.0002076030
 Au         8.6704642581        0.0006106633        0.0004050416
 Au         8.6705752699        2.9556106393        0.0000448039
 Au         8.6706863194        5.9116106152       -0.0003155557
 Au        11.6264642537        0.0004995998        0.0002893388
 Au        11.6265752656        2.9554995757       -0.0000708988
 Au        11.6266863150        5.9114995516       -0.0004312584
 Au         1.4786016090        1.4791356552        2.0905063514
 Au         1.4787126209        4.4341356311        2.0901461137
 Au         1.4788236703        7.3901356070        2.0897857541
 Au         4.4346016046        1.4790245916        2.0903906487
 Au         4.4347126165        4.4340245675        2.0900304110
 Au         4.4348236659        7.3900245435        2.0896700514
 Au         7.1926016006        1.4789209674        2.0902826960
 Au         7.1927126124        4.4339209433        2.0899224583
 Au         7.1928236619        7.3899209192        2.0895620988
 Au        10.1486015962        1.4788099038        2.0901669933
 Au        10.1487126081        4.4338098798        2.0898067556
 Au        10.1488236575        7.3898098557        2.0894463960
 Au        13.1046015919        1.4786988403        2.0900512906
 Au        13.1047126037        4.4336988162        2.0896910529
 Au        13.1048236532        7.3896987921        2.0893306933
 Au         0.0006279021        0.0014459833        4.1807443654
 Au         0.0007389139        2.9564459592        4.1803841277
 Au         0.0008499634        5.9124459351        4.1800237681
 Au         2.9566278977        0.0013349197        4.1806286627
 Au         2.9567389096        2.9563348957        4.1802684250
 Au         2.9568499590        5.9123348716        4.1799080654
 Au         5.9126278934        0.0012238562        4.1805129599
 Au         5.9127389052        2.9562238321        4.1801527223
 Au         5.9128499547        5.9122238080        4.1797923627
 Au         8.6706278893        0.0011202319        4.1804050073
 Au         8.6707389012        2.9561202079        4.1800447696
 Au         8.6708499506        5.9121201838        4.1796844100
 Au        11.6266278849        0.0010091684        4.1802893046
 Au        11.6267388968        2.9560091443        4.1799290669
 Au        11.6268499463        5.9120091203        4.1795687073
 Au         1.4787652402        1.4796452238        6.2705063171
 Au         1.4788762521        4.4346451997        6.2701460794
 Au         1.4789873015        7.3906451756        6.2697857199
 Au         4.4347652359        1.4795341602        6.2703906144
 Au         4.4348762478        4.4345341362        6.2700303767
 Au         4.4349872972        7.3905341121        6.2696700171
 Au         7.1927652318        1.4794305360        6.2702826617
 Au         7.1928762437        4.4344305119        6.2699224240
 Au         7.1929872931        7.3904304878        6.2695620645
 Au        10.1487652275        1.4793194724        6.2701669590
 Au        10.1488762393        4.4343194484        6.2698067213
 Au        10.1489872888        7.3903194243        6.2694463618
 Au        13.1047652231        1.4792084089        6.2700512563
 Au        13.1048762350        4.4342083848        6.2696910186
 Au        13.1049872844        7.3902083608        6.2693306590
 Au         0.0007915333        0.0019555519        8.3607443311
 Au         0.0009025452        2.9569555278        8.3603840934
 Au         0.0010135946        5.9129555038        8.3600237339
 Au         2.9567915290        0.0018444883        8.3606286284
 Au         2.9569025408        2.9568444643        8.3602683907
 Au         2.9570135903        5.9128444402        8.3599080311
 Au         5.9127915246        0.0017334248        8.3605129257
 Au         5.9129025365        2.9567334007        8.3601526880
 Au         5.9130135859        5.9127333767        8.3597923284
 Au         8.6707915206        0.0016298005        8.3604049730
 Au         8.6709025324        2.9566297765        8.3600447353
 Au         8.6710135819        5.9126297524        8.3596843758
 Au        11.6267915162        0.0015187370        8.3602892703
 Au        11.6269025281        2.9565187129        8.3599290326
 Au        11.6270135775        5.9125186889        8.3595686730
 Au         1.4789288715        1.4801547924       10.4505062828
 Au         1.4790398834        4.4351547683       10.4501460451
 Au         1.4791509328        7.3911547443       10.4497856856
 Au         4.4349288671        1.4800437288       10.4503905801
 Au         4.4350398790        4.4350437048       10.4500303424
 Au         4.4351509284        7.3910436807       10.4496699829
 Au         7.1929288631        1.4799401046       10.4502826274
 Au         7.1930398749        4.4349400805       10.4499223898
 Au         7.1931509244        7.3909400565       10.4495620302
 Au        10.1489288587        1.4798290410       10.4501669247
 Au        10.1490398706        4.4348290170       10.4498066870
 Au        10.1491509200        7.3908289929       10.4494463275
 Au        13.1049288544        1.4797179775       10.4500512220
 Au        13.1050398662        4.4347179534       10.4496909843
 Au        13.1051509157        7.3907179294       10.4493306248
  N         4.8561575707        5.9132212668       12.0318335519
  N         9.5291574790        5.9150458164       12.0336505183
  N         7.1931585062        5.9361338994       12.0397393931
  H        10.3492199233        5.9251252387       12.6424666434
  H         4.0549244811        5.9184795428       12.6676082318
  C         8.3736694895        5.9365993934       12.7170549637
  C         6.0002549080        5.9358680205       12.7683144879
  N         8.3035987012        5.9671614038       14.0677685446
  N         5.9272873261        5.9666838258       14.0910322969
  H         9.1491382511        5.9267512653       14.6380158243
  C         7.0735153757        5.9981190695       14.8373818611
  N         7.1643400104        5.9352466906       16.1112137108
  H         7.2677215494        6.7207579850       16.7427729415
 Au         7.1935824206        5.9372314224       21.0427393192
 Au         5.9135755259        7.1956612532       22.9916360445
 Au         8.6716160637        4.4374134983       22.9918643136
 Au         5.9134718772        4.4365171227       22.9919723882
 Au         8.6717196749        7.1955576289       22.9915280918
 Au         1.4795016592        1.4819385263       25.0825061628
 Au         1.4796126710        4.4369385023       25.0821459251
 Au         1.4797237205        7.3929384782       25.0817855656
 Au         4.4355016548        1.4818274628       25.0823904601
 Au         4.4356126667        4.4368274387       25.0820302224
 Au         4.4357237161        7.3928274147       25.0816698628
 Au         7.1935016507        1.4817238385       25.0822825074
 Au         7.1936126626        4.4367238145       25.0819222697
 Au         7.1937237120        7.3927237904       25.0815619102
 Au        10.1495016464        1.4816127750       25.0821668047
 Au        10.1496126583        4.4366127509       25.0818065670
 Au        10.1497237077        7.3926127269       25.0814462075
 Au        13.1055016420        1.4815017114       25.0820511020
 Au        13.1056126539        4.4365016874       25.0816908643
 Au        13.1057237033        7.3925016633       25.0813305047
 Au         0.0015279522        0.0042488544       27.1727441768
 Au         0.0016389641        2.9592488304       27.1723839391
 Au         0.0017500135        5.9152488063       27.1720235796
 Au         2.9575279479        0.0041377909       27.1726284741
 Au         2.9576389598        2.9591377668       27.1722682364
 Au         2.9577500092        5.9151377428       27.1719078769
 Au         5.9135279435        0.0040267273       27.1725127714
 Au         5.9136389554        2.9590267033       27.1721525337
 Au         5.9137500048        5.9150266792       27.1717921741
 Au         8.6715279395        0.0039231031       27.1724048187
 Au         8.6716389513        2.9589230790       27.1720445810
 Au         8.6717500008        5.9149230550       27.1716842215
 Au        11.6275279351        0.0038120396       27.1722891160
 Au        11.6276389470        2.9588120155       27.1719288783
 Au        11.6277499964        5.9148119914       27.1715685187
 Au         1.4796652904        1.4824480949       29.2625061285
 Au         1.4797763023        4.4374480709       29.2621458909
 Au         1.4798873517        7.3934480468       29.2617855313
 Au         4.4356652861        1.4823370314       29.2623904258
 Au         4.4357762979        4.4373370073       29.2620301881
 Au         4.4358873474        7.3933369833       29.2616698286
 Au         7.1936652820        1.4822334072       29.2622824731
 Au         7.1937762939        4.4372333831       29.2619222355
 Au         7.1938873433        7.3932333590       29.2615618759
 Au        10.1496652776        1.4821223436       29.2621667704
 Au        10.1497762895        4.4371223195       29.2618065328
 Au        10.1498873389        7.3931222955       29.2614461732
 Au        13.1056652733        1.4820112801       29.2620510677
 Au        13.1057762852        4.4370112560       29.2616908300
 Au        13.1058873346        7.3930112319       29.2613304705
 Au         0.0016915835        0.0047584231       31.3527441425
 Au         0.0018025954        2.9597583990       31.3523839049
 Au         0.0019136448        5.9157583749       31.3520235453
 Au         2.9576915791        0.0046473595       31.3526284398
 Au         2.9578025910        2.9596473355       31.3522682021
 Au         2.9579136404        5.9156473114       31.3519078426
 Au         5.9136915748        0.0045362960       31.3525127371
 Au         5.9138025867        2.9595362719       31.3521524994
 Au         5.9139136361        5.9155362478       31.3517921399
 Au         8.6716915707        0.0044326717       31.3524047844
 Au         8.6718025826        2.9594326477       31.3520445468
 Au         8.6719136320        5.9154326236       31.3516841872
 Au        11.6276915664        0.0043216082       31.3522890817
 Au        11.6278025782        2.9593215841       31.3519288440
 Au        11.6279136277        5.9153215600       31.3515684845
 Au         1.4798289217        1.4829576636       33.4425060942
 Au         1.4799399335        4.4379576395       33.4421458566
 Au         1.4800509830        7.3939576154       33.4417854970
 Au         4.4358289173        1.4828466000       33.4423903915
 Au         4.4359399292        4.4378465760       33.4420301539
 Au         4.4360509786        7.3938465519       33.4416697943
 Au         7.1938289132        1.4827429758       33.4422824388
 Au         7.1939399251        4.4377429517       33.4419222012
 Au         7.1940509745        7.3937429276       33.4415618416
 Au        10.1498289089        1.4826319122       33.4421667361
 Au        10.1499399208        4.4376318882       33.4418064985
 Au        10.1500509702        7.3936318641       33.4414461389
 Au        13.1058289045        1.4825208487       33.4420510334
 Au        13.1059399164        4.4375208246       33.4416907958
 Au        13.1060509658        7.3935208005       33.4413304362
     183
 i =       2, E =    -5729.7331861916
 Au         0.0004638785        0.0009356307        0.0007437980
 Au         0.0005748014        2.9559356066        0.0003838541
 Au         0.0006857619        5.9119355826        0.0000237883
 Au         2.9564638741        0.0008246561        0.0006281895
 Au         2.9565747971        2.9558246320        0.0002682456
 Au         2.9566857576        5.9118246080       -0.0000918202
 Au         5.9124638698        0.0007136815        0.0005125810
 Au         5.9125747927        2.9557136574        0.0001526371
 Au         5.9126857532        5.9117136334       -0.0002074286
 Au         8.6704638657        0.0006101402        0.0004047163
 Au         8.6705747887        2.9556101162        0.0000447723
 Au         8.6706857492        5.9116100921       -0.0003152934
 Au        11.6264638614        0.0004991656        0.0002891078
 Au        11.6265747843        2.9554991416       -0.0000708361
 Au        11.6266857448        5.9114991175       -0.0004309019
 Au         1.4786011055        1.4791347079        2.0905059437
 Au         1.4787120285        4.4341346838        2.0901459998
 Au         1.4788229890        7.3901346598        2.0897859341
 Au         4.4346011012        1.4790237333        2.0903903353
 Au         4.4347120241        4.4340237093        2.0900303913
 Au         4.4348229846        7.3900236852        2.0896703256
 Au         7.1926010971        1.4789201920        2.0902824705
 Au         7.1927120201        4.4339201680        2.0899225266
 Au         7.1928229806        7.3899201440        2.0895624609
 Au        10.1486010928        1.4788092174        2.0901668620
 Au        10.1487120157        4.4338091934        2.0898069181
 Au        10.1488229762        7.3898091694        2.0894468524
 Au        13.1046010884        1.4786982429        2.0900512536
 Au        13.1047120114        4.4336982188        2.0896913096
 Au        13.1048229719        7.3896981948        2.0893312439
 Au         0.0006273765        0.0014447838        4.1807437637
 Au         0.0007382994        2.9564447597        4.1803838198
 Au         0.0008492599        5.9124447357        4.1800237541
 Au         2.9566273721        0.0013338092        4.1806281552
 Au         2.9567382951        2.9563337851        4.1802682113
 Au         2.9568492556        5.9123337611        4.1799081456
 Au         5.9126273678        0.0012228346        4.1805125468
 Au         5.9127382907        2.9562228105        4.1801526028
 Au         5.9128492512        5.9122227865        4.1797925371
 Au         8.6706273637        0.0011192933        4.1804046820
 Au         8.6707382867        2.9561192693        4.1800447381
 Au         8.6708492471        5.9121192452        4.1796846724
 Au        11.6266273593        0.0010083187        4.1802890735
 Au        11.6267382823        2.9560082947        4.1799291296
 Au        11.6268492428        5.9120082706        4.1795690639
 Au         1.4787646035        1.4796438610        6.2705059095
 Au         1.4788755265        4.4346438370        6.2701459656
 Au         1.4789864870        7.3906438129        6.2697858998
 Au         4.4347645992        1.4795328864        6.2703903010
 Au         4.4348755221        4.4345328624        6.2700303571
 Au         4.4349864826        7.3905328383        6.2696702913
 Au         7.1927645951        1.4794293452        6.2702824363
 Au         7.1928755181        4.4344293211        6.2699224923
 Au         7.1929864786        7.3904292971        6.2695624266
 Au        10.1487645908        1.4793183706        6.2701668278
 Au        10.1488755137        4.4343183465        6.2698068839
 Au        10.1489864742        7.3903183225        6.2694468181
 Au        13.1047645864        1.4792073960        6.2700512193
 Au        13.1048755094        4.4342073719        6.2696912754
 Au        13.1049864699        7.3902073479        6.2693312096
 Au         0.0007908744        0.0019539369        8.3607437295
 Au         0.0009017974        2.9569539128        8.3603837855
 Au         0.0010127579        5.9129538888        8.3600237198
 Au         2.9567908701        0.0018429623        8.3606281210
 Au         2.9569017930        2.9568429382        8.3602681771
 Au         2.9570127535        5.9128429142        8.3599081113
 Au         5.9127908657        0.0017319877        8.3605125125
 Au         5.9129017887        2.9567319636        8.3601525686
 Au         5.9130127492        5.9127319396        8.3597925028
 Au         8.6707908617        0.0016284464        8.3604046478
 Au         8.6709017846        2.9566284224        8.3600447038
 Au         8.6710127451        5.9126283984        8.3596846381
 Au        11.6267908573        0.0015174718        8.3602890393
 Au        11.6269017803        2.9565174478        8.3599290954
 Au        11.6270127408        5.9125174238        8.3595690296
 Au         1.4789281015        1.4801530141       10.4505058752
 Au         1.4790390245        4.4351529901       10.4501459313
 Au         1.4791499849        7.3911529660       10.4497858656
 Au         4.4349280971        1.4800420395       10.4503902668
 Au         4.4350390201        4.4350420155       10.4500303228
 Au         4.4351499806        7.3910419914       10.4496702571
 Au         7.1929280931        1.4799384983       10.4502824020
 Au         7.1930390160        4.4349384742       10.4499224581
 Au         7.1931499765        7.3909384502       10.4495623923
 Au        10.1489280887        1.4798275237       10.4501667935
 Au        10.1490390117        4.4348274996       10.4498068496
 Au        10.1491499722        7.3908274756       10.4494467839
 Au        13.1049280844        1.4797165491       10.4500511850
 Au        13.1050390073        4.4347165250       10.4496912411
 Au        13.1051499678        7.3907165010       10.4493311754
  N         4.8561569435        5.9132201677       12.0318335294
  N         9.5291565251        5.9150446944       12.0336508082
  N         7.1931575515        5.9361321351       12.0397396106