 # Version information for this restart file 
 # current date 2024-01-10 22:34:13.252
 # current working dir /gpfs/home/cahart/transport/melamine/au_from-h2/ci-neb/ts2/dft_leads-sz_tip-dzvp_surf-dzvp_kpoints-2-4-20_replicas-5
 # Program compiled at                              Thu 21 Sep 19:20:17 BST 2023
 # Program compiled on                                           hx1-c12-login-1
 # Program compiled for                                                    local
 # Source code revision number                                       git:5518aa6
 &GLOBAL
   EXTENDED_FFT_LENGTHS  T
   PRINT_LEVEL  MEDIUM
   PROJECT_NAME 2_dft_wfn-r-0
   OUTPUT_FILE_NAME 2_dft_wfn-r-0.out
   RUN_TYPE  BAND
 &END GLOBAL
 &MOTION
   &CONSTRAINT
     &FIXED_ATOMS
       LIST  1..93 104..183
     &END FIXED_ATOMS
   &END CONSTRAINT
   &BAND
     NPROC_REP  64
     BAND_TYPE  CI-NEB
     NUMBER_OF_REPLICA  5
     K_SPRING     5.0000000000000003E-02
     &CI_NEB
       NSTEPS_IT  5
     &END CI_NEB
     &OPTIMIZE_BAND
       OPT_TYPE  DIIS
       &DIIS
         MAX_STEPS  1000
       &END DIIS
     &END OPTIMIZE_BAND
     &REPLICA
       &COORD
             0.0000000000000000E+00    0.0000000000000000E+00    0.0000000000000000E+00
             0.0000000000000000E+00    2.9550000000000058E+00    0.0000000000000000E+00
             0.0000000000000000E+00    5.9110000000000058E+00    0.0000000000000000E+00
             2.9560000000000075E+00    0.0000000000000000E+00    0.0000000000000000E+00
             2.9560000000000075E+00    2.9550000000000058E+00    0.0000000000000000E+00
             2.9560000000000075E+00    5.9110000000000058E+00    0.0000000000000000E+00
             5.9120000000000150E+00    0.0000000000000000E+00    0.0000000000000000E+00
             5.9120000000000150E+00    2.9550000000000058E+00    0.0000000000000000E+00
             5.9120000000000150E+00    5.9110000000000058E+00    0.0000000000000000E+00
             8.6700000000000124E+00    0.0000000000000000E+00    0.0000000000000000E+00
             8.6700000000000124E+00    2.9550000000000058E+00    0.0000000000000000E+00
             8.6700000000000124E+00    5.9110000000000058E+00    0.0000000000000000E+00
             1.1626000000000017E+01    0.0000000000000000E+00    0.0000000000000000E+00
             1.1626000000000017E+01    2.9550000000000058E+00    0.0000000000000000E+00
             1.1626000000000017E+01    5.9110000000000058E+00    0.0000000000000000E+00
             1.4780000000000038E+00    1.4780000000000038E+00    2.0900000000000047E+00
             1.4780000000000038E+00    4.4330000000000087E+00    2.0900000000000047E+00
             1.4780000000000038E+00    7.3890000000000127E+00    2.0900000000000047E+00
             4.4340000000000073E+00    1.4780000000000038E+00    2.0900000000000047E+00
             4.4340000000000073E+00    4.4330000000000087E+00    2.0900000000000047E+00
             4.4340000000000073E+00    7.3890000000000127E+00    2.0900000000000047E+00
             7.1920000000000117E+00    1.4780000000000038E+00    2.0900000000000047E+00
             7.1920000000000117E+00    4.4330000000000087E+00    2.0900000000000047E+00
             7.1920000000000117E+00    7.3890000000000127E+00    2.0900000000000047E+00
             1.0148000000000021E+01    1.4780000000000038E+00    2.0900000000000047E+00
             1.0148000000000021E+01    4.4330000000000087E+00    2.0900000000000047E+00
             1.0148000000000021E+01    7.3890000000000127E+00    2.0900000000000047E+00
             1.3104000000000024E+01    1.4780000000000038E+00    2.0900000000000047E+00
             1.3104000000000024E+01    4.4330000000000087E+00    2.0900000000000047E+00
             1.3104000000000024E+01    7.3890000000000127E+00    2.0900000000000047E+00
             0.0000000000000000E+00    0.0000000000000000E+00    4.1800000000000095E+00
             0.0000000000000000E+00    2.9550000000000058E+00    4.1800000000000095E+00
             0.0000000000000000E+00    5.9110000000000058E+00    4.1800000000000095E+00
             2.9560000000000075E+00    0.0000000000000000E+00    4.1800000000000095E+00
             2.9560000000000075E+00    2.9550000000000058E+00    4.1800000000000095E+00
             2.9560000000000075E+00    5.9110000000000058E+00    4.1800000000000095E+00
             5.9120000000000150E+00    0.0000000000000000E+00    4.1800000000000095E+00
             5.9120000000000150E+00    2.9550000000000058E+00    4.1800000000000095E+00
             5.9120000000000150E+00    5.9110000000000058E+00    4.1800000000000095E+00
             8.6700000000000124E+00    0.0000000000000000E+00    4.1800000000000095E+00
             8.6700000000000124E+00    2.9550000000000058E+00    4.1800000000000095E+00
             8.6700000000000124E+00    5.9110000000000058E+00    4.1800000000000095E+00
             1.1626000000000017E+01    0.0000000000000000E+00    4.1800000000000095E+00
             1.1626000000000017E+01    2.9550000000000058E+00    4.1800000000000095E+00
             1.1626000000000017E+01    5.9110000000000058E+00    4.1800000000000095E+00
             1.4780000000000038E+00    1.4780000000000038E+00    6.2700000000000120E+00
             1.4780000000000038E+00    4.4330000000000087E+00    6.2700000000000120E+00
             1.4780000000000038E+00    7.3890000000000127E+00    6.2700000000000120E+00
             4.4340000000000073E+00    1.4780000000000038E+00    6.2700000000000120E+00
             4.4340000000000073E+00    4.4330000000000087E+00    6.2700000000000120E+00
             4.4340000000000073E+00    7.3890000000000127E+00    6.2700000000000120E+00
             7.1920000000000117E+00    1.4780000000000038E+00    6.2700000000000120E+00
             7.1920000000000117E+00    4.4330000000000087E+00    6.2700000000000120E+00
             7.1920000000000117E+00    7.3890000000000127E+00    6.2700000000000120E+00
             1.0148000000000021E+01    1.4780000000000038E+00    6.2700000000000120E+00
             1.0148000000000021E+01    4.4330000000000087E+00    6.2700000000000120E+00
             1.0148000000000021E+01    7.3890000000000127E+00    6.2700000000000120E+00
             1.3104000000000024E+01    1.4780000000000038E+00    6.2700000000000120E+00
             1.3104000000000024E+01    4.4330000000000087E+00    6.2700000000000120E+00
             1.3104000000000024E+01    7.3890000000000127E+00    6.2700000000000120E+00
             0.0000000000000000E+00    0.0000000000000000E+00    8.3600000000000190E+00
             0.0000000000000000E+00    2.9550000000000058E+00    8.3600000000000190E+00
             0.0000000000000000E+00    5.9110000000000058E+00    8.3600000000000190E+00
             2.9560000000000075E+00    0.0000000000000000E+00    8.3600000000000190E+00
             2.9560000000000075E+00    2.9550000000000058E+00    8.3600000000000190E+00
             2.9560000000000075E+00    5.9110000000000058E+00    8.3600000000000190E+00
             5.9120000000000150E+00    0.0000000000000000E+00    8.3600000000000190E+00
             5.9120000000000150E+00    2.9550000000000058E+00    8.3600000000000190E+00
             5.9120000000000150E+00    5.9110000000000058E+00    8.3600000000000190E+00
             8.6700000000000124E+00    0.0000000000000000E+00    8.3600000000000190E+00
             8.6700000000000124E+00    2.9550000000000058E+00    8.3600000000000190E+00
             8.6700000000000124E+00    5.9110000000000058E+00    8.3600000000000190E+00
             1.1626000000000017E+01    0.0000000000000000E+00    8.3600000000000190E+00
             1.1626000000000017E+01    2.9550000000000058E+00    8.3600000000000190E+00
             1.1626000000000017E+01    5.9110000000000058E+00    8.3600000000000190E+00
             1.4780000000000038E+00    1.4780000000000038E+00    1.0450000000000014E+01
             1.4780000000000038E+00    4.4330000000000087E+00    1.0450000000000014E+01
             1.4780000000000038E+00    7.3890000000000127E+00    1.0450000000000014E+01
             4.4340000000000073E+00    1.4780000000000038E+00    1.0450000000000014E+01
             4.4340000000000073E+00    4.4330000000000087E+00    1.0450000000000014E+01
             4.4340000000000073E+00    7.3890000000000127E+00    1.0450000000000014E+01
             7.1920000000000117E+00    1.4780000000000038E+00    1.0450000000000014E+01
             7.1920000000000117E+00    4.4330000000000087E+00    1.0450000000000014E+01
             7.1920000000000117E+00    7.3890000000000127E+00    1.0450000000000014E+01
             1.0148000000000021E+01    1.4780000000000038E+00    1.0450000000000014E+01
             1.0148000000000021E+01    4.4330000000000087E+00    1.0450000000000014E+01
             1.0148000000000021E+01    7.3890000000000127E+00    1.0450000000000014E+01
             1.3104000000000024E+01    1.4780000000000038E+00    1.0450000000000014E+01
             1.3104000000000024E+01    4.4330000000000087E+00    1.0450000000000014E+01
             1.3104000000000024E+01    7.3890000000000127E+00    1.0450000000000014E+01
             4.8554000000000066E+00    5.9119000000000081E+00    1.2031800000000015E+01
             9.5280000000000129E+00    5.9137000000000128E+00    1.2034000000000018E+01
             7.1920000000000117E+00    5.9340000000000099E+00    1.2040000000000017E+01
             1.0318905404800017E+01    5.9087793826000112E+00    1.2685747073200025E+01
             4.0673339928000063E+00    5.9059993220000102E+00    1.2687741368900021E+01
             8.3738707293000179E+00    5.9179777707000110E+00    1.2731457252200013E+01
             5.9989554222000105E+00    5.9152564166000126E+00    1.2792642411200022E+01
             8.3227525762000152E+00    5.9051536095000117E+00    1.4080497642100033E+01
             5.9344285049000121E+00    5.8981604865000126E+00    1.4101749969600025E+01
             9.1743570613000198E+00    5.8876302392000097E+00    1.4641017735300027E+01
             7.1039653577000115E+00    5.8899410689000122E+00    1.4828703219100028E+01
             7.2416021047000143E+00    5.8657702092000106E+00    1.6106466757300044E+01
             6.3118250323000114E+00    5.8547577071000099E+00    1.6539601306200030E+01
             7.3120000000000100E+00    5.9340000000000099E+00    2.1043000000000031E+01
             5.8130000000000086E+00    7.4340000000000144E+00    2.2992000000000044E+01
             8.8130000000000148E+00    4.4340000000000073E+00    2.2992000000000044E+01
             5.8130000000000086E+00    4.4330000000000087E+00    2.2992000000000044E+01
             8.8130000000000148E+00    7.4340000000000144E+00    2.2992000000000044E+01
             1.4780000000000038E+00    1.4780000000000038E+00    2.5082000000000036E+01
             1.4780000000000038E+00    4.4330000000000087E+00    2.5082000000000036E+01
             1.4780000000000038E+00    7.3890000000000127E+00    2.5082000000000036E+01
             4.4340000000000073E+00    1.4780000000000038E+00    2.5082000000000036E+01
             4.4340000000000073E+00    4.4330000000000087E+00    2.5082000000000036E+01
             4.4340000000000073E+00    7.3890000000000127E+00    2.5082000000000036E+01
             7.1920000000000117E+00    1.4780000000000038E+00    2.5082000000000036E+01
             7.1920000000000117E+00    4.4330000000000087E+00    2.5082000000000036E+01
             7.1920000000000117E+00    7.3890000000000127E+00    2.5082000000000036E+01
             1.0148000000000021E+01    1.4780000000000038E+00    2.5082000000000036E+01
             1.0148000000000021E+01    4.4330000000000087E+00    2.5082000000000036E+01
             1.0148000000000021E+01    7.3890000000000127E+00    2.5082000000000036E+01
             1.3104000000000024E+01    1.4780000000000038E+00    2.5082000000000036E+01
             1.3104000000000024E+01    4.4330000000000087E+00    2.5082000000000036E+01
             1.3104000000000024E+01    7.3890000000000127E+00    2.5082000000000036E+01
             0.0000000000000000E+00    0.0000000000000000E+00    2.7172000000000050E+01
             0.0000000000000000E+00    2.9550000000000058E+00    2.7172000000000050E+01
             0.0000000000000000E+00    5.9110000000000058E+00    2.7172000000000050E+01
             2.9560000000000075E+00    0.0000000000000000E+00    2.7172000000000050E+01
             2.9560000000000075E+00    2.9550000000000058E+00    2.7172000000000050E+01
             2.9560000000000075E+00    5.9110000000000058E+00    2.7172000000000050E+01
             5.9120000000000150E+00    0.0000000000000000E+00    2.7172000000000050E+01
             5.9120000000000150E+00    2.9550000000000058E+00    2.7172000000000050E+01
             5.9120000000000150E+00    5.9110000000000058E+00    2.7172000000000050E+01
             8.6700000000000124E+00    0.0000000000000000E+00    2.7172000000000050E+01
             8.6700000000000124E+00    2.9550000000000058E+00    2.7172000000000050E+01
             8.6700000000000124E+00    5.9110000000000058E+00    2.7172000000000050E+01
             1.1626000000000017E+01    0.0000000000000000E+00    2.7172000000000050E+01
             1.1626000000000017E+01    2.9550000000000058E+00    2.7172000000000050E+01
             1.1626000000000017E+01    5.9110000000000058E+00    2.7172000000000050E+01
             1.4780000000000038E+00    1.4780000000000038E+00    2.9262000000000064E+01
             1.4780000000000038E+00    4.4330000000000087E+00    2.9262000000000064E+01
             1.4780000000000038E+00    7.3890000000000127E+00    2.9262000000000064E+01
             4.4340000000000073E+00    1.4780000000000038E+00    2.9262000000000064E+01
             4.4340000000000073E+00    4.4330000000000087E+00    2.9262000000000064E+01
             4.4340000000000073E+00    7.3890000000000127E+00    2.9262000000000064E+01
             7.1920000000000117E+00    1.4780000000000038E+00    2.9262000000000064E+01
             7.1920000000000117E+00    4.4330000000000087E+00    2.9262000000000064E+01
             7.1920000000000117E+00    7.3890000000000127E+00    2.9262000000000064E+01
             1.0148000000000021E+01    1.4780000000000038E+00    2.9262000000000064E+01
             1.0148000000000021E+01    4.4330000000000087E+00    2.9262000000000064E+01
             1.0148000000000021E+01    7.3890000000000127E+00    2.9262000000000064E+01
             1.3104000000000024E+01    1.4780000000000038E+00    2.9262000000000064E+01
             1.3104000000000024E+01    4.4330000000000087E+00    2.9262000000000064E+01
             1.3104000000000024E+01    7.3890000000000127E+00    2.9262000000000064E+01
             0.0000000000000000E+00    0.0000000000000000E+00    3.1352000000000029E+01
             0.0000000000000000E+00    2.9550000000000058E+00    3.1352000000000029E+01
             0.0000000000000000E+00    5.9110000000000058E+00    3.1352000000000029E+01
             2.9560000000000075E+00    0.0000000000000000E+00    3.1352000000000029E+01
             2.9560000000000075E+00    2.9550000000000058E+00    3.1352000000000029E+01
             2.9560000000000075E+00    5.9110000000000058E+00    3.1352000000000029E+01
             5.9120000000000150E+00    0.0000000000000000E+00    3.1352000000000029E+01
             5.9120000000000150E+00    2.9550000000000058E+00    3.1352000000000029E+01
             5.9120000000000150E+00    5.9110000000000058E+00    3.1352000000000029E+01
             8.6700000000000124E+00    0.0000000000000000E+00    3.1352000000000029E+01
             8.6700000000000124E+00    2.9550000000000058E+00    3.1352000000000029E+01
             8.6700000000000124E+00    5.9110000000000058E+00    3.1352000000000029E+01
             1.1626000000000017E+01    0.0000000000000000E+00    3.1352000000000029E+01
             1.1626000000000017E+01    2.9550000000000058E+00    3.1352000000000029E+01
             1.1626000000000017E+01    5.9110000000000058E+00    3.1352000000000029E+01
             1.4780000000000038E+00    1.4780000000000038E+00    3.3442000000000057E+01
             1.4780000000000038E+00    4.4330000000000087E+00    3.3442000000000057E+01
             1.4780000000000038E+00    7.3890000000000127E+00    3.3442000000000057E+01
             4.4340000000000073E+00    1.4780000000000038E+00    3.3442000000000057E+01
             4.4340000000000073E+00    4.4330000000000087E+00    3.3442000000000057E+01
             4.4340000000000073E+00    7.3890000000000127E+00    3.3442000000000057E+01
             7.1920000000000117E+00    1.4780000000000038E+00    3.3442000000000057E+01
             7.1920000000000117E+00    4.4330000000000087E+00    3.3442000000000057E+01
             7.1920000000000117E+00    7.3890000000000127E+00    3.3442000000000057E+01
             1.0148000000000021E+01    1.4780000000000038E+00    3.3442000000000057E+01
             1.0148000000000021E+01    4.4330000000000087E+00    3.3442000000000057E+01
             1.0148000000000021E+01    7.3890000000000127E+00    3.3442000000000057E+01
             1.3104000000000024E+01    1.4780000000000038E+00    3.3442000000000057E+01
             1.3104000000000024E+01    4.4330000000000087E+00    3.3442000000000057E+01
             1.3104000000000024E+01    7.3890000000000127E+00    3.3442000000000057E+01
       &END COORD
       &VELOCITY
             0.0000000000000000E+00    0.0000000000000000E+00    0.0000000000000000E+00
             0.0000000000000000E+00    0.0000000000000000E+00    0.0000000000000000E+00
             0.0000000000000000E+00    0.0000000000000000E+00    0.0000000000000000E+00
             0.0000000000000000E+00    0.0000000000000000E+00    0.0000000000000000E+00
             0.0000000000000000E+00    0.0000000000000000E+00    0.0000000000000000E+00
             0.0000000000000000E+00    0.0000000000000000E+00    0.0000000000000000E+00
             0.0000000000000000E+00    0.0000000000000000E+00    0.0000000000000000E+00
             0.0000000000000000E+00    0.0000000000000000E+00    0.0000000000000000E+00
             0.0000000000000000E+00    0.0000000000000000E+00    0.0000000000000000E+00
             0.0000000000000000E+00    0.0000000000000000E+00    0.0000000000000000E+00
             0.0000000000000000E+00    0.0000000000000000E+00    0.0000000000000000E+00
             0.0000000000000000E+00    0.0000000000000000E+00    0.0000000000000000E+00
             0.0000000000000000E+00    0.0000000000000000E+00    0.0000000000000000E+00
             0.0000000000000000E+00    0.0000000000000000E+00    0.0000000000000000E+00
             0.0000000000000000E+00    0.0000000000000000E+00    0.0000000000000000E+00
             0.0000000000000000E+00    0.0000000000000000E+00    0.0000000000000000E+00
             0.0000000000000000E+00    0.0000000000000000E+00    0.0000000000000000E+00
             0.0000000000000000E+00    0.0000000000000000E+00    0.0000000000000000E+00
             0.0000000000000000E+00    0.0000000000000000E+00    0.0000000000000000E+00
             0.0000000000000000E+00    0.0000000000000000E+00    0.0000000000000000E+00
             0.0000000000000000E+00    0.0000000000000000E+00    0.0000000000000000E+00
             0.0000000000000000E+00    0.0000000000000000E+00    0.0000000000000000E+00
             0.0000000000000000E+00    0.0000000000000000E+00    0.0000000000000000E+00
             0.0000000000000000E+00    0.0000000000000000E+00    0.0000000000000000E+00
             0.0000000000000000E+00    0.0000000000000000E+00    0.0000000000000000E+00
             0.0000000000000000E+00    0.0000000000000000E+00    0.0000000000000000E+00
             0.0000000000000000E+00    0.0000000000000000E+00    0.0000000000000000E+00
             0.0000000000000000E+00    0.0000000000000000E+00    0.0000000000000000E+00
             0.0000000000000000E+00    0.0000000000000000E+00    0.0000000000000000E+00
             0.0000000000000000E+00    0.0000000000000000E+00    0.0000000000000000E+00
             0.0000000000000000E+00    0.0000000000000000E+00    0.0000000000000000E+00
             0.0000000000000000E+00    0.0000000000000000E+00    0.0000000000000000E+00
             0.0000000000000000E+00    0.0000000000000000E+00    0.0000000000000000E+00
             0.0000000000000000E+00    0.0000000000000000E+00    0.0000000000000000E+00
             0.0000000000000000E+00    0.0000000000000000E+00    0.0000000000000000E+00
             0.0000000000000000E+00    0.0000000000000000E+00    0.0000000000000000E+00
             0.0000000000000000E+00    0.0000000000000000E+00    0.0000000000000000E+00
             0.0000000000000000E+00    0.0000000000000000E+00    0.0000000000000000E+00
             0.0000000000000000E+00    0.0000000000000000E+00    0.0000000000000000E+00
             0.0000000000000000E+00    0.0000000000000000E+00    0.0000000000000000E+00
             0.0000000000000000E+00    0.0000000000000000E+00    0.0000000000000000E+00
             0.0000000000000000E+00    0.0000000000000000E+00    0.0000000000000000E+00
             0.0000000000000000E+00    0.0000000000000000E+00    0.0000000000000000E+00
             0.0000000000000000E+00    0.0000000000000000E+00    0.0000000000000000E+00
             0.0000000000000000E+00    0.0000000000000000E+00    0.0000000000000000E+00
             0.0000000000000000E+00    0.0000000000000000E+00    0.0000000000000000E+00
             0.0000000000000000E+00    0.0000000000000000E+00    0.0000000000000000E+00
             0.0000000000000000E+00    0.0000000000000000E+00    0.0000000000000000E+00
             0.0000000000000000E+00    0.0000000000000000E+00    0.0000000000000000E+00
             0.0000000000000000E+00    0.0000000000000000E+00    0.0000000000000000E+00
             0.0000000000000000E+00    0.0000000000000000E+00    0.0000000000000000E+00
             0.0000000000000000E+00    0.0000000000000000E+00    0.0000000000000000E+00
             0.0000000000000000E+00    0.0000000000000000E+00    0.0000000000000000E+00
             0.0000000000000000E+00    0.0000000000000000E+00    0.0000000000000000E+00
             0.0000000000000000E+00    0.0000000000000000E+00    0.0000000000000000E+00
             0.0000000000000000E+00    0.0000000000000000E+00    0.0000000000000000E+00
             0.0000000000000000E+00    0.0000000000000000E+00    0.0000000000000000E+00
             0.0000000000000000E+00    0.0000000000000000E+00    0.0000000000000000E+00
             0.0000000000000000E+00    0.0000000000000000E+00    0.0000000000000000E+00
             0.0000000000000000E+00    0.0000000000000000E+00    0.0000000000000000E+00
             0.0000000000000000E+00    0.0000000000000000E+00    0.0000000000000000E+00
             0.0000000000000000E+00    0.0000000000000000E+00    0.0000000000000000E+00
             0.0000000000000000E+00    0.0000000000000000E+00    0.0000000000000000E+00
             0.0000000000000000E+00    0.0000000000000000E+00    0.0000000000000000E+00
             0.0000000000000000E+00    0.0000000000000000E+00    0.0000000000000000E+00
             0.0000000000000000E+00    0.0000000000000000E+00    0.0000000000000000E+00
             0.0000000000000000E+00    0.0000000000000000E+00    0.0000000000000000E+00
             0.0000000000000000E+00    0.0000000000000000E+00    0.0000000000000000E+00
             0.0000000000000000E+00    0.0000000000000000E+00    0.0000000000000000E+00
             0.0000000000000000E+00    0.0000000000000000E+00    0.0000000000000000E+00
             0.0000000000000000E+00    0.0000000000000000E+00    0.0000000000000000E+00
             0.0000000000000000E+00    0.0000000000000000E+00    0.0000000000000000E+00
             0.0000000000000000E+00    0.0000000000000000E+00    0.0000000000000000E+00
             0.0000000000000000E+00    0.0000000000000000E+00    0.0000000000000000E+00
             0.0000000000000000E+00    0.0000000000000000E+00    0.0000000000000000E+00
             0.0000000000000000E+00    0.0000000000000000E+00    0.0000000000000000E+00
             0.0000000000000000E+00    0.0000000000000000E+00    0.0000000000000000E+00
             0.0000000000000000E+00    0.0000000000000000E+00    0.0000000000000000E+00
             0.0000000000000000E+00    0.0000000000000000E+00    0.0000000000000000E+00
             0.0000000000000000E+00    0.0000000000000000E+00    0.0000000000000000E+00
             0.0000000000000000E+00    0.0000000000000000E+00    0.0000000000000000E+00
             0.0000000000000000E+00    0.0000000000000000E+00    0.0000000000000000E+00
             0.0000000000000000E+00    0.0000000000000000E+00    0.0000000000000000E+00
             0.0000000000000000E+00    0.0000000000000000E+00    0.0000000000000000E+00
             0.0000000000000000E+00    0.0000000000000000E+00    0.0000000000000000E+00
             0.0000000000000000E+00    0.0000000000000000E+00    0.0000000000000000E+00
             0.0000000000000000E+00    0.0000000000000000E+00    0.0000000000000000E+00
             0.0000000000000000E+00    0.0000000000000000E+00    0.0000000000000000E+00
             0.0000000000000000E+00    0.0000000000000000E+00    0.0000000000000000E+00
             0.0000000000000000E+00    0.0000000000000000E+00    0.0000000000000000E+00
             0.0000000000000000E+00    0.0000000000000000E+00    0.0000000000000000E+00
             0.0000000000000000E+00    0.0000000000000000E+00    0.0000000000000000E+00
             0.0000000000000000E+00    0.0000000000000000E+00    0.0000000000000000E+00
             0.0000000000000000E+00    0.0000000000000000E+00    0.0000000000000000E+00
             0.0000000000000000E+00    0.0000000000000000E+00    0.0000000000000000E+00
             0.0000000000000000E+00    0.0000000000000000E+00    0.0000000000000000E+00
             0.0000000000000000E+00    0.0000000000000000E+00    0.0000000000000000E+00
             0.0000000000000000E+00    0.0000000000000000E+00    0.0000000000000000E+00
             0.0000000000000000E+00    0.0000000000000000E+00    0.0000000000000000E+00
             0.0000000000000000E+00    0.0000000000000000E+00    0.0000000000000000E+00
             0.0000000000000000E+00    0.0000000000000000E+00    0.0000000000000000E+00
             0.0000000000000000E+00    0.0000000000000000E+00    0.0000000000000000E+00
             0.0000000000000000E+00    0.0000000000000000E+00    0.0000000000000000E+00
             0.0000000000000000E+00    0.0000000000000000E+00    0.0000000000000000E+00
             0.0000000000000000E+00    0.0000000000000000E+00    0.0000000000000000E+00
             0.0000000000000000E+00    0.0000000000000000E+00    0.0000000000000000E+00
             0.0000000000000000E+00    0.0000000000000000E+00    0.0000000000000000E+00
             0.0000000000000000E+00    0.0000000000000000E+00    0.0000000000000000E+00
             0.0000000000000000E+00    0.0000000000000000E+00    0.0000000000000000E+00
             0.0000000000000000E+00    0.0000000000000000E+00    0.0000000000000000E+00
             0.0000000000000000E+00    0.0000000000000000E+00    0.0000000000000000E+00
             0.0000000000000000E+00    0.0000000000000000E+00    0.0000000000000000E+00
             0.0000000000000000E+00    0.0000000000000000E+00    0.0000000000000000E+00
             0.0000000000000000E+00    0.0000000000000000E+00    0.0000000000000000E+00
             0.0000000000000000E+00    0.0000000000000000E+00    0.0000000000000000E+00
             0.0000000000000000E+00    0.0000000000000000E+00    0.0000000000000000E+00
             0.0000000000000000E+00    0.0000000000000000E+00    0.0000000000000000E+00
             0.0000000000000000E+00    0.0000000000000000E+00    0.0000000000000000E+00
             0.0000000000000000E+00    0.0000000000000000E+00    0.0000000000000000E+00
             0.0000000000000000E+00    0.0000000000000000E+00    0.0000000000000000E+00
             0.0000000000000000E+00    0.0000000000000000E+00    0.0000000000000000E+00
             0.0000000000000000E+00    0.0000000000000000E+00    0.0000000000000000E+00
             0.0000000000000000E+00    0.0000000000000000E+00    0.0000000000000000E+00
             0.0000000000000000E+00    0.0000000000000000E+00    0.0000000000000000E+00
             0.0000000000000000E+00    0.0000000000000000E+00    0.0000000000000000E+00
             0.0000000000000000E+00    0.0000000000000000E+00    0.0000000000000000E+00
             0.0000000000000000E+00    0.0000000000000000E+00    0.0000000000000000E+00
             0.0000000000000000E+00    0.0000000000000000E+00    0.0000000000000000E+00
             0.0000000000000000E+00    0.0000000000000000E+00    0.0000000000000000E+00
             0.0000000000000000E+00    0.0000000000000000E+00    0.0000000000000000E+00
             0.0000000000000000E+00    0.0000000000000000E+00    0.0000000000000000E+00
             0.0000000000000000E+00    0.0000000000000000E+00    0.0000000000000000E+00
             0.0000000000000000E+00    0.0000000000000000E+00    0.0000000000000000E+00
             0.0000000000000000E+00    0.0000000000000000E+00    0.0000000000000000E+00
             0.0000000000000000E+00    0.0000000000000000E+00    0.0000000000000000E+00
             0.0000000000000000E+00    0.0000000000000000E+00    0.0000000000000000E+00
             0.0000000000000000E+00    0.0000000000000000E+00    0.0000000000000000E+00
             0.0000000000000000E+00    0.0000000000000000E+00    0.0000000000000000E+00
             0.0000000000000000E+00    0.0000000000000000E+00    0.0000000000000000E+00
             0.0000000000000000E+00    0.0000000000000000E+00    0.0000000000000000E+00
             0.0000000000000000E+00    0.0000000000000000E+00    0.0000000000000000E+00
             0.0000000000000000E+00    0.0000000000000000E+00    0.0000000000000000E+00
             0.0000000000000000E+00    0.0000000000000000E+00    0.0000000000000000E+00
             0.0000000000000000E+00    0.0000000000000000E+00    0.0000000000000000E+00