 # Version information for this restart file 
 # current date 2024-01-11 00:38:52.742
 # current working dir /gpfs/home/cahart/transport/melamine/au_from-h2/ci-neb/ts2/dft_leads-sz_tip-dzvp_surf-dzvp_kpoints-2-4-20_replicas-5
 # Program compiled at                              Thu 21 Sep 19:20:17 BST 2023
 # Program compiled on                                           hx1-c12-login-1
 # Program compiled for                                                    local
 # Source code revision number                                       git:5518aa6
 &GLOBAL
   EXTENDED_FFT_LENGTHS  T
   PRINT_LEVEL  MEDIUM
   PROJECT_NAME 2_dft_wfn-r-0
   OUTPUT_FILE_NAME 2_dft_wfn-r-0.out
   RUN_TYPE  BAND
 &END GLOBAL
 &MOTION
   &CONSTRAINT
     &FIXED_ATOMS
       LIST  1..93 104..183
     &END FIXED_ATOMS
   &END CONSTRAINT
   &BAND
     NPROC_REP  64
     BAND_TYPE  CI-NEB
     NUMBER_OF_REPLICA  5
     K_SPRING     5.0000000000000003E-02
     &CI_NEB
       NSTEPS_IT  5
     &END CI_NEB
     &OPTIMIZE_BAND
       OPT_TYPE  DIIS
       &DIIS
         MAX_STEPS  1000
       &END DIIS
     &END OPTIMIZE_BAND
     &REPLICA
       &COORD
             0.0000000000000000E+00    0.0000000000000000E+00    0.0000000000000000E+00
             0.0000000000000000E+00    2.9550000000000112E+00    0.0000000000000000E+00
             0.0000000000000000E+00    5.9110000000000156E+00    0.0000000000000000E+00
             2.9560000000000124E+00    0.0000000000000000E+00    0.0000000000000000E+00
             2.9560000000000124E+00    2.9550000000000112E+00    0.0000000000000000E+00
             2.9560000000000124E+00    5.9110000000000156E+00    0.0000000000000000E+00
             5.9120000000000248E+00    0.0000000000000000E+00    0.0000000000000000E+00
             5.9120000000000248E+00    2.9550000000000112E+00    0.0000000000000000E+00
             5.9120000000000248E+00    5.9110000000000156E+00    0.0000000000000000E+00
             8.6700000000000319E+00    0.0000000000000000E+00    0.0000000000000000E+00
             8.6700000000000319E+00    2.9550000000000112E+00    0.0000000000000000E+00
             8.6700000000000319E+00    5.9110000000000156E+00    0.0000000000000000E+00
             1.1626000000000039E+01    0.0000000000000000E+00    0.0000000000000000E+00
             1.1626000000000039E+01    2.9550000000000112E+00    0.0000000000000000E+00
             1.1626000000000039E+01    5.9110000000000156E+00    0.0000000000000000E+00
             1.4780000000000062E+00    1.4780000000000062E+00    2.0900000000000096E+00
             1.4780000000000062E+00    4.4330000000000176E+00    2.0900000000000096E+00
             1.4780000000000062E+00    7.3890000000000304E+00    2.0900000000000096E+00
             4.4340000000000179E+00    1.4780000000000062E+00    2.0900000000000096E+00
             4.4340000000000179E+00    4.4330000000000176E+00    2.0900000000000096E+00
             4.4340000000000179E+00    7.3890000000000304E+00    2.0900000000000096E+00
             7.1920000000000233E+00    1.4780000000000062E+00    2.0900000000000096E+00
             7.1920000000000233E+00    4.4330000000000176E+00    2.0900000000000096E+00
             7.1920000000000233E+00    7.3890000000000304E+00    2.0900000000000096E+00
             1.0148000000000042E+01    1.4780000000000062E+00    2.0900000000000096E+00
             1.0148000000000042E+01    4.4330000000000176E+00    2.0900000000000096E+00
             1.0148000000000042E+01    7.3890000000000304E+00    2.0900000000000096E+00
             1.3104000000000052E+01    1.4780000000000062E+00    2.0900000000000096E+00
             1.3104000000000052E+01    4.4330000000000176E+00    2.0900000000000096E+00
             1.3104000000000052E+01    7.3890000000000304E+00    2.0900000000000096E+00
             0.0000000000000000E+00    0.0000000000000000E+00    4.1800000000000193E+00
             0.0000000000000000E+00    2.9550000000000112E+00    4.1800000000000193E+00
             0.0000000000000000E+00    5.9110000000000156E+00    4.1800000000000193E+00
             2.9560000000000124E+00    0.0000000000000000E+00    4.1800000000000193E+00
             2.9560000000000124E+00    2.9550000000000112E+00    4.1800000000000193E+00
             2.9560000000000124E+00    5.9110000000000156E+00    4.1800000000000193E+00
             5.9120000000000248E+00    0.0000000000000000E+00    4.1800000000000193E+00
             5.9120000000000248E+00    2.9550000000000112E+00    4.1800000000000193E+00
             5.9120000000000248E+00    5.9110000000000156E+00    4.1800000000000193E+00
             8.6700000000000319E+00    0.0000000000000000E+00    4.1800000000000193E+00
             8.6700000000000319E+00    2.9550000000000112E+00    4.1800000000000193E+00
             8.6700000000000319E+00    5.9110000000000156E+00    4.1800000000000193E+00
             1.1626000000000039E+01    0.0000000000000000E+00    4.1800000000000193E+00
             1.1626000000000039E+01    2.9550000000000112E+00    4.1800000000000193E+00
             1.1626000000000039E+01    5.9110000000000156E+00    4.1800000000000193E+00
             1.4780000000000062E+00    1.4780000000000062E+00    6.2700000000000191E+00
             1.4780000000000062E+00    4.4330000000000176E+00    6.2700000000000191E+00
             1.4780000000000062E+00    7.3890000000000304E+00    6.2700000000000191E+00
             4.4340000000000179E+00    1.4780000000000062E+00    6.2700000000000191E+00
             4.4340000000000179E+00    4.4330000000000176E+00    6.2700000000000191E+00
             4.4340000000000179E+00    7.3890000000000304E+00    6.2700000000000191E+00
             7.1920000000000233E+00    1.4780000000000062E+00    6.2700000000000191E+00
             7.1920000000000233E+00    4.4330000000000176E+00    6.2700000000000191E+00
             7.1920000000000233E+00    7.3890000000000304E+00    6.2700000000000191E+00
             1.0148000000000042E+01    1.4780000000000062E+00    6.2700000000000191E+00
             1.0148000000000042E+01    4.4330000000000176E+00    6.2700000000000191E+00
             1.0148000000000042E+01    7.3890000000000304E+00    6.2700000000000191E+00
             1.3104000000000052E+01    1.4780000000000062E+00    6.2700000000000191E+00
             1.3104000000000052E+01    4.4330000000000176E+00    6.2700000000000191E+00
             1.3104000000000052E+01    7.3890000000000304E+00    6.2700000000000191E+00
             0.0000000000000000E+00    0.0000000000000000E+00    8.3600000000000385E+00
             0.0000000000000000E+00    2.9550000000000112E+00    8.3600000000000385E+00
             0.0000000000000000E+00    5.9110000000000156E+00    8.3600000000000385E+00
             2.9560000000000124E+00    0.0000000000000000E+00    8.3600000000000385E+00
             2.9560000000000124E+00    2.9550000000000112E+00    8.3600000000000385E+00
             2.9560000000000124E+00    5.9110000000000156E+00    8.3600000000000385E+00
             5.9120000000000248E+00    0.0000000000000000E+00    8.3600000000000385E+00
             5.9120000000000248E+00    2.9550000000000112E+00    8.3600000000000385E+00
             5.9120000000000248E+00    5.9110000000000156E+00    8.3600000000000385E+00
             8.6700000000000319E+00    0.0000000000000000E+00    8.3600000000000385E+00
             8.6700000000000319E+00    2.9550000000000112E+00    8.3600000000000385E+00
             8.6700000000000319E+00    5.9110000000000156E+00    8.3600000000000385E+00
             1.1626000000000039E+01    0.0000000000000000E+00    8.3600000000000385E+00
             1.1626000000000039E+01    2.9550000000000112E+00    8.3600000000000385E+00
             1.1626000000000039E+01    5.9110000000000156E+00    8.3600000000000385E+00
             1.4780000000000062E+00    1.4780000000000062E+00    1.0450000000000033E+01
             1.4780000000000062E+00    4.4330000000000176E+00    1.0450000000000033E+01
             1.4780000000000062E+00    7.3890000000000304E+00    1.0450000000000033E+01
             4.4340000000000179E+00    1.4780000000000062E+00    1.0450000000000033E+01
             4.4340000000000179E+00    4.4330000000000176E+00    1.0450000000000033E+01
             4.4340000000000179E+00    7.3890000000000304E+00    1.0450000000000033E+01
             7.1920000000000233E+00    1.4780000000000062E+00    1.0450000000000033E+01
             7.1920000000000233E+00    4.4330000000000176E+00    1.0450000000000033E+01
             7.1920000000000233E+00    7.3890000000000304E+00    1.0450000000000033E+01
             1.0148000000000042E+01    1.4780000000000062E+00    1.0450000000000033E+01
             1.0148000000000042E+01    4.4330000000000176E+00    1.0450000000000033E+01
             1.0148000000000042E+01    7.3890000000000304E+00    1.0450000000000033E+01
             1.3104000000000052E+01    1.4780000000000062E+00    1.0450000000000033E+01
             1.3104000000000052E+01    4.4330000000000176E+00    1.0450000000000033E+01
             1.3104000000000052E+01    7.3890000000000304E+00    1.0450000000000033E+01
             4.8554000000000181E+00    5.9119000000000188E+00    1.2031800000000032E+01
             9.5280000000000236E+00    5.9137000000000262E+00    1.2034000000000043E+01
             7.1920000000000233E+00    5.9340000000000224E+00    1.2040000000000040E+01
             1.0318905404800038E+01    5.9087793826000246E+00    1.2685747073200046E+01
             4.0673339928000143E+00    5.9059993220000226E+00    1.2687741368900042E+01
             8.3738707293000321E+00    5.9179777707000225E+00    1.2731457252200034E+01
             5.9989554222000203E+00    5.9152564166000223E+00    1.2792642411200044E+01
             8.3227525762000329E+00    5.9051536095000241E+00    1.4080497642100056E+01
             5.9344285049000201E+00    5.8981604865000241E+00    1.4101749969600052E+01
             9.1743570613000358E+00    5.8876302392000204E+00    1.4641017735300050E+01
             7.1039653577000275E+00    5.8899410689000247E+00    1.4828703219100046E+01
             7.2416021047000285E+00    5.8657702092000221E+00    1.6106466757300083E+01
             6.3118250323000238E+00    5.8547577071000196E+00    1.6539601306200062E+01
             7.3120000000000251E+00    5.9340000000000224E+00    2.1043000000000070E+01
             5.8130000000000193E+00    7.4340000000000268E+00    2.2992000000000104E+01
             8.8130000000000308E+00    4.4340000000000179E+00    2.2992000000000104E+01
             5.8130000000000193E+00    4.4330000000000176E+00    2.2992000000000104E+01
             8.8130000000000308E+00    7.4340000000000268E+00    2.2992000000000104E+01
             1.4780000000000062E+00    1.4780000000000062E+00    2.5082000000000072E+01
             1.4780000000000062E+00    4.4330000000000176E+00    2.5082000000000072E+01
             1.4780000000000062E+00    7.3890000000000304E+00    2.5082000000000072E+01
             4.4340000000000179E+00    1.4780000000000062E+00    2.5082000000000072E+01
             4.4340000000000179E+00    4.4330000000000176E+00    2.5082000000000072E+01
             4.4340000000000179E+00    7.3890000000000304E+00    2.5082000000000072E+01
             7.1920000000000233E+00    1.4780000000000062E+00    2.5082000000000072E+01
             7.1920000000000233E+00    4.4330000000000176E+00    2.5082000000000072E+01
             7.1920000000000233E+00    7.3890000000000304E+00    2.5082000000000072E+01
             1.0148000000000042E+01    1.4780000000000062E+00    2.5082000000000072E+01
             1.0148000000000042E+01    4.4330000000000176E+00    2.5082000000000072E+01
             1.0148000000000042E+01    7.3890000000000304E+00    2.5082000000000072E+01
             1.3104000000000052E+01    1.4780000000000062E+00    2.5082000000000072E+01
             1.3104000000000052E+01    4.4330000000000176E+00    2.5082000000000072E+01
             1.3104000000000052E+01    7.3890000000000304E+00    2.5082000000000072E+01
             0.0000000000000000E+00    0.0000000000000000E+00    2.7172000000000100E+01
             0.0000000000000000E+00    2.9550000000000112E+00    2.7172000000000100E+01
             0.0000000000000000E+00    5.9110000000000156E+00    2.7172000000000100E+01
             2.9560000000000124E+00    0.0000000000000000E+00    2.7172000000000100E+01
             2.9560000000000124E+00    2.9550000000000112E+00    2.7172000000000100E+01
             2.9560000000000124E+00    5.9110000000000156E+00    2.7172000000000100E+01
             5.9120000000000248E+00    0.0000000000000000E+00    2.7172000000000100E+01
             5.9120000000000248E+00    2.9550000000000112E+00    2.7172000000000100E+01
             5.9120000000000248E+00    5.9110000000000156E+00    2.7172000000000100E+01
             8.6700000000000319E+00    0.0000000000000000E+00    2.7172000000000100E+01
             8.6700000000000319E+00    2.9550000000000112E+00    2.7172000000000100E+01
             8.6700000000000319E+00    5.9110000000000156E+00    2.7172000000000100E+01
             1.1626000000000039E+01    0.0000000000000000E+00    2.7172000000000100E+01
             1.1626000000000039E+01    2.9550000000000112E+00    2.7172000000000100E+01
             1.1626000000000039E+01    5.9110000000000156E+00    2.7172000000000100E+01
             1.4780000000000062E+00    1.4780000000000062E+00    2.9262000000000125E+01
             1.4780000000000062E+00    4.4330000000000176E+00    2.9262000000000125E+01
             1.4780000000000062E+00    7.3890000000000304E+00    2.9262000000000125E+01
             4.4340000000000179E+00    1.4780000000000062E+00    2.9262000000000125E+01
             4.4340000000000179E+00    4.4330000000000176E+00    2.9262000000000125E+01
             4.4340000000000179E+00    7.3890000000000304E+00    2.9262000000000125E+01
             7.1920000000000233E+00    1.4780000000000062E+00    2.9262000000000125E+01
             7.1920000000000233E+00    4.4330000000000176E+00    2.9262000000000125E+01
             7.1920000000000233E+00    7.3890000000000304E+00    2.9262000000000125E+01
             1.0148000000000042E+01    1.4780000000000062E+00    2.9262000000000125E+01
             1.0148000000000042E+01    4.4330000000000176E+00    2.9262000000000125E+01
             1.0148000000000042E+01    7.3890000000000304E+00    2.9262000000000125E+01
             1.3104000000000052E+01    1.4780000000000062E+00    2.9262000000000125E+01
             1.3104000000000052E+01    4.4330000000000176E+00    2.9262000000000125E+01
             1.3104000000000052E+01    7.3890000000000304E+00    2.9262000000000125E+01
             0.0000000000000000E+00    0.0000000000000000E+00    3.1352000000000100E+01
             0.0000000000000000E+00    2.9550000000000112E+00    3.1352000000000100E+01
             0.0000000000000000E+00    5.9110000000000156E+00    3.1352000000000100E+01
             2.9560000000000124E+00    0.0000000000000000E+00    3.1352000000000100E+01
             2.9560000000000124E+00    2.9550000000000112E+00    3.1352000000000100E+01
             2.9560000000000124E+00    5.9110000000000156E+00    3.1352000000000100E+01
             5.9120000000000248E+00    0.0000000000000000E+00    3.1352000000000100E+01
             5.9120000000000248E+00    2.9550000000000112E+00    3.1352000000000100E+01
             5.9120000000000248E+00    5.9110000000000156E+00    3.1352000000000100E+01
             8.6700000000000319E+00    0.0000000000000000E+00    3.1352000000000100E+01
             8.6700000000000319E+00    2.9550000000000112E+00    3.1352000000000100E+01
             8.6700000000000319E+00    5.9110000000000156E+00    3.1352000000000100E+01
             1.1626000000000039E+01    0.0000000000000000E+00    3.1352000000000100E+01
             1.1626000000000039E+01    2.9550000000000112E+00    3.1352000000000100E+01
             1.1626000000000039E+01    5.9110000000000156E+00    3.1352000000000100E+01
             1.4780000000000062E+00    1.4780000000000062E+00    3.3442000000000100E+01
             1.4780000000000062E+00    4.4330000000000176E+00    3.3442000000000100E+01
             1.4780000000000062E+00    7.3890000000000304E+00    3.3442000000000100E+01
             4.4340000000000179E+00    1.4780000000000062E+00    3.3442000000000100E+01
             4.4340000000000179E+00    4.4330000000000176E+00    3.3442000000000100E+01
             4.4340000000000179E+00    7.3890000000000304E+00    3.3442000000000100E+01
             7.1920000000000233E+00    1.4780000000000062E+00    3.3442000000000100E+01
             7.1920000000000233E+00    4.4330000000000176E+00    3.3442000000000100E+01
             7.1920000000000233E+00    7.3890000000000304E+00    3.3442000000000100E+01
             1.0148000000000042E+01    1.4780000000000062E+00    3.3442000000000100E+01
             1.0148000000000042E+01    4.4330000000000176E+00    3.3442000000000100E+01
             1.0148000000000042E+01    7.3890000000000304E+00    3.3442000000000100E+01
             1.3104000000000052E+01    1.4780000000000062E+00    3.3442000000000100E+01
             1.3104000000000052E+01    4.4330000000000176E+00    3.3442000000000100E+01
             1.3104000000000052E+01    7.3890000000000304E+00    3.3442000000000100E+01
       &END COORD
       &VELOCITY
             0.0000000000000000E+00    0.0000000000000000E+00    0.0000000000000000E+00
             0.0000000000000000E+00    0.0000000000000000E+00    0.0000000000000000E+00
             0.0000000000000000E+00    0.0000000000000000E+00    0.0000000000000000E+00
             0.0000000000000000E+00    0.0000000000000000E+00    0.0000000000000000E+00
             0.0000000000000000E+00    0.0000000000000000E+00    0.0000000000000000E+00
             0.0000000000000000E+00    0.0000000000000000E+00    0.0000000000000000E+00
             0.0000000000000000E+00    0.0000000000000000E+00    0.0000000000000000E+00
             0.0000000000000000E+00    0.0000000000000000E+00    0.0000000000000000E+00
             0.0000000000000000E+00    0.0000000000000000E+00    0.0000000000000000E+00
             0.0000000000000000E+00    0.0000000000000000E+00    0.0000000000000000E+00
             0.0000000000000000E+00    0.0000000000000000E+00    0.0000000000000000E+00
             0.0000000000000000E+00    0.0000000000000000E+00    0.0000000000000000E+00
             0.0000000000000000E+00    0.0000000000000000E+00    0.0000000000000000E+00
             0.0000000000000000E+00    0.0000000000000000E+00    0.0000000000000000E+00
             0.0000000000000000E+00    0.0000000000000000E+00    0.0000000000000000E+00
             0.0000000000000000E+00    0.0000000000000000E+00    0.0000000000000000E+00
             0.0000000000000000E+00    0.0000000000000000E+00    0.0000000000000000E+00
             0.0000000000000000E+00    0.0000000000000000E+00    0.0000000000000000E+00
             0.0000000000000000E+00    0.0000000000000000E+00    0.0000000000000000E+00
             0.0000000000000000E+00    0.0000000000000000E+00    0.0000000000000000E+00
             0.0000000000000000E+00    0.0000000000000000E+00    0.0000000000000000E+00
             0.0000000000000000E+00    0.0000000000000000E+00    0.0000000000000000E+00
             0.0000000000000000E+00    0.0000000000000000E+00    0.0000000000000000E+00
             0.0000000000000000E+00    0.0000000000000000E+00    0.0000000000000000E+00
             0.0000000000000000E+00    0.0000000000000000E+00    0.0000000000000000E+00
             0.0000000000000000E+00    0.0000000000000000E+00    0.0000000000000000E+00
             0.0000000000000000E+00    0.0000000000000000E+00    0.0000000000000000E+00
             0.0000000000000000E+00    0.0000000000000000E+00    0.0000000000000000E+00
             0.0000000000000000E+00    0.0000000000000000E+00    0.0000000000000000E+00
             0.0000000000000000E+00    0.0000000000000000E+00    0.0000000000000000E+00
             0.0000000000000000E+00    0.0000000000000000E+00    0.0000000000000000E+00
             0.0000000000000000E+00    0.0000000000000000E+00    0.0000000000000000E+00
             0.0000000000000000E+00    0.0000000000000000E+00    0.0000000000000000E+00
             0.0000000000000000E+00    0.0000000000000000E+00    0.0000000000000000E+00
             0.0000000000000000E+00    0.0000000000000000E+00    0.0000000000000000E+00
             0.0000000000000000E+00    0.0000000000000000E+00    0.0000000000000000E+00
             0.0000000000000000E+00    0.0000000000000000E+00    0.0000000000000000E+00
             0.0000000000000000E+00    0.0000000000000000E+00    0.0000000000000000E+00
             0.0000000000000000E+00    0.0000000000000000E+00    0.0000000000000000E+00
             0.0000000000000000E+00    0.0000000000000000E+00    0.0000000000000000E+00
             0.0000000000000000E+00    0.0000000000000000E+00    0.0000000000000000E+00
             0.0000000000000000E+00    0.0000000000000000E+00    0.0000000000000000E+00
             0.0000000000000000E+00    0.0000000000000000E+00    0.0000000000000000E+00
             0.0000000000000000E+00    0.0000000000000000E+00    0.0000000000000000E+00
             0.0000000000000000E+00    0.0000000000000000E+00    0.0000000000000000E+00
             0.0000000000000000E+00    0.0000000000000000E+00    0.0000000000000000E+00
             0.0000000000000000E+00    0.0000000000000000E+00    0.0000000000000000E+00
             0.0000000000000000E+00    0.0000000000000000E+00    0.0000000000000000E+00
             0.0000000000000000E+00    0.0000000000000000E+00    0.0000000000000000E+00
             0.0000000000000000E+00    0.0000000000000000E+00    0.0000000000000000E+00
             0.0000000000000000E+00    0.0000000000000000E+00    0.0000000000000000E+00
             0.0000000000000000E+00    0.0000000000000000E+00    0.0000000000000000E+00
             0.0000000000000000E+00    0.0000000000000000E+00    0.0000000000000000E+00
             0.0000000000000000E+00    0.0000000000000000E+00    0.0000000000000000E+00
             0.0000000000000000E+00    0.0000000000000000E+00    0.0000000000000000E+00
             0.0000000000000000E+00    0.0000000000000000E+00    0.0000000000000000E+00
             0.0000000000000000E+00    0.0000000000000000E+00    0.0000000000000000E+00
             0.0000000000000000E+00    0.0000000000000000E+00    0.0000000000000000E+00
             0.0000000000000000E+00    0.0000000000000000E+00    0.0000000000000000E+00
             0.0000000000000000E+00    0.0000000000000000E+00    0.0000000000000000E+00
             0.0000000000000000E+00    0.0000000000000000E+00    0.0000000000000000E+00
             0.0000000000000000E+00    0.0000000000000000E+00    0.0000000000000000E+00
             0.0000000000000000E+00    0.0000000000000000E+00    0.0000000000000000E+00
             0.0000000000000000E+00    0.0000000000000000E+00    0.0000000000000000E+00
             0.0000000000000000E+00    0.0000000000000000E+00    0.0000000000000000E+00
             0.0000000000000000E+00    0.0000000000000000E+00    0.0000000000000000E+00
             0.0000000000000000E+00    0.0000000000000000E+00    0.0000000000000000E+00
             0.0000000000000000E+00    0.0000000000000000E+00    0.0000000000000000E+00
             0.0000000000000000E+00    0.0000000000000000E+00    0.0000000000000000E+00
             0.0000000000000000E+00    0.0000000000000000E+00    0.0000000000000000E+00
             0.0000000000000000E+00    0.0000000000000000E+00    0.0000000000000000E+00
             0.0000000000000000E+00    0.0000000000000000E+00    0.0000000000000000E+00
             0.0000000000000000E+00    0.0000000000000000E+00    0.0000000000000000E+00
             0.0000000000000000E+00    0.0000000000000000E+00    0.0000000000000000E+00
             0.0000000000000000E+00    0.0000000000000000E+00    0.0000000000000000E+00
             0.0000000000000000E+00    0.0000000000000000E+00    0.0000000000000000E+00
             0.0000000000000000E+00    0.0000000000000000E+00    0.0000000000000000E+00
             0.0000000000000000E+00    0.0000000000000000E+00    0.0000000000000000E+00
             0.0000000000000000E+00    0.0000000000000000E+00    0.0000000000000000E+00
             0.0000000000000000E+00    0.0000000000000000E+00    0.0000000000000000E+00
             0.0000000000000000E+00    0.0000000000000000E+00    0.0000000000000000E+00
             0.0000000000000000E+00    0.0000000000000000E+00    0.0000000000000000E+00
             0.0000000000000000E+00    0.0000000000000000E+00    0.0000000000000000E+00
             0.0000000000000000E+00    0.0000000000000000E+00    0.0000000000000000E+00
             0.0000000000000000E+00    0.0000000000000000E+00    0.0000000000000000E+00
             0.0000000000000000E+00    0.0000000000000000E+00    0.0000000000000000E+00
             0.0000000000000000E+00    0.0000000000000000E+00    0.0000000000000000E+00
             0.0000000000000000E+00    0.0000000000000000E+00    0.0000000000000000E+00
             0.0000000000000000E+00    0.0000000000000000E+00    0.0000000000000000E+00
             0.0000000000000000E+00    0.0000000000000000E+00    0.0000000000000000E+00
             0.0000000000000000E+00    0.0000000000000000E+00    0.0000000000000000E+00
             0.0000000000000000E+00    0.0000000000000000E+00    0.0000000000000000E+00
             0.0000000000000000E+00    0.0000000000000000E+00    0.0000000000000000E+00
             0.0000000000000000E+00    0.0000000000000000E+00    0.0000000000000000E+00
             0.0000000000000000E+00    0.0000000000000000E+00    0.0000000000000000E+00
             0.0000000000000000E+00    0.0000000000000000E+00    0.0000000000000000E+00
             0.0000000000000000E+00    0.0000000000000000E+00    0.0000000000000000E+00
             0.0000000000000000E+00    0.0000000000000000E+00    0.0000000000000000E+00
             0.0000000000000000E+00    0.0000000000000000E+00    0.0000000000000000E+00
             0.0000000000000000E+00    0.0000000000000000E+00    0.0000000000000000E+00
             0.0000000000000000E+00    0.0000000000000000E+00    0.0000000000000000E+00
             0.0000000000000000E+00    0.0000000000000000E+00    0.0000000000000000E+00
             0.0000000000000000E+00    0.0000000000000000E+00    0.0000000000000000E+00
             0.0000000000000000E+00    0.0000000000000000E+00    0.0000000000000000E+00
             0.0000000000000000E+00    0.0000000000000000E+00    0.0000000000000000E+00
             0.0000000000000000E+00    0.0000000000000000E+00    0.0000000000000000E+00
             0.0000000000000000E+00    0.0000000000000000E+00    0.0000000000000000E+00
             0.0000000000000000E+00    0.0000000000000000E+00    0.0000000000000000E+00
             0.0000000000000000E+00    0.0000000000000000E+00    0.0000000000000000E+00
             0.0000000000000000E+00    0.0000000000000000E+00    0.0000000000000000E+00
             0.0000000000000000E+00    0.0000000000000000E+00    0.0000000000000000E+00
             0.0000000000000000E+00    0.0000000000000000E+00    0.0000000000000000E+00
             0.0000000000000000E+00    0.0000000000000000E+00    0.0000000000000000E+00
             0.0000000000000000E+00    0.0000000000000000E+00    0.0000000000000000E+00
             0.0000000000000000E+00    0.0000000000000000E+00    0.0000000000000000E+00
             0.0000000000000000E+00    0.0000000000000000E+00    0.0000000000000000E+00
             0.0000000000000000E+00    0.0000000000000000E+00    0.0000000000000000E+00
             0.0000000000000000E+00    0.0000000000000000E+00    0.0000000000000000E+00
             0.0000000000000000E+00    0.0000000000000000E+00    0.0000000000000000E+00
             0.0000000000000000E+00    0.0000000000000000E+00    0.0000000000000000E+00
             0.0000000000000000E+00    0.0000000000000000E+00    0.0000000000000000E+00
             0.0000000000000000E+00    0.0000000000000000E+00    0.0000000000000000E+00
             0.0000000000000000E+00    0.0000000000000000E+00    0.0000000000000000E+00
             0.0000000000000000E+00    0.0000000000000000E+00    0.0000000000000000E+00
             0.0000000000000000E+00    0.0000000000000000E+00    0.0000000000000000E+00
             0.0000000000000000E+00    0.0000000000000000E+00    0.0000000000000000E+00
             0.0000000000000000E+00    0.0000000000000000E+00    0.0000000000000000E+00
             0.0000000000000000E+00    0.0000000000000000E+00    0.0000000000000000E+00
             0.0000000000000000E+00    0.0000000000000000E+00    0.0000000000000000E+00
             0.0000000000000000E+00    0.0000000000000000E+00    0.0000000000000000E+00
             0.0000000000000000E+00    0.0000000000000000E+00    0.0000000000000000E+00
             0.0000000000000000E+00    0.0000000000000000E+00    0.0000000000000000E+00
             0.0000000000000000E+00    0.0000000000000000E+00    0.0000000000000000E+00
             0.0000000000000000E+00    0.0000000000000000E+00    0.0000000000000000E+00
             0.0000000000000000E+00    0.0000000000000000E+00    0.0000000000000000E+00
             0.0000000000000000E+00    0.0000000000000000E+00    0.0000000000000000E+00
             0.0000000000000000E+00    0.0000000000000000E+00    0.0000000000000000E+00
             0.0000000000000000E+00    0.0000000000000000E+00    0.0000000000000000E+00
             0.0000000000000000E+00    0.0000000000000000E+00    0.0000000000000000E+00
             0.0000000000000000E+00    0.0000000000000000E+00    0.0000000000000000E+00
             0.0000000000000000E+00    0.0000000000000000E+00    0.0000000000000000E+00
             0.0000000000000000E+00    0.0000000000000000E+00    0.0000000000000000E+00
             0.0000000000000000E+00    0.0000000000000000E+00    0.0000000000000000E+00
             0.0000000000000000E+00    0.0000000000000000E+00    0.0000000000000000E+00