     183
 i =       0, E =    -5729.7158660538
 Au         0.0002494950        0.0004935591        0.0003639503
 Au         0.0003026976        2.9554935471        0.0001844428
 Au         0.0003559182        5.9114935350        0.0000048745
 Au         2.9562494929        0.0004403315        0.0003064388
 Au         2.9563026954        2.9554403194        0.0001269313
 Au         2.9563559160        5.9114403074       -0.0000526370
 Au         5.9122494907        0.0003871038        0.0002489273
 Au         5.9123026932        2.9553870918        0.0000694198
 Au         5.9123559138        5.9113870798       -0.0001101485
 Au         8.6702494886        0.0003374415        0.0001952680
 Au         8.6703026912        2.9553374295        0.0000157605
 Au         8.6703559118        5.9113374175       -0.0001638078
 Au        11.6262494865        0.0002842139        0.0001377565
 Au        11.6263026890        2.9552842019       -0.0000417510
 Au        11.6263559096        5.9112841898       -0.0002213193
 Au         1.4783167718        1.4785938991        2.0902454019
 Au         1.4783699743        4.4335938870        2.0900658943
 Au         1.4784231949        7.3895938750        2.0898863260
 Au         4.4343167696        1.4785406714        2.0901878903
 Au         4.4343699722        4.4335406594        2.0900083828
 Au         4.4344231927        7.3895406474        2.0898288145
 Au         7.1923167676        1.4784910091        2.0901342311
 Au         7.1923699701        4.4334909971        2.0899547236
 Au         7.1924231907        7.3894909850        2.0897751553
 Au        10.1483167654        1.4784377815        2.0900767196
 Au        10.1483699679        4.4334377695        2.0898972120
 Au        10.1484231885        7.3894377574        2.0897176438
 Au        13.1043167632        1.4783845539        2.0900192081
 Au        13.1043699658        4.4333845418        2.0898397005
 Au        13.1044231863        7.3893845298        2.0896601322
 Au         0.0003308301        0.0007474787        4.1803639332
 Au         0.0003840327        2.9557474667        4.1801844256
 Au         0.0004372532        5.9117474546        4.1800048574
 Au         2.9563308279        0.0006942511        4.1803064217
 Au         2.9563840305        2.9556942390        4.1801269141
 Au         2.9564372511        5.9116942270        4.1799473458
 Au         5.9123308258        0.0006410234        4.1802489102
 Au         5.9123840283        2.9556410114        4.1800694026
 Au         5.9124372489        5.9116409994        4.1798898343
 Au         8.6703308237        0.0005913611        4.1801952509
 Au         8.6703840263        2.9555913491        4.1800157434
 Au         8.6704372468        5.9115913371        4.1798361751
 Au        11.6263308215        0.0005381335        4.1801377394
 Au        11.6263840241        2.9555381215        4.1799582318
 Au        11.6264372447        5.9115381094        4.1797786636
 Au         1.4783981068        1.4788478187        6.2702453847
 Au         1.4784513094        4.4338478066        6.2700658772
 Au         1.4785045300        7.3898477946        6.2698863089
 Au         4.4343981047        1.4787945910        6.2701878732
 Au         4.4344513072        4.4337945790        6.2700083657
 Au         4.4345045278        7.3897945670        6.2698287974
 Au         7.1923981026        1.4787449287        6.2701342139
 Au         7.1924513052        4.4337449167        6.2699547064
 Au         7.1925045258        7.3897449046        6.2697751381
 Au        10.1483981004        1.4786917011        6.2700767024
 Au        10.1484513030        4.4336916891        6.2698971949
 Au        10.1485045236        7.3896916770        6.2697176266
 Au        13.1043980983        1.4786384735        6.2700191909
 Au        13.1044513008        4.4336384614        6.2698396834
 Au        13.1045045214        7.3896384494        6.2696601151
 Au         0.0004121652        0.0010013983        8.3603639160
 Au         0.0004653677        2.9560013863        8.3601844085
 Au         0.0005185883        5.9120013742        8.3600048402
 Au         2.9564121630        0.0009481707        8.3603064045
 Au         2.9564653656        2.9559481586        8.3601268970
 Au         2.9565185861        5.9119481466        8.3599473287
 Au         5.9124121608        0.0008949430        8.3602488930
 Au         5.9124653634        2.9558949310        8.3600693855
 Au         5.9125185840        5.9118949190        8.3598898172
 Au         8.6704121588        0.0008452807        8.3601952337
 Au         8.6704653614        2.9558452687        8.3600157262
 Au         8.6705185819        5.9118452566        8.3598361579
 Au        11.6264121566        0.0007920531        8.3601377222
 Au        11.6264653592        2.9557920411        8.3599582147
 Au        11.6265185797        5.9117920290        8.3597786464
 Au         1.4784794419        1.4791017383       10.4502453676
 Au         1.4785326445        4.4341017262       10.4500658600
 Au         1.4785858650        7.3901017142       10.4498862917
 Au         4.4344794397        1.4790485106       10.4501878560
 Au         4.4345326423        4.4340484986       10.4500083485
 Au         4.4345858629        7.3900484866       10.4498287802
 Au         7.1924794377        1.4789988483       10.4501341968
 Au         7.1925326403        4.4339988363       10.4499546892
 Au         7.1925858608        7.3899988242       10.4497751210
 Au        10.1484794355        1.4789456207       10.4500766853
 Au        10.1485326381        4.4339456087       10.4498971777
 Au        10.1485858586        7.3899455966       10.4497176094
 Au        13.1044794333        1.4788923931       10.4500191738
 Au        13.1045326359        4.4338923810       10.4498396662
 Au        13.1045858565        7.3898923690       10.4496600979
  N         4.8557900344        5.9125870128       12.0318103672
  N         9.5285901060        5.9144029889       12.0338193284
  N         7.1925906031        5.9350954168       12.0398635014
  H        10.3349362805        5.9152567744       12.6623609298
  H         4.0613125947        5.9114932487       12.6776744858
  C         8.3713994263        5.9206113434       12.7172940441
  C         5.9998726414        5.9223853336       12.7756242288
  N         8.3114276392        5.9132206336       14.0773907612
  N         5.9316581126        5.9248088284       14.0999039468
  H         9.1713421834        5.8795189885       14.6205386301
  C         7.0808822494        5.9313770584       14.8360205821
  N         7.1202788136        5.8898473800       16.1231475133
  H         7.6443586721        6.2779771149       16.6343436481
 Au         7.2527657848        5.9356424107       21.0428634796
 Au         5.8633261678        7.3147836756       22.9918119865
 Au         8.7422767013        4.4357342158       22.9919258394
 Au         5.8632766853        4.4347836868       22.9919795287
 Au         8.7423261657        7.3147342045       22.9917583579
 Au         1.4787641536        1.4799905783       25.0822453075
 Au         1.4788173561        4.4349905663       25.0820658000
 Au         1.4788705767        7.3909905543       25.0818862317
 Au         4.4347641514        1.4799373507       25.0821877960
 Au         4.4348173540        4.4349373387       25.0820082885
 Au         4.4348705745        7.3909373266       25.0818287202
 Au         7.1927641494        1.4798876884       25.0821341367
 Au         7.1928173519        4.4348876764       25.0819546292
 Au         7.1928705725        7.3908876643       25.0817750609
 Au        10.1487641472        1.4798344608       25.0820766252
 Au        10.1488173497        4.4348344487       25.0818971177
 Au        10.1488705703        7.3908344367       25.0817175494
 Au        13.1047641450        1.4797812331       25.0820191137
 Au        13.1048173476        4.4347812211       25.0818396062
 Au        13.1048705681        7.3907812091       25.0816600379
 Au         0.0007782119        0.0021441580       27.1723638388
 Au         0.0008314145        2.9571441459       27.1721843313
 Au         0.0008846351        5.9131441339       27.1720047630
 Au         2.9567782097        0.0020909303       27.1723063273
 Au         2.9568314123        2.9570909183       27.1721268198
 Au         2.9568846329        5.9130909063       27.1719472515
 Au         5.9127782076        0.0020377027       27.1722488158
 Au         5.9128314101        2.9570376907       27.1720693083
 Au         5.9128846307        5.9130376786       27.1718897400
 Au         8.6707782055        0.0019880404       27.1721951566
 Au         8.6708314081        2.9569880284       27.1720156490
 Au         8.6708846287        5.9129880163       27.1718360807
 Au        11.6267782034        0.0019348128       27.1721376450
 Au        11.6268314059        2.9569348007       27.1719581375
 Au        11.6268846265        5.9129347887       27.1717785692
 Au         1.4788454887        1.4802444979       29.2622452904
 Au         1.4788986912        4.4352444859       29.2620657828
 Au         1.4789519118        7.3912444739       29.2618862145
 Au         4.4348454865        1.4801912703       29.2621877788
 Au         4.4348986890        4.4351912583       29.2620082713
 Au         4.4349519096        7.3911912462       29.2618287030
 Au         7.1928454844        1.4801416080       29.2621341196
 Au         7.1928986870        4.4351415960       29.2619546121
 Au         7.1929519076        7.3911415839       29.2617750438
 Au        10.1488454823        1.4800883804       29.2620766081
 Au        10.1488986848        4.4350883683       29.2618971005
 Au        10.1489519054        7.3910883563       29.2617175323
 Au        13.1048454801        1.4800351527       29.2620190966
 Au        13.1048986826        4.4350351407       29.2618395890
 Au        13.1049519032        7.3910351287       29.2616600207
 Au         0.0008595470        0.0023980776       31.3523638217
 Au         0.0009127496        2.9573980655       31.3521843142
 Au         0.0009659701        5.9133980535       31.3520047459
 Au         2.9568595448        0.0023448499       31.3523063102
 Au         2.9569127474        2.9573448379       31.3521268026
 Au         2.9569659679        5.9133448259       31.3519472344
 Au         5.9128595426        0.0022916223       31.3522487987
 Au         5.9129127452        2.9572916103       31.3520692911
 Au         5.9129659658        5.9132915982       31.3518897228
 Au         8.6708595406        0.0022419600       31.3521951394
 Au         8.6709127432        2.9572419480       31.3520156319
 Au         8.6709659637        5.9132419359       31.3518360636
 Au        11.6268595384        0.0021887324       31.3521376279
 Au        11.6269127410        2.9571887203       31.3519581203
 Au        11.6269659615        5.9131887083       31.3517785521
 Au         1.4789268237        1.4804984175       33.4422452732
 Au         1.4789800263        4.4354984055       33.4420657657
 Au         1.4790332469        7.3914983935       33.4418861974
 Au         4.4349268215        1.4804451899       33.4421877617
 Au         4.4349800241        4.4354451779       33.4420082542
 Au         4.4350332447        7.3914451658       33.4418286859
 Au         7.1929268195        1.4803955276       33.4421341024
 Au         7.1929800221        4.4353955156       33.4419545949
 Au         7.1930332426        7.3913955035       33.4417750266
 Au        10.1489268173        1.4803423000       33.4420765909
 Au        10.1489800199        4.4353422879       33.4418970834
 Au        10.1490332405        7.3913422759       33.4417175151
 Au        13.1049268152        1.4802890723       33.4420190794
 Au        13.1049800177        4.4352890603       33.4418395719
 Au        13.1050332383        7.3912890483       33.4416600036
     183
 i =       1, E =    -5729.7518649707
 Au         0.0002526440        0.0005000518        0.0003695273
 Au         0.0003066939        2.9555000395        0.0001873704
 Au         0.0003607622        5.9115000273        0.0000051518
 Au         2.9562526418        0.0004459764        0.0003111627
 Au         2.9563066917        2.9554459641        0.0001290058
 Au         2.9563607600        5.9114459519       -0.0000532127
 Au         5.9122526396        0.0003919009        0.0002527982
 Au         5.9123066895        2.9553918887        0.0000706413
 Au         5.9123607578        5.9113918765       -0.0001115773
 Au         8.6702526375        0.0003414476        0.0001983430
 Au         8.6703066874        2.9553414354        0.0000161861
 Au         8.6703607557        5.9113414232       -0.0001660325
 Au        11.6262526353        0.0002873722        0.0001399785
 Au        11.6263066852        2.9552873600       -0.0000421785
 Au        11.6263607535        5.9112873478       -0.0002243970
 Au         1.4783209477        1.4786018416        2.0902492270
 Au         1.4783749977        4.4336018294        2.0900670701
 Au         1.4784290659        7.3896018171        2.0898848515
 Au         4.4343209455        1.4785477662        2.0901908625
 Au         4.4343749955        4.4335477539        2.0900087056
 Au         4.4344290637        7.3895477417        2.0898264870
 Au         7.1923209435        1.4784973129        2.0901364073
 Au         7.1923749934        4.4334973006        2.0899542504
 Au         7.1924290617        7.3894972884        2.0897720318
 Au        10.1483209412        1.4784432374        2.0900780428
 Au        10.1483749912        4.4334432252        2.0898958858
 Au        10.1484290594        7.3894432130        2.0897136673
 Au        13.1043209390        1.4783891620        2.0900196782
 Au        13.1043749890        4.4333891498        2.0898375213
 Au        13.1044290572        7.3893891376        2.0896553027
 Au         0.0003351855        0.0007577190        4.1803695099
 Au         0.0003892354        2.9557577068        4.1801873530
 Au         0.0004433037        5.9117576946        4.1800051344
 Au         2.9563351832        0.0007036436        4.1803111453
 Au         2.9563892332        2.9557036314        4.1801289884
 Au         2.9564433014        5.9117036192        4.1799467698
 Au         5.9123351810        0.0006495682        4.1802527808
 Au         5.9123892310        2.9556495560        4.1800706239
 Au         5.9124432992        5.9116495438        4.1798884053
 Au         8.6703351790        0.0005991149        4.1801983256
 Au         8.6703892289        2.9555991027        4.1800161687
 Au         8.6704432972        5.9115990904        4.1798339501
 Au        11.6263351768        0.0005450395        4.1801399611
 Au        11.6263892267        2.9555450273        4.1799578041
 Au        11.6264432950        5.9115450150        4.1797755856
 Au         1.4784034892        1.4788595088        6.2702492096
 Au         1.4784575392        4.4338594966        6.2700670527
 Au         1.4785116074        7.3898594844        6.2698848341
 Au         4.4344034870        1.4788054334        6.2701908451
 Au         4.4344575369        4.4338054212        6.2700086882
 Au         4.4345116052        7.3898054090        6.2698264696
 Au         7.1924034849        1.4787549801        6.2701363899
 Au         7.1924575349        4.4337549679        6.2699542330
 Au         7.1925116031        7.3897549557        6.2697720144
 Au        10.1484034827        1.4787009047        6.2700780254
 Au        10.1484575327        4.4337008925        6.2698958684
 Au        10.1485116009        7.3897008803        6.2697136499
 Au        13.1044034805        1.4786468293        6.2700196608
 Au        13.1044575305        4.4336468171        6.2698375039
 Au        13.1045115987        7.3896468048        6.2696552853
 Au         0.0004177269        0.0010153863        8.3603694925
 Au         0.0004717769        2.9560153740        8.3601873356
 Au         0.0005258451        5.9120153618        8.3600051170
 Au         2.9564177247        0.0009613108        8.3603111279
 Au         2.9564717747        2.9559612986        8.3601289710
 Au         2.9565258429        5.9119612864        8.3599467524
 Au         5.9124177225        0.0009072354        8.3602527634
 Au         5.9124717725        2.9559072232        8.3600706065
 Au         5.9125258407        5.9119072110        8.3598883879
 Au         8.6704177204        0.0008567821        8.3601983082
 Au         8.6704717704        2.9558567699        8.3600161513
 Au         8.6705258386        5.9118567577        8.3598339327
 Au        11.6264177182        0.0008027067        8.3601399437
 Au        11.6264717682        2.9558026945        8.3599577867
 Au        11.6265258364        5.9118026823        8.3597755682
 Au         1.4784860307        1.4791171761       10.4502491922
 Au         1.4785400806        4.4341171638       10.4500670353
 Au         1.4785941489        7.3901171516       10.4498848167
 Au         4.4344860285        1.4790631007       10.4501908277
 Au         4.4345400784        4.4340630884       10.4500086707
 Au         4.4345941467        7.3900630762       10.4498264522
 Au         7.1924860264        1.4790126473       10.4501363725
 Au         7.1925400764        4.4340126351       10.4499542156
 Au         7.1925941446        7.3900126229       10.4497719970
 Au        10.1484860242        1.4789585719       10.4500780080
 Au        10.1485400741        4.4339585597       10.4498958510
 Au        10.1485941424        7.3899585475       10.4497136325
 Au        13.1044860220        1.4789044965       10.4500196434
 Au        13.1045400719        4.4339044843       10.4498374865
 Au        13.1045941402        7.3899044721       10.4496552679
  N         4.8557954225        5.9125963113       12.0318107069
  N         9.5285984236        5.9144124132       12.0338168536
  N         7.1925989285        5.9351106411       12.0398616819
  H        10.3346097938        5.9153754520       12.6633656421
  H         4.0615830215        5.9115523953       12.6784506712
  C         8.3727750199        5.9213826378       12.7225375092
  C         6.0002920965        5.9218692975       12.7834537578
  N         8.3120038889        5.9157553741       14.0740278891
  N         5.9303212740        5.9231588306       14.0953275169
  H         9.1712814161        5.8800166039       14.6206326561
  C         7.0852593186        5.9315673238       14.8464536871
  N         7.0386248026        5.8431365733       16.0476282061
  H         7.7165153634        6.3331792524       16.7032425606
 Au         7.2518981894        5.9356657054       21.0428616594
 Au         5.8640627961        7.3130374067       22.9918094071
 Au         8.7412408553        4.4357588338       22.9919249373
 Au         5.8640125196        4.4348090986       22.9919794239
 Au         8.7412911135        7.3129871419       22.9917549821
 Au         1.4787749653        1.4800191347       25.0822491313
 Au         1.4788290153        4.4350191225       25.0820669744
 Au         1.4788830835        7.3910191103       25.0818847558
 Au         4.4347749631        1.4799650593       25.0821907668
 Au         4.4348290131        4.4349650471       25.0820086098
 Au         4.4348830813        7.3909650349       25.0818263913
 Au         7.1927749611        1.4799146060       25.0821363116
 Au         7.1928290110        4.4349145938       25.0819541547
 Au         7.1928830793        7.3909145816       25.0817719361
 Au        10.1487749589        1.4798605306       25.0820779470
 Au        10.1488290088        4.4348605184       25.0818957901
 Au        10.1488830771        7.3908605061       25.0817135715
 Au        13.1047749566        1.4798064552       25.0820195825
 Au        13.1048290066        4.4348064430       25.0818374256
 Au        13.1048830748        7.3908064307       25.0816552070
 Au         0.0007892031        0.0021750121       27.1723694142
 Au         0.0008432530        2.9571749999       27.1721872572
 Au         0.0008973213        5.9131749877       27.1720050387
 Au         2.9567892008        0.0021209367       27.1723110496
 Au         2.9568432508        2.9571209245       27.1721288927
 Au         2.9568973190        5.9131209123       27.1719466741
 Au         5.9127891986        0.0020668613       27.1722526851
 Au         5.9128432486        2.9570668491       27.1720705281
 Au         5.9128973168        5.9130668369       27.1718883096
 Au         8.6707891966        0.0020164080       27.1721982299
 Au         8.6708432465        2.9570163958       27.1720160730
 Au         8.6708973148        5.9130163836       27.1718338544
 Au        11.6267891944        0.0019623326       27.1721398653
 Au        11.6268432443        2.9569623204       27.1719577084
 Au        11.6268973126        5.9129623082       27.1717754898
 Au         1.4788575068        1.4802768019       29.2622491139
 Au         1.4789115568        4.4352767897       29.2620669570
 Au         1.4789656250        7.3912767775       29.2618847384
 Au         4.4348575046        1.4802227265       29.2621907493
 Au         4.4349115546        4.4352227143       29.2620085924
 Au         4.4349656228        7.3912227021       29.2618263739
 Au         7.1928575025        1.4801722732       29.2621362942
 Au         7.1929115525        4.4351722610       29.2619541373
 Au         7.1929656207        7.3911722488       29.2617719187
 Au        10.1488575003        1.4801181978       29.2620779296
 Au        10.1489115503        4.4351181856       29.2618957727
 Au        10.1489656185        7.3911181734       29.2617135541
 Au        13.1048574981        1.4800641224       29.2620195651
 Au        13.1049115481        4.4350641102       29.2618374081
 Au        13.1049656163        7.3910640980       29.2616551896
 Au         0.0008717445        0.0024326794       31.3523693968
 Au         0.0009257945        2.9574326672       31.3521872398
 Au         0.0009798627        5.9134326550       31.3520050213
 Au         2.9568717423        0.0023786040       31.3523110322
 Au         2.9569257923        2.9573785918       31.3521288753
 Au         2.9569798605        5.9133785795       31.3519466567
 Au         5.9128717401        0.0023245286       31.3522526677
 Au         5.9129257901        2.9573245164       31.3520705107
 Au         5.9129798583        5.9133245041       31.3518882922
 Au         8.6708717380        0.0022740753       31.3521982125
 Au         8.6709257880        2.9572740630       31.3520160556
 Au         8.6709798562        5.9132740508       31.3518338370
 Au        11.6268717358        0.0022199998       31.3521398479
 Au        11.6269257858        2.9572199876       31.3519576910
 Au        11.6269798540        5.9132199754       31.3517754724
 Au         1.4789400483        1.4805344692       33.4422490965
 Au         1.4789940982        4.4355344570       33.4420669396
 Au         1.4790481665        7.3915344448       33.4418847210
 Au         4.4349400461        1.4804803938       33.4421907319
 Au         4.4349940960        4.4354803816       33.4420085750
 Au         4.4350481643        7.3914803694       33.4418263565
 Au         7.1929400440        1.4804299405       33.4421362768
 Au         7.1929940940        4.4354299283       33.4419541199
 Au         7.1930481622        7.3914299160       33.4417719013
 Au        10.1489400418        1.4803758651       33.4420779122
 Au        10.1489940918        4.4353758529       33.4418957553
 Au        10.1490481600        7.3913758406       33.4417135367
 Au        13.1049400396        1.4803217897       33.4420195477
 Au        13.1049940895        4.4353217774       33.4418373907
 Au        13.1050481578        7.3913217652       33.4416551722
     183
 i =       2, E =    -5729.7613043016
 Au         0.0002517979        0.0004983073        0.0003680286
 Au         0.0003056202        2.9554982951        0.0001865836
 Au         0.0003594606        5.9114982829        0.0000050772
 Au         2.9562517957        0.0004444597        0.0003098933
 Au         2.9563056180        2.9554444475        0.0001284483
 Au         2.9563594584        5.9114444353       -0.0000530581
 Au         5.9122517935        0.0003906121        0.0002517580
 Au         5.9123056157        2.9553905999        0.0000703130
 Au         5.9123594562        5.9113905878       -0.0001111934
 Au         8.6702517915        0.0003403714        0.0001975167
 Au         8.6703056137        2.9553403592        0.0000160717
 Au         8.6703594541        5.9113403470       -0.0001654347
 Au        11.6262517893        0.0002865238        0.0001393813
 Au        11.6263056115        2.9552865116       -0.0000420636
 Au        11.6263594519        5.9112864994       -0.0002235700
 Au         1.4783198257        1.4785997075        2.0902481991
 Au         1.4783736479        4.4335996953        2.0900667541
 Au         1.4784274884        7.3895996831        2.0898852477
 Au         4.4343198235        1.4785458599        2.0901900638
 Au         4.4343736457        4.4335458477        2.0900086188
 Au         4.4344274862        7.3895458355        2.0898271124
 Au         7.1923198214        1.4784956191        2.0901358225
 Au         7.1923736437        4.4334956070        2.0899543775
 Au         7.1924274841        7.3894955948        2.0897728711
 Au        10.1483198192        1.4784417716        2.0900776871
 Au        10.1483736415        4.4334417594        2.0898962422
 Au        10.1484274819        7.3894417472        2.0897147358
 Au        13.1043198170        1.4783879240        2.0900195518
 Au        13.1043736393        4.4333879118        2.0898381068
 Au        13.1044274797        7.3893878996        2.0896566005
 Au         0.0003340152        0.0007549674        4.1803680113
 Au         0.0003878374        2.9557549553        4.1801865663
 Au         0.0004416779        5.9117549431        4.1800050599
 Au         2.9563340130        0.0007011199        4.1803098760
 Au         2.9563878352        2.9557011077        4.1801284310
 Au         2.9564416757        5.9117010955        4.1799469246
 Au         5.9123340108        0.0006472723        4.1802517406
 Au         5.9123878330        2.9556472601        4.1800702956
 Au         5.9124416735        5.9116472479        4.1798887893
 Au         8.6703340088        0.0005970315        4.1801974993
 Au         8.6703878310        2.9555970194        4.1800160544
 Au         8.6704416714        5.9115970072        4.1798345480
 Au        11.6263340066        0.0005431840        4.1801393640
 Au        11.6263878288        2.9555431718        4.1799579190
 Au        11.6264416692        5.9115431596        4.1797764126
 Au         1.4784020430        1.4788563676        6.2702481818
 Au         1.4784558652        4.4338563555        6.2700667368
 Au         1.4785097057        7.3898563433        6.2698852304
 Au         4.4344020408        1.4788025201        6.2701900464
 Au         4.4344558630        4.4338025079        6.2700086014
 Au         4.4345097035        7.3898024957        6.2698270951
 Au         7.1924020387        1.4787522793        6.2701358051
 Au         7.1924558610        4.4337522672        6.2699543602
 Au         7.1925097014        7.3897522550        6.2697728538
 Au        10.1484020365        1.4786984317        6.2700776698
 Au        10.1484558587        4.4336984196        6.2698962248
 Au        10.1485096992        7.3896984074        6.2697147184
 Au        13.1044020343        1.4786445842        6.2700195345
 Au        13.1044558565        4.4336445720        6.2698380895
 Au        13.1045096970        7.3896445598        6.2696565831
 Au         0.0004162325        0.0010116276        8.3603679939
 Au         0.0004700547        2.9560116154        8.3601865490
 Au         0.0005238952        5.9120116033        8.3600050426
 Au         2.9564162303        0.0009577800        8.3603098586
 Au         2.9564700525        2.9559577679        8.3601284136
 Au         2.9565238930        5.9119577557        8.3599469072
 Au         5.9124162281        0.0009039325        8.3602517233
 Au         5.9124700503        2.9559039203        8.3600702783
 Au         5.9125238908        5.9119039081        8.3598887719
 Au         8.6704162260        0.0008536917        8.3601974820
 Au         8.6704700483        2.9558536795        8.3600160370
 Au         8.6705238887        5.9118536674        8.3598345306
 Au        11.6264162238        0.0007998441        8.3601393467
 Au        11.6264700461        2.9557998320        8.3599579017
 Au        11.6265238865        5.9117998198        8.3597763953
 Au         1.4784842603        1.4791130278       10.4502481644
 Au         1.4785380825        4.4341130157       10.4500667194
 Au         1.4785919229        7.3901130035       10.4498852131
 Au         4.4344842581        1.4790591802       10.4501900291
 Au         4.4345380803        4.4340591681       10.4500085841
 Au         4.4345919207        7.3900591559       10.4498270777
 Au         7.1924842560        1.4790089395       10.4501357878
 Au         7.1925380782        4.4340089273       10.4499543428
 Au         7.1925919187        7.3900089152       10.4497728364
 Au        10.1484842538        1.4789550919       10.4500776525
 Au        10.1485380760        4.4339550798       10.4498962075
 Au        10.1485919165        7.3899550676       10.4497147011
 Au        13.1044842516        1.4789012443       10.4500195171
 Au        13.1045380738        4.4339012322       10.4498380722
 Au        13.1045919143        7.3899012200       10.4496565658
  N         4.8557939747        5.9125938128       12.0318106156
  N         9.5285961886        5.9144098809       12.0338175186
  N         7.1925966914        5.9351065503       12.0398621708