 # Version information for this restart file 
 # current date 2024-01-10 21:01:55.707
 # current working dir /gpfs/home/cahart/transport/melamine/au_from-h2/ci-neb/ts2/dft_leads-sz_tip-dzvp_surf-dzvp_kpoints-2-4-20_replicas-5
 # Program compiled at                              Thu 21 Sep 19:20:17 BST 2023
 # Program compiled on                                           hx1-c12-login-1
 # Program compiled for                                                    local
 # Source code revision number                                       git:5518aa6
 &GLOBAL
   EXTENDED_FFT_LENGTHS  T
   PRINT_LEVEL  MEDIUM
   PROJECT_NAME 2_dft_wfn-r-0
   OUTPUT_FILE_NAME 2_dft_wfn-r-0.out
   RUN_TYPE  BAND
 &END GLOBAL
 &MOTION
   &CONSTRAINT
     &FIXED_ATOMS
       LIST  1..93 104..183
     &END FIXED_ATOMS
   &END CONSTRAINT
   &BAND
     NPROC_REP  64
     BAND_TYPE  CI-NEB
     NUMBER_OF_REPLICA  5
     K_SPRING     5.0000000000000003E-02
     &CI_NEB
       NSTEPS_IT  5
     &END CI_NEB
     &OPTIMIZE_BAND
       OPT_TYPE  DIIS
       &DIIS
         MAX_STEPS  1000
       &END DIIS
     &END OPTIMIZE_BAND
     &REPLICA
       &COORD
             0.0000000000000000E+00    0.0000000000000000E+00    0.0000000000000000E+00
             0.0000000000000000E+00    2.9549999999999987E+00    0.0000000000000000E+00
             0.0000000000000000E+00    5.9109999999999951E+00    0.0000000000000000E+00
             2.9560000000000000E+00    0.0000000000000000E+00    0.0000000000000000E+00
             2.9560000000000000E+00    2.9549999999999987E+00    0.0000000000000000E+00
             2.9560000000000000E+00    5.9109999999999951E+00    0.0000000000000000E+00
             5.9119999999999999E+00    0.0000000000000000E+00    0.0000000000000000E+00
             5.9119999999999999E+00    2.9549999999999987E+00    0.0000000000000000E+00
             5.9119999999999999E+00    5.9109999999999951E+00    0.0000000000000000E+00
             8.6699999999999946E+00    0.0000000000000000E+00    0.0000000000000000E+00
             8.6699999999999946E+00    2.9549999999999987E+00    0.0000000000000000E+00
             8.6699999999999946E+00    5.9109999999999951E+00    0.0000000000000000E+00
             1.1625999999999996E+01    0.0000000000000000E+00    0.0000000000000000E+00
             1.1625999999999996E+01    2.9549999999999987E+00    0.0000000000000000E+00
             1.1625999999999996E+01    5.9109999999999951E+00    0.0000000000000000E+00
             1.4780000000000000E+00    1.4780000000000000E+00    2.0899999999999990E+00
             1.4780000000000000E+00    4.4329999999999972E+00    2.0899999999999990E+00
             1.4780000000000000E+00    7.3889999999999967E+00    2.0899999999999990E+00
             4.4339999999999984E+00    1.4780000000000000E+00    2.0899999999999990E+00
             4.4339999999999984E+00    4.4329999999999972E+00    2.0899999999999990E+00
             4.4339999999999984E+00    7.3889999999999967E+00    2.0899999999999990E+00
             7.1919999999999957E+00    1.4780000000000000E+00    2.0899999999999990E+00
             7.1919999999999957E+00    4.4329999999999972E+00    2.0899999999999990E+00
             7.1919999999999957E+00    7.3889999999999967E+00    2.0899999999999990E+00
             1.0147999999999996E+01    1.4780000000000000E+00    2.0899999999999990E+00
             1.0147999999999996E+01    4.4329999999999972E+00    2.0899999999999990E+00
             1.0147999999999996E+01    7.3889999999999967E+00    2.0899999999999990E+00
             1.3103999999999994E+01    1.4780000000000000E+00    2.0899999999999990E+00
             1.3103999999999994E+01    4.4329999999999972E+00    2.0899999999999990E+00
             1.3103999999999994E+01    7.3889999999999967E+00    2.0899999999999990E+00
             0.0000000000000000E+00    0.0000000000000000E+00    4.1799999999999979E+00
             0.0000000000000000E+00    2.9549999999999987E+00    4.1799999999999979E+00
             0.0000000000000000E+00    5.9109999999999951E+00    4.1799999999999979E+00
             2.9560000000000000E+00    0.0000000000000000E+00    4.1799999999999979E+00
             2.9560000000000000E+00    2.9549999999999987E+00    4.1799999999999979E+00
             2.9560000000000000E+00    5.9109999999999951E+00    4.1799999999999979E+00
             5.9119999999999999E+00    0.0000000000000000E+00    4.1799999999999979E+00
             5.9119999999999999E+00    2.9549999999999987E+00    4.1799999999999979E+00
             5.9119999999999999E+00    5.9109999999999951E+00    4.1799999999999979E+00
             8.6699999999999946E+00    0.0000000000000000E+00    4.1799999999999979E+00
             8.6699999999999946E+00    2.9549999999999987E+00    4.1799999999999979E+00
             8.6699999999999946E+00    5.9109999999999951E+00    4.1799999999999979E+00
             1.1625999999999996E+01    0.0000000000000000E+00    4.1799999999999979E+00
             1.1625999999999996E+01    2.9549999999999987E+00    4.1799999999999979E+00
             1.1625999999999996E+01    5.9109999999999951E+00    4.1799999999999979E+00
             1.4780000000000000E+00    1.4780000000000000E+00    6.2699999999999978E+00
             1.4780000000000000E+00    4.4329999999999972E+00    6.2699999999999978E+00
             1.4780000000000000E+00    7.3889999999999967E+00    6.2699999999999978E+00
             4.4339999999999984E+00    1.4780000000000000E+00    6.2699999999999978E+00
             4.4339999999999984E+00    4.4329999999999972E+00    6.2699999999999978E+00
             4.4339999999999984E+00    7.3889999999999967E+00    6.2699999999999978E+00
             7.1919999999999957E+00    1.4780000000000000E+00    6.2699999999999978E+00
             7.1919999999999957E+00    4.4329999999999972E+00    6.2699999999999978E+00
             7.1919999999999957E+00    7.3889999999999967E+00    6.2699999999999978E+00
             1.0147999999999996E+01    1.4780000000000000E+00    6.2699999999999978E+00
             1.0147999999999996E+01    4.4329999999999972E+00    6.2699999999999978E+00
             1.0147999999999996E+01    7.3889999999999967E+00    6.2699999999999978E+00
             1.3103999999999994E+01    1.4780000000000000E+00    6.2699999999999978E+00
             1.3103999999999994E+01    4.4329999999999972E+00    6.2699999999999978E+00
             1.3103999999999994E+01    7.3889999999999967E+00    6.2699999999999978E+00
             0.0000000000000000E+00    0.0000000000000000E+00    8.3599999999999959E+00
             0.0000000000000000E+00    2.9549999999999987E+00    8.3599999999999959E+00
             0.0000000000000000E+00    5.9109999999999951E+00    8.3599999999999959E+00
             2.9560000000000000E+00    0.0000000000000000E+00    8.3599999999999959E+00
             2.9560000000000000E+00    2.9549999999999987E+00    8.3599999999999959E+00
             2.9560000000000000E+00    5.9109999999999951E+00    8.3599999999999959E+00
             5.9119999999999999E+00    0.0000000000000000E+00    8.3599999999999959E+00
             5.9119999999999999E+00    2.9549999999999987E+00    8.3599999999999959E+00
             5.9119999999999999E+00    5.9109999999999951E+00    8.3599999999999959E+00
             8.6699999999999946E+00    0.0000000000000000E+00    8.3599999999999959E+00
             8.6699999999999946E+00    2.9549999999999987E+00    8.3599999999999959E+00
             8.6699999999999946E+00    5.9109999999999951E+00    8.3599999999999959E+00
             1.1625999999999996E+01    0.0000000000000000E+00    8.3599999999999959E+00
             1.1625999999999996E+01    2.9549999999999987E+00    8.3599999999999959E+00
             1.1625999999999996E+01    5.9109999999999951E+00    8.3599999999999959E+00
             1.4780000000000000E+00    1.4780000000000000E+00    1.0449999999999992E+01
             1.4780000000000000E+00    4.4329999999999972E+00    1.0449999999999992E+01
             1.4780000000000000E+00    7.3889999999999967E+00    1.0449999999999992E+01
             4.4339999999999984E+00    1.4780000000000000E+00    1.0449999999999992E+01
             4.4339999999999984E+00    4.4329999999999972E+00    1.0449999999999992E+01
             4.4339999999999984E+00    7.3889999999999967E+00    1.0449999999999992E+01
             7.1919999999999957E+00    1.4780000000000000E+00    1.0449999999999992E+01
             7.1919999999999957E+00    4.4329999999999972E+00    1.0449999999999992E+01
             7.1919999999999957E+00    7.3889999999999967E+00    1.0449999999999992E+01
             1.0147999999999996E+01    1.4780000000000000E+00    1.0449999999999992E+01
             1.0147999999999996E+01    4.4329999999999972E+00    1.0449999999999992E+01
             1.0147999999999996E+01    7.3889999999999967E+00    1.0449999999999992E+01
             1.3103999999999994E+01    1.4780000000000000E+00    1.0449999999999992E+01
             1.3103999999999994E+01    4.4329999999999972E+00    1.0449999999999992E+01
             1.3103999999999994E+01    7.3889999999999967E+00    1.0449999999999992E+01
             4.8553999999999977E+00    5.9118999999999966E+00    1.2031799999999995E+01
             9.5279999999999951E+00    5.9136999999999960E+00    1.2033999999999995E+01
             7.1919999999999957E+00    5.9339999999999975E+00    1.2039999999999994E+01
             1.0318905404799995E+01    5.9087793825999979E+00    1.2685747073199995E+01
             4.0673339927999983E+00    5.9059993219999987E+00    1.2687741368899992E+01
             8.3738707292999948E+00    5.9179777706999985E+00    1.2731457252199991E+01
             5.9989554221999972E+00    5.9152564165999983E+00    1.2792642411199994E+01
             8.3227525761999956E+00    5.9051536094999975E+00    1.4080497642099994E+01
             5.9344285048999970E+00    5.8981604864999975E+00    1.4101749969599995E+01
             9.1743570612999950E+00    5.8876302391999982E+00    1.4641017735299993E+01
             7.1039653576999964E+00    5.8899410688999971E+00    1.4828703219099992E+01
             7.2416021046999974E+00    5.8657702091999964E+00    1.6106466757299994E+01
             6.3118250322999971E+00    5.8547577070999965E+00    1.6539601306199994E+01
             7.3119999999999958E+00    5.9339999999999975E+00    2.1042999999999989E+01
             5.8129999999999979E+00    7.4339999999999975E+00    2.2991999999999994E+01
             8.8129999999999971E+00    4.4339999999999984E+00    2.2991999999999994E+01
             5.8129999999999979E+00    4.4329999999999972E+00    2.2991999999999994E+01
             8.8129999999999971E+00    7.4339999999999975E+00    2.2991999999999994E+01
             1.4780000000000000E+00    1.4780000000000000E+00    2.5081999999999994E+01
             1.4780000000000000E+00    4.4329999999999972E+00    2.5081999999999994E+01
             1.4780000000000000E+00    7.3889999999999967E+00    2.5081999999999994E+01
             4.4339999999999984E+00    1.4780000000000000E+00    2.5081999999999994E+01
             4.4339999999999984E+00    4.4329999999999972E+00    2.5081999999999994E+01
             4.4339999999999984E+00    7.3889999999999967E+00    2.5081999999999994E+01
             7.1919999999999957E+00    1.4780000000000000E+00    2.5081999999999994E+01
             7.1919999999999957E+00    4.4329999999999972E+00    2.5081999999999994E+01
             7.1919999999999957E+00    7.3889999999999967E+00    2.5081999999999994E+01
             1.0147999999999996E+01    1.4780000000000000E+00    2.5081999999999994E+01
             1.0147999999999996E+01    4.4329999999999972E+00    2.5081999999999994E+01
             1.0147999999999996E+01    7.3889999999999967E+00    2.5081999999999994E+01
             1.3103999999999994E+01    1.4780000000000000E+00    2.5081999999999994E+01
             1.3103999999999994E+01    4.4329999999999972E+00    2.5081999999999994E+01
             1.3103999999999994E+01    7.3889999999999967E+00    2.5081999999999994E+01
             0.0000000000000000E+00    0.0000000000000000E+00    2.7171999999999993E+01
             0.0000000000000000E+00    2.9549999999999987E+00    2.7171999999999993E+01
             0.0000000000000000E+00    5.9109999999999951E+00    2.7171999999999993E+01
             2.9560000000000000E+00    0.0000000000000000E+00    2.7171999999999993E+01
             2.9560000000000000E+00    2.9549999999999987E+00    2.7171999999999993E+01
             2.9560000000000000E+00    5.9109999999999951E+00    2.7171999999999993E+01
             5.9119999999999999E+00    0.0000000000000000E+00    2.7171999999999993E+01
             5.9119999999999999E+00    2.9549999999999987E+00    2.7171999999999993E+01
             5.9119999999999999E+00    5.9109999999999951E+00    2.7171999999999993E+01
             8.6699999999999946E+00    0.0000000000000000E+00    2.7171999999999993E+01
             8.6699999999999946E+00    2.9549999999999987E+00    2.7171999999999993E+01
             8.6699999999999946E+00    5.9109999999999951E+00    2.7171999999999993E+01
             1.1625999999999996E+01    0.0000000000000000E+00    2.7171999999999993E+01
             1.1625999999999996E+01    2.9549999999999987E+00    2.7171999999999993E+01
             1.1625999999999996E+01    5.9109999999999951E+00    2.7171999999999993E+01
             1.4780000000000000E+00    1.4780000000000000E+00    2.9261999999999997E+01
             1.4780000000000000E+00    4.4329999999999972E+00    2.9261999999999997E+01
             1.4780000000000000E+00    7.3889999999999967E+00    2.9261999999999997E+01
             4.4339999999999984E+00    1.4780000000000000E+00    2.9261999999999997E+01
             4.4339999999999984E+00    4.4329999999999972E+00    2.9261999999999997E+01
             4.4339999999999984E+00    7.3889999999999967E+00    2.9261999999999997E+01
             7.1919999999999957E+00    1.4780000000000000E+00    2.9261999999999997E+01
             7.1919999999999957E+00    4.4329999999999972E+00    2.9261999999999997E+01
             7.1919999999999957E+00    7.3889999999999967E+00    2.9261999999999997E+01
             1.0147999999999996E+01    1.4780000000000000E+00    2.9261999999999997E+01
             1.0147999999999996E+01    4.4329999999999972E+00    2.9261999999999997E+01
             1.0147999999999996E+01    7.3889999999999967E+00    2.9261999999999997E+01
             1.3103999999999994E+01    1.4780000000000000E+00    2.9261999999999997E+01
             1.3103999999999994E+01    4.4329999999999972E+00    2.9261999999999997E+01
             1.3103999999999994E+01    7.3889999999999967E+00    2.9261999999999997E+01
             0.0000000000000000E+00    0.0000000000000000E+00    3.1351999999999983E+01
             0.0000000000000000E+00    2.9549999999999987E+00    3.1351999999999983E+01
             0.0000000000000000E+00    5.9109999999999951E+00    3.1351999999999983E+01
             2.9560000000000000E+00    0.0000000000000000E+00    3.1351999999999983E+01
             2.9560000000000000E+00    2.9549999999999987E+00    3.1351999999999983E+01
             2.9560000000000000E+00    5.9109999999999951E+00    3.1351999999999983E+01
             5.9119999999999999E+00    0.0000000000000000E+00    3.1351999999999983E+01
             5.9119999999999999E+00    2.9549999999999987E+00    3.1351999999999983E+01
             5.9119999999999999E+00    5.9109999999999951E+00    3.1351999999999983E+01
             8.6699999999999946E+00    0.0000000000000000E+00    3.1351999999999983E+01
             8.6699999999999946E+00    2.9549999999999987E+00    3.1351999999999983E+01
             8.6699999999999946E+00    5.9109999999999951E+00    3.1351999999999983E+01
             1.1625999999999996E+01    0.0000000000000000E+00    3.1351999999999983E+01
             1.1625999999999996E+01    2.9549999999999987E+00    3.1351999999999983E+01
             1.1625999999999996E+01    5.9109999999999951E+00    3.1351999999999983E+01
             1.4780000000000000E+00    1.4780000000000000E+00    3.3441999999999986E+01
             1.4780000000000000E+00    4.4329999999999972E+00    3.3441999999999986E+01
             1.4780000000000000E+00    7.3889999999999967E+00    3.3441999999999986E+01
             4.4339999999999984E+00    1.4780000000000000E+00    3.3441999999999986E+01
             4.4339999999999984E+00    4.4329999999999972E+00    3.3441999999999986E+01
             4.4339999999999984E+00    7.3889999999999967E+00    3.3441999999999986E+01
             7.1919999999999957E+00    1.4780000000000000E+00    3.3441999999999986E+01
             7.1919999999999957E+00    4.4329999999999972E+00    3.3441999999999986E+01
             7.1919999999999957E+00    7.3889999999999967E+00    3.3441999999999986E+01
             1.0147999999999996E+01    1.4780000000000000E+00    3.3441999999999986E+01
             1.0147999999999996E+01    4.4329999999999972E+00    3.3441999999999986E+01
             1.0147999999999996E+01    7.3889999999999967E+00    3.3441999999999986E+01
             1.3103999999999994E+01    1.4780000000000000E+00    3.3441999999999986E+01
             1.3103999999999994E+01    4.4329999999999972E+00    3.3441999999999986E+01
             1.3103999999999994E+01    7.3889999999999967E+00    3.3441999999999986E+01
       &END COORD
       &VELOCITY
             0.0000000000000000E+00    0.0000000000000000E+00    0.0000000000000000E+00
             0.0000000000000000E+00    0.0000000000000000E+00    0.0000000000000000E+00
             0.0000000000000000E+00    0.0000000000000000E+00    0.0000000000000000E+00
             0.0000000000000000E+00    0.0000000000000000E+00    0.0000000000000000E+00
             0.0000000000000000E+00    0.0000000000000000E+00    0.0000000000000000E+00
             0.0000000000000000E+00    0.0000000000000000E+00    0.0000000000000000E+00
             0.0000000000000000E+00    0.0000000000000000E+00    0.0000000000000000E+00
             0.0000000000000000E+00    0.0000000000000000E+00    0.0000000000000000E+00
             0.0000000000000000E+00    0.0000000000000000E+00    0.0000000000000000E+00
             0.0000000000000000E+00    0.0000000000000000E+00    0.0000000000000000E+00
             0.0000000000000000E+00    0.0000000000000000E+00    0.0000000000000000E+00
             0.0000000000000000E+00    0.0000000000000000E+00    0.0000000000000000E+00
             0.0000000000000000E+00    0.0000000000000000E+00    0.0000000000000000E+00
             0.0000000000000000E+00    0.0000000000000000E+00    0.0000000000000000E+00
             0.0000000000000000E+00    0.0000000000000000E+00    0.0000000000000000E+00
             0.0000000000000000E+00    0.0000000000000000E+00    0.0000000000000000E+00
             0.0000000000000000E+00    0.0000000000000000E+00    0.0000000000000000E+00
             0.0000000000000000E+00    0.0000000000000000E+00    0.0000000000000000E+00
             0.0000000000000000E+00    0.0000000000000000E+00    0.0000000000000000E+00
             0.0000000000000000E+00    0.0000000000000000E+00    0.0000000000000000E+00
             0.0000000000000000E+00    0.0000000000000000E+00    0.0000000000000000E+00
             0.0000000000000000E+00    0.0000000000000000E+00    0.0000000000000000E+00
             0.0000000000000000E+00    0.0000000000000000E+00    0.0000000000000000E+00
             0.0000000000000000E+00    0.0000000000000000E+00    0.0000000000000000E+00
             0.0000000000000000E+00    0.0000000000000000E+00    0.0000000000000000E+00
             0.0000000000000000E+00    0.0000000000000000E+00    0.0000000000000000E+00
             0.0000000000000000E+00    0.0000000000000000E+00    0.0000000000000000E+00
             0.0000000000000000E+00    0.0000000000000000E+00    0.0000000000000000E+00
             0.0000000000000000E+00    0.0000000000000000E+00    0.0000000000000000E+00
             0.0000000000000000E+00    0.0000000000000000E+00    0.0000000000000000E+00
             0.0000000000000000E+00    0.0000000000000000E+00    0.0000000000000000E+00
             0.0000000000000000E+00    0.0000000000000000E+00    0.0000000000000000E+00
             0.0000000000000000E+00    0.0000000000000000E+00    0.0000000000000000E+00
             0.0000000000000000E+00    0.0000000000000000E+00    0.0000000000000000E+00
             0.0000000000000000E+00    0.0000000000000000E+00    0.0000000000000000E+00
             0.0000000000000000E+00    0.0000000000000000E+00    0.0000000000000000E+00
             0.0000000000000000E+00    0.0000000000000000E+00    0.0000000000000000E+00
             0.0000000000000000E+00    0.0000000000000000E+00    0.0000000000000000E+00
             0.0000000000000000E+00    0.0000000000000000E+00    0.0000000000000000E+00
             0.0000000000000000E+00    0.0000000000000000E+00    0.0000000000000000E+00
             0.0000000000000000E+00    0.0000000000000000E+00    0.0000000000000000E+00
             0.0000000000000000E+00    0.0000000000000000E+00    0.0000000000000000E+00
             0.0000000000000000E+00    0.0000000000000000E+00    0.0000000000000000E+00
             0.0000000000000000E+00    0.0000000000000000E+00    0.0000000000000000E+00
             0.0000000000000000E+00    0.0000000000000000E+00    0.0000000000000000E+00
             0.0000000000000000E+00    0.0000000000000000E+00    0.0000000000000000E+00
             0.0000000000000000E+00    0.0000000000000000E+00    0.0000000000000000E+00
             0.0000000000000000E+00    0.0000000000000000E+00    0.0000000000000000E+00
             0.0000000000000000E+00    0.0000000000000000E+00    0.0000000000000000E+00
             0.0000000000000000E+00    0.0000000000000000E+00    0.0000000000000000E+00
             0.0000000000000000E+00    0.0000000000000000E+00    0.0000000000000000E+00
             0.0000000000000000E+00    0.0000000000000000E+00    0.0000000000000000E+00
             0.0000000000000000E+00    0.0000000000000000E+00    0.0000000000000000E+00
             0.0000000000000000E+00    0.0000000000000000E+00    0.0000000000000000E+00
             0.0000000000000000E+00    0.0000000000000000E+00    0.0000000000000000E+00
             0.0000000000000000E+00    0.0000000000000000E+00    0.0000000000000000E+00
             0.0000000000000000E+00    0.0000000000000000E+00    0.0000000000000000E+00
             0.0000000000000000E+00    0.0000000000000000E+00    0.0000000000000000E+00
             0.0000000000000000E+00    0.0000000000000000E+00    0.0000000000000000E+00
             0.0000000000000000E+00    0.0000000000000000E+00    0.0000000000000000E+00
             0.0000000000000000E+00    0.0000000000000000E+00    0.0000000000000000E+00
             0.0000000000000000E+00    0.0000000000000000E+00    0.0000000000000000E+00
             0.0000000000000000E+00    0.0000000000000000E+00    0.0000000000000000E+00
             0.0000000000000000E+00    0.0000000000000000E+00    0.0000000000000000E+00
             0.0000000000000000E+00    0.0000000000000000E+00    0.0000000000000000E+00
             0.0000000000000000E+00    0.0000000000000000E+00    0.0000000000000000E+00
             0.0000000000000000E+00    0.0000000000000000E+00    0.0000000000000000E+00
             0.0000000000000000E+00    0.0000000000000000E+00    0.0000000000000000E+00
             0.0000000000000000E+00    0.0000000000000000E+00    0.0000000000000000E+00
             0.0000000000000000E+00    0.0000000000000000E+00    0.0000000000000000E+00
             0.0000000000000000E+00    0.0000000000000000E+00    0.0000000000000000E+00
             0.0000000000000000E+00    0.0000000000000000E+00    0.0000000000000000E+00
             0.0000000000000000E+00    0.0000000000000000E+00    0.0000000000000000E+00
             0.0000000000000000E+00    0.0000000000000000E+00    0.0000000000000000E+00
             0.0000000000000000E+00    0.0000000000000000E+00    0.0000000000000000E+00
             0.0000000000000000E+00    0.0000000000000000E+00    0.0000000000000000E+00
             0.0000000000000000E+00    0.0000000000000000E+00    0.0000000000000000E+00
             0.0000000000000000E+00    0.0000000000000000E+00    0.0000000000000000E+00
             0.0000000000000000E+00    0.0000000000000000E+00    0.0000000000000000E+00
             0.0000000000000000E+00    0.0000000000000000E+00    0.0000000000000000E+00
             0.0000000000000000E+00    0.0000000000000000E+00    0.0000000000000000E+00
             0.0000000000000000E+00    0.0000000000000000E+00    0.0000000000000000E+00
             0.0000000000000000E+00    0.0000000000000000E+00    0.0000000000000000E+00
             0.0000000000000000E+00    0.0000000000000000E+00    0.0000000000000000E+00
             0.0000000000000000E+00    0.0000000000000000E+00    0.0000000000000000E+00
             0.0000000000000000E+00    0.0000000000000000E+00    0.0000000000000000E+00
             0.0000000000000000E+00    0.0000000000000000E+00    0.0000000000000000E+00
             0.0000000000000000E+00    0.0000000000000000E+00    0.0000000000000000E+00
             0.0000000000000000E+00    0.0000000000000000E+00    0.0000000000000000E+00
             0.0000000000000000E+00    0.0000000000000000E+00    0.0000000000000000E+00
             0.0000000000000000E+00    0.0000000000000000E+00    0.0000000000000000E+00
             0.0000000000000000E+00    0.0000000000000000E+00    0.0000000000000000E+00
             0.0000000000000000E+00    0.0000000000000000E+00    0.0000000000000000E+00
             0.0000000000000000E+00    0.0000000000000000E+00    0.0000000000000000E+00
             0.0000000000000000E+00    0.0000000000000000E+00    0.0000000000000000E+00
             0.0000000000000000E+00    0.0000000000000000E+00    0.0000000000000000E+00
             0.0000000000000000E+00    0.0000000000000000E+00    0.0000000000000000E+00
             0.0000000000000000E+00    0.0000000000000000E+00    0.0000000000000000E+00
             0.0000000000000000E+00    0.0000000000000000E+00    0.0000000000000000E+00
             0.0000000000000000E+00    0.0000000000000000E+00    0.0000000000000000E+00
             0.0000000000000000E+00    0.0000000000000000E+00    0.0000000000000000E+00
             0.0000000000000000E+00    0.0000000000000000E+00    0.0000000000000000E+00
             0.0000000000000000E+00    0.0000000000000000E+00    0.0000000000000000E+00
             0.0000000000000000E+00    0.0000000000000000E+00    0.0000000000000000E+00
             0.0000000000000000E+00    0.0000000000000000E+00    0.0000000000000000E+00
             0.0000000000000000E+00    0.0000000000000000E+00    0.0000000000000000E+00
             0.0000000000000000E+00    0.0000000000000000E+00    0.0000000000000000E+00
             0.0000000000000000E+00    0.0000000000000000E+00    0.0000000000000000E+00
             0.0000000000000000E+00    0.0000000000000000E+00    0.0000000000000000E+00
             0.0000000000000000E+00    0.0000000000000000E+00    0.0000000000000000E+00
             0.0000000000000000E+00    0.0000000000000000E+00    0.0000000000000000E+00
             0.0000000000000000E+00    0.0000000000000000E+00    0.0000000000000000E+00
             0.0000000000000000E+00    0.0000000000000000E+00    0.0000000000000000E+00
             0.0000000000000000E+00    0.0000000000000000E+00    0.0000000000000000E+00
             0.0000000000000000E+00    0.0000000000000000E+00    0.0000000000000000E+00
             0.0000000000000000E+00    0.0000000000000000E+00    0.0000000000000000E+00
             0.0000000000000000E+00    0.0000000000000000E+00    0.0000000000000000E+00
             0.0000000000000000E+00    0.0000000000000000E+00    0.0000000000000000E+00
             0.0000000000000000E+00    0.0000000000000000E+00    0.0000000000000000E+00
             0.0000000000000000E+00    0.0000000000000000E+00    0.0000000000000000E+00
             0.0000000000000000E+00    0.0000000000000000E+00    0.0000000000000000E+00
             0.0000000000000000E+00    0.0000000000000000E+00    0.0000000000000000E+00
             0.0000000000000000E+00    0.0000000000000000E+00    0.0000000000000000E+00
             0.0000000000000000E+00    0.0000000000000000E+00    0.0000000000000000E+00
             0.0000000000000000E+00    0.0000000000000000E+00    0.0000000000000000E+00
             0.0000000000000000E+00    0.0000000000000000E+00    0.0000000000000000E+00
             0.0000000000000000E+00    0.0000000000000000E+00    0.0000000000000000E+00
             0.0000000000000000E+00    0.0000000000000000E+00    0.0000000000000000E+00
             0.0000000000000000E+00    0.0000000000000000E+00    0.0000000000000000E+00
             0.0000000000000000E+00    0.0000000000000000E+00    0.0000000000000000E+00
             0.0000000000000000E+00    0.0000000000000000E+00    0.0000000000000000E+00
             0.0000000000000000E+00    0.0000000000000000E+00    0.0000000000000000E+00
             0.0000000000000000E+00    0.0000000000000000E+00    0.0000000000000000E+00
             0.0000000000000000E+00    0.0000000000000000E+00    0.0000000000000000E+00
             0.0000000000000000E+00    0.0000000000000000E+00    0.0000000000000000E+00
             0.0000000000000000E+00    0.0000000000000000E+00    0.0000000000000000E+00
             0.0000000000000000E+00    0.0000000000000000E+00    0.0000000000000000E+00
             0.0000000000000000E+00    0.0000000000000000E+00    0.0000000000000000E+00
             0.0000000000000000E+00    0.0000000000000000E+00    0.0000000000000000E+00
             0.0000000000000000E+00    0.0000000000000000E+00    0.0000000000000000E+00
             0.0000000000000000E+00    0.0000000000000000E+00    0.0000000000000000E+00
             0.0000000000000000E+00    0.0000000000000000E+00    0.0000000000000000E+00
             0.0000000000000000E+00    0.0000000000000000E+00    0.0000000000000000E+00
             0.0000000000000000E+00    0.0000000000000000E+00    0.0000000000000000E+00