         0      -5729.782607896      -5729.683240100      -5729.731023975      -5729.715866054      -5729.772184664          1.316221464          1.316221464          1.218823630          1.218823630
         1      -5729.782607896      -5729.738849284      -5729.732830913      -5729.751864971      -5729.772184664          1.403208861          1.397537470          1.255598981          1.258932036
         2      -5729.782607896      -5729.765081664      -5729.733186192      -5729.761304302      -5729.772184664          1.341164754          1.406312756          1.260410645          1.232764390
         3      -5729.782607896      -5729.769609676      -5729.733516668      -5729.762680553      -5729.772184664          1.299191773          1.394411109          1.266305580          1.233714567
         4      -5729.782607896      -5729.770586292      -5729.733716152      -5729.763500363      -5729.772184664          1.318014197          1.378009342          1.273200279          1.242035428
         5      -5729.782607896      -5729.771456503      -5729.733830230      -5729.764111848      -5729.772184664          1.326700298          1.370808925          1.276680913          1.251725229
         6      -5729.782607896      -5729.772009890      -5729.733974369      -5729.764574998      -5729.772184664          1.333705652          1.361841442          1.281371421          1.257050806
         7      -5729.782607896      -5729.772501371      -5729.734029765      -5729.764972118      -5729.772184664          1.340208838          1.361763219          1.279703573          1.263372070
         8      -5729.782607896      -5729.774514526      -5729.735100307      -5729.766949992      -5729.772184664          1.534382802          1.420995525          1.286303324          1.440180814
         9      -5729.782607896      -5729.775471078      -5729.735143871      -5729.767328639      -5729.772184664          1.522132190          1.426221263          1.292876902          1.429678910
        10      -5729.782607896      -5729.775840032      -5729.735179884      -5729.767662825      -5729.772184664          1.510641104          1.436172668          1.305772583          1.416983176
        11      -5729.782607896      -5729.776142872      -5729.735200707      -5729.767828007      -5729.772184664          1.506499018          1.439382902          1.310771594          1.411244245
        12      -5729.782607896      -5729.776342804      -5729.735230404      -5729.768013041      -5729.772184664          1.502815071          1.445683158          1.319595468          1.404273807
        13      -5729.782607896      -5729.776439671      -5729.735256446      -5729.768228826      -5729.772184664          1.498489007          1.452371347          1.330206461          1.394976895
        14      -5729.782607896      -5729.776598942      -5729.735276464      -5729.768287594      -5729.772184664          1.497839736          1.454950215          1.333409843          1.393085658
        15      -5729.782607896      -5729.776806652      -5729.735119982      -5729.768664462      -5729.772184664          1.497798071          1.470687989          1.359491350          1.376446640
        16      -5729.782607896      -5729.776843987      -5729.735379124      -5729.768677000      -5729.772184664          1.497630247          1.474918772          1.363152308          1.376334572
        17      -5729.782607896      -5729.776809802      -5729.735354091      -5729.768650922      -5729.772184664          1.501203848          1.475826021          1.364100606          1.378305930
        18      -5729.782607896      -5729.776811117      -5729.735412003      -5729.768648537      -5729.772184664          1.502451769          1.478661902          1.366525614          1.379091683
        19      -5729.782607896      -5729.776806386      -5729.735419183      -5729.768645925      -5729.772184664          1.503451146          1.479666152          1.367519149          1.379644059
        20      -5729.782607896      -5729.776800927      -5729.735423607      -5729.768638302      -5729.772184664          1.504051573          1.480060954          1.367740642          1.380247317
        21      -5729.782607896      -5729.776489143      -5729.735292916      -5729.768349150      -5729.772184664          1.527942205          1.507119320          1.390083225          1.401357395
        22      -5729.782607895      -5729.776519370      -5729.735528168      -5729.768352742      -5729.772184664          1.527857119          1.504160731          1.387586568          1.401727084
        23      -5729.782607896      -5729.776496715      -5729.735527144      -5729.768321567      -5729.772184664          1.528696329          1.506955546          1.389910270          1.403723798
        24      -5729.782607896      -5729.776492450      -5729.735534373      -5729.768312201      -5729.772184664          1.529412021          1.506941501          1.389886715          1.404575541
        25      -5729.782607896      -5729.776478818      -5729.735538916      -5729.768295785      -5729.772184664          1.530194772          1.508542463          1.391258257          1.405687932
        26      -5729.782607896      -5729.776400912      -5729.735549299      -5729.768219494      -5729.772184664          1.532840522          1.513407055          1.395403722          1.410015563
        27      -5729.782607896      -5729.776411837      -5729.735551562      -5729.768216882      -5729.772184664          1.533760403          1.514289151          1.396177570          1.410853322
        28      -5729.782607896      -5729.776343014      -5729.735559174      -5729.768157680      -5729.772184664          1.536060802          1.518179537          1.399567150          1.414061077
        29      -5729.782607896      -5729.776348017      -5729.735561273      -5729.768151950      -5729.772184664          1.536877502          1.519067227          1.400343402          1.414852290
        30      -5729.782607896      -5729.776291424      -5729.735561830      -5729.768102579      -5729.772184664          1.538841681          1.521523835          1.402509156          1.417481605
        31      -5729.782607896      -5729.776289533      -5729.735568572      -5729.768096392      -5729.772184664          1.539500484          1.522932819          1.403737472          1.418151193
        32      -5729.782607896      -5729.776212039      -5729.735578454      -5729.768026311      -5729.772184664          1.542815976          1.527088544          1.407414970          1.422209715
        33      -5729.782607896      -5729.776200408      -5729.735580101      -5729.768015841      -5729.772184664          1.543268768          1.528101412          1.408314233          1.422803065
        34      -5729.782607896      -5729.776030325      -5729.735570570      -5729.767882846      -5729.772184664          1.549361770          1.535201716          1.414808197          1.430035914
        35      -5729.782607896      -5729.776046166      -5729.735594984      -5729.767884494      -5729.772184664          1.549340717          1.536757962          1.416179592          1.430245007
        36      -5729.782607895      -5729.776016636      -5729.735592298      -5729.767861056      -5729.772184664          1.550266401          1.537058385          1.416633245          1.431501192
        37      -5729.782607896      -5729.776006339      -5729.735598563      -5729.767852860      -5729.772184664          1.550672476          1.538346819          1.417806470          1.431974020
        38      -5729.782607896      -5729.775977522      -5729.735595747      -5729.767830324      -5729.772184664          1.551661413          1.538922171          1.418503632          1.433209637
        39      -5729.782607896      -5729.775969239      -5729.735602528      -5729.767823858      -5729.772184664          1.551941717          1.539882285          1.419385256          1.433565308
        40      -5729.782607896      -5729.775680321      -5729.735557759      -5729.767595351      -5729.772184664          1.561497310          1.550205678          1.430384905          1.445741223
        41      -5729.782607896      -5729.775673480      -5729.735624446      -5729.767590278      -5729.772184664          1.561685072          1.552423778          1.432379441          1.445995755
        42      -5729.782607896      -5729.775459666      -5729.735605208      -5729.767430221      -5729.772184664          1.567677334          1.559240369          1.441108627          1.453752598
        43      -5729.782607896      -5729.775453612      -5729.735636773      -5729.767425374      -5729.772184664          1.567882409          1.560404517          1.442198959          1.454038701
        44      -5729.782607896      -5729.775440490      -5729.735638369      -5729.767415371      -5729.772184664          1.568193090          1.560356190          1.442352376          1.454481220
        45      -5729.782607896      -5729.775179264      -5729.735646489      -5729.767214232      -5729.772184664          1.574088819          1.567085715          1.451856450          1.462720165
        46      -5729.782607895      -5729.775181218      -5729.735651048      -5729.767212708      -5729.772184664          1.574598773          1.567787708          1.452618544          1.463203853
        47      -5729.782607895      -5729.775153401      -5729.735652075      -5729.767189884      -5729.772184664          1.575269638          1.569382769          1.454417053          1.464107501
        48      -5729.782607896      -5729.775135516      -5729.735653381      -5729.767174839      -5729.772184664          1.575729410          1.569659081          1.454947153          1.464731685
        49      -5729.782607895      -5729.775087532      -5729.735652531      -5729.767134586      -5729.772184664          1.576552960          1.570049324          1.456025290          1.466124294
        50      -5729.782607896      -5729.775075842      -5729.735655821      -5729.767124987      -5729.772184664          1.576916228          1.570563045          1.456667797          1.466534774
        51      -5729.782607896      -5729.775065881      -5729.735657156      -5729.767116478      -5729.772184664          1.577142009          1.571222469          1.457383725          1.466855391
        52      -5729.782607895      -5729.774899267      -5729.735633567      -5729.766972955      -5729.772184664          1.580641090          1.573993436          1.462407442          1.472113410
        53      -5729.782607896      -5729.774894041      -5729.735664948      -5729.766968219      -5729.772184664          1.580739506          1.575462803          1.463724421          1.472266162
        54      -5729.782607896      -5729.774831005      -5729.735664351      -5729.766912153      -5729.772184664          1.581801523          1.576648453          1.465775988          1.473977405
        55      -5729.782607895      -5729.774826708      -5729.735667482      -5729.766907876      -5729.772184664          1.581912679          1.577256182          1.466366990          1.474194425
        56      -5729.782607896      -5729.774815594      -5729.735668098      -5729.766897640      -5729.772184664          1.582159833          1.577129754          1.466452745          1.474573224
        57      -5729.782607896      -5729.774803979      -5729.735668561      -5729.766886865      -5729.772184664          1.582371639          1.577718634          1.467138863          1.474935666
        58      -5729.782607896      -5729.774792938      -5729.735669100      -5729.766876690      -5729.772184664          1.582575360          1.577609393          1.467242914          1.475272792
        59      -5729.782607896      -5729.774787477      -5729.735669917      -5729.766871615      -5729.772184664          1.582670497          1.577896326          1.467574888          1.475437214
        60      -5729.782607896      -5729.774879394      -5729.735665635      -5729.766956608      -5729.772184664          1.581059899          1.575901361          1.464318738          1.472677847
        61      -5729.782607896      -5729.774604992      -5729.735665627      -5729.766707053      -5729.772184664          1.586056720          1.582594514          1.474416421          1.480928755
        62      -5729.782607896      -5729.774605438      -5729.735677340      -5729.766705945      -5729.772184664          1.586220986          1.581907977          1.473974375          1.481113827
        63      -5729.782607896      -5729.774592419      -5729.735677646      -5729.766693589      -5729.772184664          1.586408130          1.582588340          1.474776003          1.481431979
        64      -5729.782607896      -5729.774584381      -5729.735678711      -5729.766685790      -5729.772184664          1.586522130          1.582556053          1.474901587          1.481646891
        65      -5729.782607896      -5729.774525426      -5729.735679592      -5729.766628417      -5729.772184664          1.587328907          1.583957559          1.477088784          1.483266242
        66      -5729.782607896      -5729.774521858      -5729.735681502      -5729.766623864      -5729.772184664          1.587491506          1.583695616          1.477002461          1.483497827
        67      -5729.782607896      -5729.774511098      -5729.735682145      -5729.766613075      -5729.772184664          1.587649907          1.584014980          1.477471393          1.483811107
        68      -5729.782607896      -5729.774479988      -5729.735683067      -5729.766582107      -5729.772184664          1.588027888          1.584348488          1.478332163          1.484658169
        69      -5729.782607895      -5729.774473880      -5729.735683810      -5729.766575447      -5729.772184664          1.588181272          1.584719768          1.478770558          1.484901358
        70      -5729.782607896      -5729.774459455      -5729.735684085      -5729.766560789      -5729.772184664          1.588371924          1.584733122          1.479067018          1.485314601
        71      -5729.782607896      -5729.774439223      -5729.735685301      -5729.766539777      -5729.772184664          1.588676245          1.585370591          1.479983632          1.485927143
        72      -5729.782607895      -5729.774431272      -5729.735685800      -5729.766531597      -5729.772184664          1.588753370          1.585284101          1.480080609          1.486142173
        73      -5729.782607896      -5729.774419295      -5729.735686090      -5729.766519199      -5729.772184664          1.588925847          1.585736624          1.480687677          1.486499186
        74      -5729.782607896      -5729.774410792      -5729.735686605      -5729.766510436      -5729.772184664          1.589031359          1.585583201          1.480736862          1.486741332
        75      -5729.782607896      -5729.774400925      -5729.735686942      -5729.766500125      -5729.772184664          1.589167117          1.586049820          1.481313742          1.487034104
        76      -5729.782607896      -5729.774393500      -5729.735687592      -5729.766492436      -5729.772184664          1.589264075          1.585903812          1.481347143          1.487248646
        77      -5729.782607896      -5729.774382397      -5729.735687885      -5729.766480812      -5729.772184664          1.589409523          1.586349520          1.481933505          1.487573931
        78      -5729.782607895      -5729.774377625      -5729.735688574      -5729.766475844      -5729.772184664          1.589471911          1.586260893          1.481959695          1.487712359
        79      -5729.782607896      -5729.774425088      -5729.735685992      -5729.766525568      -5729.772184664          1.588857158          1.585380793          1.480279014          1.486327998
        80      -5729.782607896      -5729.774413060      -5729.735686143      -5729.766513090      -5729.772184664          1.589019822          1.585890188          1.480933303          1.486680559
        81      -5729.782607896      -5729.774405628      -5729.735686915      -5729.766505397      -5729.772184664          1.589123556          1.585703845          1.480932932          1.486898905
        82      -5729.782607896      -5729.774395882      -5729.735687297      -5729.766495223      -5729.772184664          1.589251305          1.586125847          1.481471616          1.487183948
        83      -5729.782607896      -5729.774391220      -5729.735687888      -5729.766490380      -5729.772184664          1.589313858          1.586058396          1.481511936          1.487320054
        84      -5729.782607895      -5729.774530049      -5729.735680649      -5729.766634997      -5729.772184664          1.587520133          1.583636706          1.476745009          1.483273643
        85      -5729.782607896      -5729.774519197      -5729.735680957      -5729.766624027      -5729.772184664          1.587683260          1.584144162          1.477364244          1.483597771
        86      -5729.782607896      -5729.774510854      -5729.735681624      -5729.766615639      -5729.772184664          1.587806770          1.583990754          1.477399633          1.483843368
        87      -5729.782607895      -5729.774500667      -5729.735682025      -5729.766605291      -5729.772184664          1.587954156          1.584446991          1.477966292          1.484143973
        88      -5729.782607896      -5729.774495742      -5729.735682656      -5729.766600310      -5729.772184664          1.588025590          1.584385705          1.478011764          1.484288690
        89      -5729.782607896      -5729.774563282      -5729.735679342      -5729.766668903      -5729.772184664          1.587067198          1.583122480          1.475681810          1.482297830
        90      -5729.782607896      -5729.774526068      -5729.735678055      -5729.766631541      -5729.772184664          1.587624235          1.584274171          1.477314039          1.483413456
        91      -5729.782607896      -5729.774520376      -5729.735681347      -5729.766625896      -5729.772184664          1.587713153          1.583916977          1.477133321          1.483580798
        92      -5729.782607896      -5729.774592029      -5729.735659162      -5729.766697944      -5729.772184664          1.586672228          1.581670658          1.473942156          1.481498468
        93      -5729.782607896      -5729.774586867      -5729.735678084      -5729.766692894      -5729.772184664          1.586751967          1.582859778          1.475010655          1.481643421
        94      -5729.782607896      -5729.774566519      -5729.735677663      -5729.766672942      -5729.772184664          1.587075151          1.582871237          1.475394829          1.482214365
        95      -5729.782607896      -5729.774560702      -5729.735679402      -5729.766667096      -5729.772184664          1.587159188          1.583322075          1.475870314          1.482388812
        96      -5729.782607896      -5729.774498310      -5729.735673853      -5729.766604479      -5729.772184664          1.588102790          1.583788973          1.477412364          1.484257815
        97      -5729.782607895      -5729.774493492      -5729.735682577      -5729.766599582      -5729.772184664          1.588169396          1.584578875          1.478149145          1.484394860
        98      -5729.782607896      -5729.774482473      -5729.735683039      -5729.766588424      -5729.772184664          1.588328026          1.584802020          1.478544355          1.484710062
        99      -5729.782607896      -5729.774458208      -5729.735682716      -5729.766563671      -5729.772184664          1.588668453          1.584879552          1.479080220          1.485419066
       100      -5729.782607895      -5729.774452334      -5729.735684438      -5729.766557589      -5729.772184664          1.588748518          1.585350854          1.479578294          1.485593613
       101      -5729.782607896      -5729.774437235      -5729.735684620      -5729.766542070      -5729.772184664          1.588958157          1.585346121          1.479872869          1.486036035
       102      -5729.782607896      -5729.774431875      -5729.735685524      -5729.766536495      -5729.772184664          1.589028957          1.585658603          1.480232804          1.486193428
       103      -5729.782607896      -5729.775832583      -5729.732989401      -5729.767901018      -5729.772184664          1.574127227          1.575077042          1.446330770          1.447968430
       104      -5729.782607896      -5729.775822207      -5729.735608583      -5729.767895175      -5729.772184664          1.574426734          1.564399679          1.437464554          1.448241720
       105      -5729.782607896      -5729.775790231      -5729.735611872      -5729.767870196      -5729.772184664          1.575267828          1.563248850          1.436479518          1.449122763
       106      -5729.782607896      -5729.775767603      -5729.735615042      -5729.767850849      -5729.772184664          1.575829574          1.565624916          1.438547924          1.449925753
       107      -5729.782607896      -5729.774442327      -5729.735684937      -5729.766547183      -5729.772184664          1.588872452          1.585510379          1.479919505          1.485879972
       108      -5729.782607896      -5729.774434073      -5729.735685370      -5729.766538677      -5729.772184664          1.588987279          1.585503338          1.480077330          1.486122033
       109      -5729.782607896      -5729.774410550      -5729.735685311      -5729.766514257      -5729.772184664          1.589303168          1.586225545          1.481130295          1.486812233
       110      -5729.782607896      -5729.774404659      -5729.735686753      -5729.766508162      -5729.772184664          1.589382789          1.585992996          1.481060956          1.486983757
       111      -5729.782607896      -5729.774392474      -5729.735687149      -5729.766495393      -5729.772184664          1.589542048          1.586400358          1.481635873          1.487339966
       112      -5729.782607896      -5729.774383659      -5729.735687585      -5729.766486190      -5729.772184664          1.589657720          1.586297210          1.481731178          1.487597216
       113      -5729.782607896      -5729.774374888      -5729.735688031      -5729.766476942      -5729.772184664          1.589769036          1.586686984          1.482224522          1.487853655
       114      -5729.782607896      -5729.774370344      -5729.735688526      -5729.766472179      -5729.772184664          1.589827885          1.586637370          1.482277224          1.487985641
       115      -5729.782607896      -5729.774425674      -5729.735685786      -5729.766530441      -5729.772184664          1.589122835          1.585702410          1.480394270          1.486373872
       116      -5729.782607896      -5729.774342907      -5729.735683058      -5729.766444418      -5729.772184664          1.590272803          1.587731842          1.483687476          1.488804223
       117      -5729.782607896      -5729.774338282      -5729.735689946      -5729.766439481      -5729.772184664          1.590329420          1.587183676          1.483344933          1.488942707
       118      -5729.782607895      -5729.774315847      -5729.735690602      -5729.766415494      -5729.772184664          1.590567725          1.587751549          1.484265922          1.489587597
       119      -5729.782607896      -5729.774290220      -5729.735691897      -5729.766388159      -5729.772184664          1.590859136          1.587861480          1.484886646          1.490325753
       120      -5729.782607896      -5729.774283110      -5729.735692460      -5729.766380437      -5729.772184664          1.590958560          1.588214578          1.485322142          1.490536656
       121      -5729.782607896      -5729.774271471      -5729.735692573      -5729.766367928      -5729.772184664          1.591114966          1.588094878          1.485471015          1.490879040
       122      -5729.782607896      -5729.774267304      -5729.735693435      -5729.766363382      -5729.772184664          1.591160005          1.588345878          1.485761209          1.490998544
       123      -5729.782607895      -5729.774326753      -5729.735690421      -5729.766427824      -5729.772184664          1.590488960          1.587515428          1.483835886          1.489285877
       124      -5729.782607896      -5729.774303519      -5729.735690339      -5729.766403120      -5729.772184664          1.590759526          1.587557188          1.484349038          1.489947255
       125      -5729.782607896      -5729.774298269      -5729.735691766      -5729.766397331      -5729.772184664          1.590839310          1.587975739          1.484799141          1.490115850
       126      -5729.782607896      -5729.774280934      -5729.735691644      -5729.766378705      -5729.772184664          1.591044230          1.587934169          1.485129343          1.490616071
       127      -5729.782607896      -5729.774276229      -5729.735692929      -5729.766373570      -5729.772184664          1.591095845          1.588276428          1.485503898          1.490752349
       128      -5729.782607896      -5729.773745148      -5729.735372007      -5729.765794111      -5729.772184664          1.597580258          1.592056945          1.499918221          1.506210107
       129      -5729.782607896      -5729.773743925      -5729.735714842      -5729.765791885      -5729.772184664          1.597546239          1.596426194          1.503443099          1.506244091
       130      -5729.782607896      -5729.773732900      -5729.735715355      -5729.765777032      -5729.772184664          1.597561927          1.596242609          1.503524992          1.506506091
       131      -5729.782607896      -5729.773722639      -5729.735715804      -5729.765762673      -5729.772184664          1.597542026          1.596495314          1.503929029          1.506777684
       132      -5729.782607896      -5729.773719633      -5729.735715978      -5729.765759001      -5729.772184664          1.597543247          1.596452205          1.503959219          1.506855336
       133      -5729.782607896      -5729.773677884      -5729.735717551      -5729.765700999      -5729.772184664          1.597519374          1.596672496          1.504969122          1.507868542
       134      -5729.782607896      -5729.773674543      -5729.735717932      -5729.765698138      -5729.772184664          1.597502934          1.596648914          1.505039419          1.507963733
       135      -5729.782607896      -5729.773370468      -5729.735095756      -5729.765301397      -5729.772184664          1.596892913          1.606369343          1.518587185          1.514364819
       136      -5729.782607896      -5729.773391008      -5729.735721570      -5729.765319997      -5729.772184664          1.596965040          1.599592255          1.513635118          1.514368159
       137      -5729.782607896      -5729.773390913      -5729.735726584      -5729.765318027      -5729.772184664          1.596982391          1.598918829          1.513184948          1.514370943
       138      -5729.782607896      -5729.773388290      -5729.735728576      -5729.765314797      -5729.772184664          1.596973917          1.598298850          1.512768938          1.514389670
       139      -5729.782607896      -5729.773394409      -5729.735727107      -5729.765322632      -5729.772184664          1.597021990          1.598575495          1.512848354          1.514340886
       140      -5729.782607896      -5729.773391524      -5729.735728443      -5729.765319002      -5729.772184664          1.597006618          1.598446272          1.512807673          1.514356824
       141      -5729.782607896      -5729.773388570      -5729.735728731      -5729.765315286      -5729.772184664          1.596984673          1.598171467          1.512660387          1.514380525
       142      -5729.782607896      -5729.773385007      -5729.735728895      -5729.765310697      -5729.772184664          1.596952403          1.598076890          1.512664999          1.514413332
       143      -5729.782607896      -5729.773382310      -5729.735729000      -5729.765307192      -5729.772184664          1.596926330          1.598000176          1.512666665          1.514439968
       144      -5729.782607896      -5729.773381221      -5729.735729040      -5729.765305767      -5729.772184664          1.596915398          1.597984022          1.512679118          1.514450922
