 # Version information for this restart file 
 # current date 2024-01-10 22:43:23.728
 # current working dir /gpfs/home/cahart/transport/melamine/au_from-h2/ci-neb/ts2/dft_leads-sz_tip-dzvp_surf-dzvp_kpoints-2-4-20_replicas-5
 # Program compiled at                              Thu 21 Sep 19:20:17 BST 2023
 # Program compiled on                                           hx1-c12-login-1
 # Program compiled for                                                    local
 # Source code revision number                                       git:5518aa6
 &GLOBAL
   EXTENDED_FFT_LENGTHS  T
   PRINT_LEVEL  MEDIUM
   PROJECT_NAME 2_dft_wfn-r-0
   OUTPUT_FILE_NAME 2_dft_wfn-r-0.out
   RUN_TYPE  BAND
 &END GLOBAL
 &MOTION
   &CONSTRAINT
     &FIXED_ATOMS
       LIST  1..93 104..183
     &END FIXED_ATOMS
   &END CONSTRAINT
   &BAND
     NPROC_REP  64
     BAND_TYPE  CI-NEB
     NUMBER_OF_REPLICA  5
     K_SPRING     5.0000000000000003E-02
     &CI_NEB
       NSTEPS_IT  5
     &END CI_NEB
     &OPTIMIZE_BAND
       OPT_TYPE  DIIS
       &DIIS
         MAX_STEPS  1000
       &END DIIS
     &END OPTIMIZE_BAND
     &REPLICA
       &COORD
             0.0000000000000000E+00    0.0000000000000000E+00    0.0000000000000000E+00
             0.0000000000000000E+00    2.9550000000000076E+00    0.0000000000000000E+00
             0.0000000000000000E+00    5.9110000000000102E+00    0.0000000000000000E+00
             2.9560000000000093E+00    0.0000000000000000E+00    0.0000000000000000E+00
             2.9560000000000093E+00    2.9550000000000076E+00    0.0000000000000000E+00
             2.9560000000000093E+00    5.9110000000000102E+00    0.0000000000000000E+00
             5.9120000000000186E+00    0.0000000000000000E+00    0.0000000000000000E+00
             5.9120000000000186E+00    2.9550000000000076E+00    0.0000000000000000E+00
             5.9120000000000186E+00    5.9110000000000102E+00    0.0000000000000000E+00
             8.6700000000000177E+00    0.0000000000000000E+00    0.0000000000000000E+00
             8.6700000000000177E+00    2.9550000000000076E+00    0.0000000000000000E+00
             8.6700000000000177E+00    5.9110000000000102E+00    0.0000000000000000E+00
             1.1626000000000026E+01    0.0000000000000000E+00    0.0000000000000000E+00
             1.1626000000000026E+01    2.9550000000000076E+00    0.0000000000000000E+00
             1.1626000000000026E+01    5.9110000000000102E+00    0.0000000000000000E+00
             1.4780000000000046E+00    1.4780000000000046E+00    2.0900000000000061E+00
             1.4780000000000046E+00    4.4330000000000114E+00    2.0900000000000061E+00
             1.4780000000000046E+00    7.3890000000000189E+00    2.0900000000000061E+00
             4.4340000000000108E+00    1.4780000000000046E+00    2.0900000000000061E+00
             4.4340000000000108E+00    4.4330000000000114E+00    2.0900000000000061E+00
             4.4340000000000108E+00    7.3890000000000189E+00    2.0900000000000061E+00
             7.1920000000000153E+00    1.4780000000000046E+00    2.0900000000000061E+00
             7.1920000000000153E+00    4.4330000000000114E+00    2.0900000000000061E+00
             7.1920000000000153E+00    7.3890000000000189E+00    2.0900000000000061E+00
             1.0148000000000026E+01    1.4780000000000046E+00    2.0900000000000061E+00
             1.0148000000000026E+01    4.4330000000000114E+00    2.0900000000000061E+00
             1.0148000000000026E+01    7.3890000000000189E+00    2.0900000000000061E+00
             1.3104000000000031E+01    1.4780000000000046E+00    2.0900000000000061E+00
             1.3104000000000031E+01    4.4330000000000114E+00    2.0900000000000061E+00
             1.3104000000000031E+01    7.3890000000000189E+00    2.0900000000000061E+00
             0.0000000000000000E+00    0.0000000000000000E+00    4.1800000000000122E+00
             0.0000000000000000E+00    2.9550000000000076E+00    4.1800000000000122E+00
             0.0000000000000000E+00    5.9110000000000102E+00    4.1800000000000122E+00
             2.9560000000000093E+00    0.0000000000000000E+00    4.1800000000000122E+00
             2.9560000000000093E+00    2.9550000000000076E+00    4.1800000000000122E+00
             2.9560000000000093E+00    5.9110000000000102E+00    4.1800000000000122E+00
             5.9120000000000186E+00    0.0000000000000000E+00    4.1800000000000122E+00
             5.9120000000000186E+00    2.9550000000000076E+00    4.1800000000000122E+00
             5.9120000000000186E+00    5.9110000000000102E+00    4.1800000000000122E+00
             8.6700000000000177E+00    0.0000000000000000E+00    4.1800000000000122E+00
             8.6700000000000177E+00    2.9550000000000076E+00    4.1800000000000122E+00
             8.6700000000000177E+00    5.9110000000000102E+00    4.1800000000000122E+00
             1.1626000000000026E+01    0.0000000000000000E+00    4.1800000000000122E+00
             1.1626000000000026E+01    2.9550000000000076E+00    4.1800000000000122E+00
             1.1626000000000026E+01    5.9110000000000102E+00    4.1800000000000122E+00
             1.4780000000000046E+00    1.4780000000000046E+00    6.2700000000000156E+00
             1.4780000000000046E+00    4.4330000000000114E+00    6.2700000000000156E+00
             1.4780000000000046E+00    7.3890000000000189E+00    6.2700000000000156E+00
             4.4340000000000108E+00    1.4780000000000046E+00    6.2700000000000156E+00
             4.4340000000000108E+00    4.4330000000000114E+00    6.2700000000000156E+00
             4.4340000000000108E+00    7.3890000000000189E+00    6.2700000000000156E+00
             7.1920000000000153E+00    1.4780000000000046E+00    6.2700000000000156E+00
             7.1920000000000153E+00    4.4330000000000114E+00    6.2700000000000156E+00
             7.1920000000000153E+00    7.3890000000000189E+00    6.2700000000000156E+00
             1.0148000000000026E+01    1.4780000000000046E+00    6.2700000000000156E+00
             1.0148000000000026E+01    4.4330000000000114E+00    6.2700000000000156E+00
             1.0148000000000026E+01    7.3890000000000189E+00    6.2700000000000156E+00
             1.3104000000000031E+01    1.4780000000000046E+00    6.2700000000000156E+00
             1.3104000000000031E+01    4.4330000000000114E+00    6.2700000000000156E+00
             1.3104000000000031E+01    7.3890000000000189E+00    6.2700000000000156E+00
             0.0000000000000000E+00    0.0000000000000000E+00    8.3600000000000243E+00
             0.0000000000000000E+00    2.9550000000000076E+00    8.3600000000000243E+00
             0.0000000000000000E+00    5.9110000000000102E+00    8.3600000000000243E+00
             2.9560000000000093E+00    0.0000000000000000E+00    8.3600000000000243E+00
             2.9560000000000093E+00    2.9550000000000076E+00    8.3600000000000243E+00
             2.9560000000000093E+00    5.9110000000000102E+00    8.3600000000000243E+00
             5.9120000000000186E+00    0.0000000000000000E+00    8.3600000000000243E+00
             5.9120000000000186E+00    2.9550000000000076E+00    8.3600000000000243E+00
             5.9120000000000186E+00    5.9110000000000102E+00    8.3600000000000243E+00
             8.6700000000000177E+00    0.0000000000000000E+00    8.3600000000000243E+00
             8.6700000000000177E+00    2.9550000000000076E+00    8.3600000000000243E+00
             8.6700000000000177E+00    5.9110000000000102E+00    8.3600000000000243E+00
             1.1626000000000026E+01    0.0000000000000000E+00    8.3600000000000243E+00
             1.1626000000000026E+01    2.9550000000000076E+00    8.3600000000000243E+00
             1.1626000000000026E+01    5.9110000000000102E+00    8.3600000000000243E+00
             1.4780000000000046E+00    1.4780000000000046E+00    1.0450000000000021E+01
             1.4780000000000046E+00    4.4330000000000114E+00    1.0450000000000021E+01
             1.4780000000000046E+00    7.3890000000000189E+00    1.0450000000000021E+01
             4.4340000000000108E+00    1.4780000000000046E+00    1.0450000000000021E+01
             4.4340000000000108E+00    4.4330000000000114E+00    1.0450000000000021E+01
             4.4340000000000108E+00    7.3890000000000189E+00    1.0450000000000021E+01
             7.1920000000000153E+00    1.4780000000000046E+00    1.0450000000000021E+01
             7.1920000000000153E+00    4.4330000000000114E+00    1.0450000000000021E+01
             7.1920000000000153E+00    7.3890000000000189E+00    1.0450000000000021E+01
             1.0148000000000026E+01    1.4780000000000046E+00    1.0450000000000021E+01
             1.0148000000000026E+01    4.4330000000000114E+00    1.0450000000000021E+01
             1.0148000000000026E+01    7.3890000000000189E+00    1.0450000000000021E+01
             1.3104000000000031E+01    1.4780000000000046E+00    1.0450000000000021E+01
             1.3104000000000031E+01    4.4330000000000114E+00    1.0450000000000021E+01
             1.3104000000000031E+01    7.3890000000000189E+00    1.0450000000000021E+01
             4.8554000000000093E+00    5.9119000000000117E+00    1.2031800000000022E+01
             9.5280000000000182E+00    5.9137000000000164E+00    1.2034000000000027E+01
             7.1920000000000153E+00    5.9340000000000144E+00    1.2040000000000024E+01
             1.0318905404800022E+01    5.9087793826000157E+00    1.2685747073200032E+01
             4.0673339928000090E+00    5.9059993220000147E+00    1.2687741368900030E+01
             8.3738707293000232E+00    5.9179777707000154E+00    1.2731457252200022E+01
             5.9989554222000141E+00    5.9152564166000161E+00    1.2792642411200029E+01
             8.3227525762000223E+00    5.9051536095000152E+00    1.4080497642100040E+01
             5.9344285049000156E+00    5.8981604865000161E+00    1.4101749969600032E+01
             9.1743570613000252E+00    5.8876302392000142E+00    1.4641017735300036E+01
             7.1039653577000150E+00    5.8899410689000167E+00    1.4828703219100035E+01
             7.2416021047000187E+00    5.8657702092000132E+00    1.6106466757300055E+01
             6.3118250323000167E+00    5.8547577071000134E+00    1.6539601306200041E+01
             7.3120000000000154E+00    5.9340000000000144E+00    2.1043000000000042E+01
             5.8130000000000130E+00    7.4340000000000188E+00    2.2992000000000065E+01
             8.8130000000000202E+00    4.4340000000000108E+00    2.2992000000000065E+01
             5.8130000000000130E+00    4.4330000000000114E+00    2.2992000000000065E+01
             8.8130000000000202E+00    7.4340000000000188E+00    2.2992000000000065E+01
             1.4780000000000046E+00    1.4780000000000046E+00    2.5082000000000054E+01
             1.4780000000000046E+00    4.4330000000000114E+00    2.5082000000000054E+01
             1.4780000000000046E+00    7.3890000000000189E+00    2.5082000000000054E+01
             4.4340000000000108E+00    1.4780000000000046E+00    2.5082000000000054E+01
             4.4340000000000108E+00    4.4330000000000114E+00    2.5082000000000054E+01
             4.4340000000000108E+00    7.3890000000000189E+00    2.5082000000000054E+01
             7.1920000000000153E+00    1.4780000000000046E+00    2.5082000000000054E+01
             7.1920000000000153E+00    4.4330000000000114E+00    2.5082000000000054E+01
             7.1920000000000153E+00    7.3890000000000189E+00    2.5082000000000054E+01
             1.0148000000000026E+01    1.4780000000000046E+00    2.5082000000000054E+01
             1.0148000000000026E+01    4.4330000000000114E+00    2.5082000000000054E+01
             1.0148000000000026E+01    7.3890000000000189E+00    2.5082000000000054E+01
             1.3104000000000031E+01    1.4780000000000046E+00    2.5082000000000054E+01
             1.3104000000000031E+01    4.4330000000000114E+00    2.5082000000000054E+01
             1.3104000000000031E+01    7.3890000000000189E+00    2.5082000000000054E+01
             0.0000000000000000E+00    0.0000000000000000E+00    2.7172000000000065E+01
             0.0000000000000000E+00    2.9550000000000076E+00    2.7172000000000065E+01
             0.0000000000000000E+00    5.9110000000000102E+00    2.7172000000000065E+01
             2.9560000000000093E+00    0.0000000000000000E+00    2.7172000000000065E+01
             2.9560000000000093E+00    2.9550000000000076E+00    2.7172000000000065E+01
             2.9560000000000093E+00    5.9110000000000102E+00    2.7172000000000065E+01
             5.9120000000000186E+00    0.0000000000000000E+00    2.7172000000000065E+01
             5.9120000000000186E+00    2.9550000000000076E+00    2.7172000000000065E+01
             5.9120000000000186E+00    5.9110000000000102E+00    2.7172000000000065E+01
             8.6700000000000177E+00    0.0000000000000000E+00    2.7172000000000065E+01
             8.6700000000000177E+00    2.9550000000000076E+00    2.7172000000000065E+01
             8.6700000000000177E+00    5.9110000000000102E+00    2.7172000000000065E+01
             1.1626000000000026E+01    0.0000000000000000E+00    2.7172000000000065E+01
             1.1626000000000026E+01    2.9550000000000076E+00    2.7172000000000065E+01
             1.1626000000000026E+01    5.9110000000000102E+00    2.7172000000000065E+01
             1.4780000000000046E+00    1.4780000000000046E+00    2.9262000000000082E+01
             1.4780000000000046E+00    4.4330000000000114E+00    2.9262000000000082E+01
             1.4780000000000046E+00    7.3890000000000189E+00    2.9262000000000082E+01
             4.4340000000000108E+00    1.4780000000000046E+00    2.9262000000000082E+01
             4.4340000000000108E+00    4.4330000000000114E+00    2.9262000000000082E+01
             4.4340000000000108E+00    7.3890000000000189E+00    2.9262000000000082E+01
             7.1920000000000153E+00    1.4780000000000046E+00    2.9262000000000082E+01
             7.1920000000000153E+00    4.4330000000000114E+00    2.9262000000000082E+01
             7.1920000000000153E+00    7.3890000000000189E+00    2.9262000000000082E+01
             1.0148000000000026E+01    1.4780000000000046E+00    2.9262000000000082E+01
             1.0148000000000026E+01    4.4330000000000114E+00    2.9262000000000082E+01
             1.0148000000000026E+01    7.3890000000000189E+00    2.9262000000000082E+01
             1.3104000000000031E+01    1.4780000000000046E+00    2.9262000000000082E+01
             1.3104000000000031E+01    4.4330000000000114E+00    2.9262000000000082E+01
             1.3104000000000031E+01    7.3890000000000189E+00    2.9262000000000082E+01
             0.0000000000000000E+00    0.0000000000000000E+00    3.1352000000000046E+01
             0.0000000000000000E+00    2.9550000000000076E+00    3.1352000000000046E+01
             0.0000000000000000E+00    5.9110000000000102E+00    3.1352000000000046E+01
             2.9560000000000093E+00    0.0000000000000000E+00    3.1352000000000046E+01
             2.9560000000000093E+00    2.9550000000000076E+00    3.1352000000000046E+01
             2.9560000000000093E+00    5.9110000000000102E+00    3.1352000000000046E+01
             5.9120000000000186E+00    0.0000000000000000E+00    3.1352000000000046E+01
             5.9120000000000186E+00    2.9550000000000076E+00    3.1352000000000046E+01
             5.9120000000000186E+00    5.9110000000000102E+00    3.1352000000000046E+01
             8.6700000000000177E+00    0.0000000000000000E+00    3.1352000000000046E+01
             8.6700000000000177E+00    2.9550000000000076E+00    3.1352000000000046E+01
             8.6700000000000177E+00    5.9110000000000102E+00    3.1352000000000046E+01
             1.1626000000000026E+01    0.0000000000000000E+00    3.1352000000000046E+01
             1.1626000000000026E+01    2.9550000000000076E+00    3.1352000000000046E+01
             1.1626000000000026E+01    5.9110000000000102E+00    3.1352000000000046E+01
             1.4780000000000046E+00    1.4780000000000046E+00    3.3442000000000071E+01
             1.4780000000000046E+00    4.4330000000000114E+00    3.3442000000000071E+01
             1.4780000000000046E+00    7.3890000000000189E+00    3.3442000000000071E+01
             4.4340000000000108E+00    1.4780000000000046E+00    3.3442000000000071E+01
             4.4340000000000108E+00    4.4330000000000114E+00    3.3442000000000071E+01
             4.4340000000000108E+00    7.3890000000000189E+00    3.3442000000000071E+01
             7.1920000000000153E+00    1.4780000000000046E+00    3.3442000000000071E+01
             7.1920000000000153E+00    4.4330000000000114E+00    3.3442000000000071E+01
             7.1920000000000153E+00    7.3890000000000189E+00    3.3442000000000071E+01
             1.0148000000000026E+01    1.4780000000000046E+00    3.3442000000000071E+01
             1.0148000000000026E+01    4.4330000000000114E+00    3.3442000000000071E+01
             1.0148000000000026E+01    7.3890000000000189E+00    3.3442000000000071E+01
             1.3104000000000031E+01    1.4780000000000046E+00    3.3442000000000071E+01
             1.3104000000000031E+01    4.4330000000000114E+00    3.3442000000000071E+01
             1.3104000000000031E+01    7.3890000000000189E+00    3.3442000000000071E+01
       &END COORD
       &VELOCITY
             0.0000000000000000E+00    0.0000000000000000E+00    0.0000000000000000E+00
             0.0000000000000000E+00    0.0000000000000000E+00    0.0000000000000000E+00
             0.0000000000000000E+00    0.0000000000000000E+00    0.0000000000000000E+00
             0.0000000000000000E+00    0.0000000000000000E+00    0.0000000000000000E+00
             0.0000000000000000E+00    0.0000000000000000E+00    0.0000000000000000E+00
             0.0000000000000000E+00    0.0000000000000000E+00    0.0000000000000000E+00
             0.0000000000000000E+00    0.0000000000000000E+00    0.0000000000000000E+00
             0.0000000000000000E+00    0.0000000000000000E+00    0.0000000000000000E+00
             0.0000000000000000E+00    0.0000000000000000E+00    0.0000000000000000E+00
             0.0000000000000000E+00    0.0000000000000000E+00    0.0000000000000000E+00
             0.0000000000000000E+00    0.0000000000000000E+00    0.0000000000000000E+00
             0.0000000000000000E+00    0.0000000000000000E+00    0.0000000000000000E+00
             0.0000000000000000E+00    0.0000000000000000E+00    0.0000000000000000E+00
             0.0000000000000000E+00    0.0000000000000000E+00    0.0000000000000000E+00
             0.0000000000000000E+00    0.0000000000000000E+00    0.0000000000000000E+00
             0.0000000000000000E+00    0.0000000000000000E+00    0.0000000000000000E+00
             0.0000000000000000E+00    0.0000000000000000E+00    0.0000000000000000E+00
             0.0000000000000000E+00    0.0000000000000000E+00    0.0000000000000000E+00
             0.0000000000000000E+00    0.0000000000000000E+00    0.0000000000000000E+00
             0.0000000000000000E+00    0.0000000000000000E+00    0.0000000000000000E+00
             0.0000000000000000E+00    0.0000000000000000E+00    0.0000000000000000E+00
             0.0000000000000000E+00    0.0000000000000000E+00    0.0000000000000000E+00
             0.0000000000000000E+00    0.0000000000000000E+00    0.0000000000000000E+00
             0.0000000000000000E+00    0.0000000000000000E+00    0.0000000000000000E+00
             0.0000000000000000E+00    0.0000000000000000E+00    0.0000000000000000E+00
             0.0000000000000000E+00    0.0000000000000000E+00    0.0000000000000000E+00
             0.0000000000000000E+00    0.0000000000000000E+00    0.0000000000000000E+00
             0.0000000000000000E+00    0.0000000000000000E+00    0.0000000000000000E+00
             0.0000000000000000E+00    0.0000000000000000E+00    0.0000000000000000E+00
             0.0000000000000000E+00    0.0000000000000000E+00    0.0000000000000000E+00
             0.0000000000000000E+00    0.0000000000000000E+00    0.0000000000000000E+00
             0.0000000000000000E+00    0.0000000000000000E+00    0.0000000000000000E+00
             0.0000000000000000E+00    0.0000000000000000E+00    0.0000000000000000E+00
             0.0000000000000000E+00    0.0000000000000000E+00    0.0000000000000000E+00
             0.0000000000000000E+00    0.0000000000000000E+00    0.0000000000000000E+00
             0.0000000000000000E+00    0.0000000000000000E+00    0.0000000000000000E+00
             0.0000000000000000E+00    0.0000000000000000E+00    0.0000000000000000E+00
             0.0000000000000000E+00    0.0000000000000000E+00    0.0000000000000000E+00
             0.0000000000000000E+00    0.0000000000000000E+00    0.0000000000000000E+00
             0.0000000000000000E+00    0.0000000000000000E+00    0.0000000000000000E+00
             0.0000000000000000E+00    0.0000000000000000E+00    0.0000000000000000E+00
             0.0000000000000000E+00    0.0000000000000000E+00    0.0000000000000000E+00
             0.0000000000000000E+00    0.0000000000000000E+00    0.0000000000000000E+00
             0.0000000000000000E+00    0.0000000000000000E+00    0.0000000000000000E+00
             0.0000000000000000E+00    0.0000000000000000E+00    0.0000000000000000E+00
             0.0000000000000000E+00    0.0000000000000000E+00    0.0000000000000000E+00
             0.0000000000000000E+00    0.0000000000000000E+00    0.0000000000000000E+00
             0.0000000000000000E+00    0.0000000000000000E+00    0.0000000000000000E+00
             0.0000000000000000E+00    0.0000000000000000E+00    0.0000000000000000E+00
             0.0000000000000000E+00    0.0000000000000000E+00    0.0000000000000000E+00
             0.0000000000000000E+00    0.0000000000000000E+00    0.0000000000000000E+00
             0.0000000000000000E+00    0.0000000000000000E+00    0.0000000000000000E+00
             0.0000000000000000E+00    0.0000000000000000E+00    0.0000000000000000E+00
             0.0000000000000000E+00    0.0000000000000000E+00    0.0000000000000000E+00
             0.0000000000000000E+00    0.0000000000000000E+00    0.0000000000000000E+00
             0.0000000000000000E+00    0.0000000000000000E+00    0.0000000000000000E+00
             0.0000000000000000E+00    0.0000000000000000E+00    0.0000000000000000E+00
             0.0000000000000000E+00    0.0000000000000000E+00    0.0000000000000000E+00
             0.0000000000000000E+00    0.0000000000000000E+00    0.0000000000000000E+00
             0.0000000000000000E+00    0.0000000000000000E+00    0.0000000000000000E+00
             0.0000000000000000E+00    0.0000000000000000E+00    0.0000000000000000E+00
             0.0000000000000000E+00    0.0000000000000000E+00    0.0000000000000000E+00
             0.0000000000000000E+00    0.0000000000000000E+00    0.0000000000000000E+00
             0.0000000000000000E+00    0.0000000000000000E+00    0.0000000000000000E+00
             0.0000000000000000E+00    0.0000000000000000E+00    0.0000000000000000E+00
             0.0000000000000000E+00    0.0000000000000000E+00    0.0000000000000000E+00
             0.0000000000000000E+00    0.0000000000000000E+00    0.0000000000000000E+00
             0.0000000000000000E+00    0.0000000000000000E+00    0.0000000000000000E+00
             0.0000000000000000E+00    0.0000000000000000E+00    0.0000000000000000E+00
             0.0000000000000000E+00    0.0000000000000000E+00    0.0000000000000000E+00
             0.0000000000000000E+00    0.0000000000000000E+00    0.0000000000000000E+00
             0.0000000000000000E+00    0.0000000000000000E+00    0.0000000000000000E+00
             0.0000000000000000E+00    0.0000000000000000E+00    0.0000000000000000E+00
             0.0000000000000000E+00    0.0000000000000000E+00    0.0000000000000000E+00
             0.0000000000000000E+00    0.0000000000000000E+00    0.0000000000000000E+00
             0.0000000000000000E+00    0.0000000000000000E+00    0.0000000000000000E+00
             0.0000000000000000E+00    0.0000000000000000E+00    0.0000000000000000E+00
             0.0000000000000000E+00    0.0000000000000000E+00    0.0000000000000000E+00
             0.0000000000000000E+00    0.0000000000000000E+00    0.0000000000000000E+00
             0.0000000000000000E+00    0.0000000000000000E+00    0.0000000000000000E+00
             0.0000000000000000E+00    0.0000000000000000E+00    0.0000000000000000E+00
             0.0000000000000000E+00    0.0000000000000000E+00    0.0000000000000000E+00
             0.0000000000000000E+00    0.0000000000000000E+00    0.0000000000000000E+00
             0.0000000000000000E+00    0.0000000000000000E+00    0.0000000000000000E+00
             0.0000000000000000E+00    0.0000000000000000E+00    0.0000000000000000E+00
             0.0000000000000000E+00    0.0000000000000000E+00    0.0000000000000000E+00
             0.0000000000000000E+00    0.0000000000000000E+00    0.0000000000000000E+00
             0.0000000000000000E+00    0.0000000000000000E+00    0.0000000000000000E+00
             0.0000000000000000E+00    0.0000000000000000E+00    0.0000000000000000E+00
             0.0000000000000000E+00    0.0000000000000000E+00    0.0000000000000000E+00
             0.0000000000000000E+00    0.0000000000000000E+00    0.0000000000000000E+00
             0.0000000000000000E+00    0.0000000000000000E+00    0.0000000000000000E+00
             0.0000000000000000E+00    0.0000000000000000E+00    0.0000000000000000E+00
             0.0000000000000000E+00    0.0000000000000000E+00    0.0000000000000000E+00
             0.0000000000000000E+00    0.0000000000000000E+00    0.0000000000000000E+00
             0.0000000000000000E+00    0.0000000000000000E+00    0.0000000000000000E+00
             0.0000000000000000E+00    0.0000000000000000E+00    0.0000000000000000E+00
             0.0000000000000000E+00    0.0000000000000000E+00    0.0000000000000000E+00
             0.0000000000000000E+00    0.0000000000000000E+00    0.0000000000000000E+00
             0.0000000000000000E+00    0.0000000000000000E+00    0.0000000000000000E+00
             0.0000000000000000E+00    0.0000000000000000E+00    0.0000000000000000E+00
             0.0000000000000000E+00    0.0000000000000000E+00    0.0000000000000000E+00
             0.0000000000000000E+00    0.0000000000000000E+00    0.0000000000000000E+00
             0.0000000000000000E+00    0.0000000000000000E+00    0.0000000000000000E+00
             0.0000000000000000E+00    0.0000000000000000E+00    0.0000000000000000E+00
             0.0000000000000000E+00    0.0000000000000000E+00    0.0000000000000000E+00
             0.0000000000000000E+00    0.0000000000000000E+00    0.0000000000000000E+00
             0.0000000000000000E+00    0.0000000000000000E+00    0.0000000000000000E+00
             0.0000000000000000E+00    0.0000000000000000E+00    0.0000000000000000E+00
             0.0000000000000000E+00    0.0000000000000000E+00    0.0000000000000000E+00
             0.0000000000000000E+00    0.0000000000000000E+00    0.0000000000000000E+00
             0.0000000000000000E+00    0.0000000000000000E+00    0.0000000000000000E+00
             0.0000000000000000E+00    0.0000000000000000E+00    0.0000000000000000E+00
             0.0000000000000000E+00    0.0000000000000000E+00    0.0000000000000000E+00
             0.0000000000000000E+00    0.0000000000000000E+00    0.0000000000000000E+00
             0.0000000000000000E+00    0.0000000000000000E+00    0.0000000000000000E+00
             0.0000000000000000E+00    0.0000000000000000E+00    0.0000000000000000E+00
             0.0000000000000000E+00    0.0000000000000000E+00    0.0000000000000000E+00
             0.0000000000000000E+00    0.0000000000000000E+00    0.0000000000000000E+00
             0.0000000000000000E+00    0.0000000000000000E+00    0.0000000000000000E+00
             0.0000000000000000E+00    0.0000000000000000E+00    0.0000000000000000E+00
             0.0000000000000000E+00    0.0000000000000000E+00    0.0000000000000000E+00
             0.0000000000000000E+00    0.0000000000000000E+00    0.0000000000000000E+00
             0.0000000000000000E+00    0.0000000000000000E+00    0.0000000000000000E+00
             0.0000000000000000E+00    0.0000000000000000E+00    0.0000000000000000E+00
             0.0000000000000000E+00    0.0000000000000000E+00    0.0000000000000000E+00
             0.0000000000000000E+00    0.0000000000000000E+00    0.0000000000000000E+00
             0.0000000000000000E+00    0.0000000000000000E+00    0.0000000000000000E+00
             0.0000000000000000E+00    0.0000000000000000E+00    0.0000000000000000E+00
             0.0000000000000000E+00    0.0000000000000000E+00    0.0000000000000000E+00
             0.0000000000000000E+00    0.0000000000000000E+00    0.0000000000000000E+00
             0.0000000000000000E+00    0.0000000000000000E+00    0.0000000000000000E+00
             0.0000000000000000E+00    0.0000000000000000E+00    0.0000000000000000E+00
             0.0000000000000000E+00    0.0000000000000000E+00    0.0000000000000000E+00
             0.0000000000000000E+00    0.0000000000000000E+00    0.0000000000000000E+00
             0.0000000000000000E+00    0.0000000000000000E+00    0.0000000000000000E+00
             0.0000000000000000E+00    0.0000000000000000E+00    0.0000000000000000E+00
             0.0000000000000000E+00    0.0000000000000000E+00    0.0000000000000000E+00
             0.0000000000000000E+00    0.0000000000000000E+00    0.0000000000000000E+00
             0.0000000000000000E+00    0.0000000000000000E+00    0.0000000000000000E+00
             0.0000000000000000E+00    0.0000000000000000E+00    0.0000000000000000E+00
             0.0000000000000000E+00    0.0000000000000000E+00    0.0000000000000000E+00
             0.0000000000000000E+00    0.0000000000000000E+00    0.0000000000000000E+00
             0.0000000000000000E+00    0.0000000000000000E+00    0.0000000000000000E+00