     183
 i =     144, E =    -5729.7653057675
 Au         0.0004437986        0.0008941495        0.0007079390
 Au         0.0005492650        2.9558941266        0.0003650051
 Au         0.0006547671        5.9118941037        0.0000219551
 Au         2.9564437945        0.0007886340        0.0005978085
 Au         2.9565492609        2.9557886111        0.0002548745
 Au         2.9566547629        5.9117885882       -0.0000881755
 Au         5.9124437903        0.0006831185        0.0004876779
 Au         5.9125492567        2.9556830956        0.0001447440
 Au         5.9126547588        5.9116830726       -0.0001983060
 Au         8.6704437865        0.0005846706        0.0003849241
 Au         8.6705492528        2.9555846477        0.0000419902
 Au         8.6706547549        5.9115846248       -0.0003010598
 Au        11.6264437823        0.0004791551        0.0002747936
 Au        11.6265492487        2.9554791322       -0.0000681404
 Au        11.6266547508        5.9114791093       -0.0004111904
 Au         1.4785744230        1.4790839262        2.0904813324
 Au         1.4786798894        4.4340839033        2.0901383985
 Au         1.4787853915        7.3900838804        2.0897953485
 Au         4.4345744189        1.4789784107        2.0903712019
 Au         4.4346798853        4.4339783878        2.0900282679
 Au         4.4347853873        7.3899783649        2.0896852179
 Au         7.1925744150        1.4788799629        2.0902684481
 Au         7.1926798814        4.4338799400        2.0899255142
 Au         7.1927853835        7.3898799171        2.0895824642
 Au        10.1485744109        1.4787744474        2.0901583175
 Au        10.1486798773        4.4337744245        2.0898153836
 Au        10.1487853793        7.3897744016        2.0894723336
 Au        13.1045744067        1.4786689319        2.0900481870
 Au        13.1046798731        4.4336689090        2.0897052530
 Au        13.1047853752        7.3896688860        2.0893622030
 Au         0.0005995495        0.0013792414        4.1807079064
 Au         0.0007050159        2.9563792185        4.1803649724
 Au         0.0008105180        5.9123791956        4.1800219225
 Au         2.9565995454        0.0012737259        4.1805977758
 Au         2.9567050118        2.9562737030        4.1802548419
 Au         2.9568105138        5.9122736801        4.1799117919
 Au         5.9125995412        0.0011682104        4.1804876452
 Au         5.9127050076        2.9561681875        4.1801447113
 Au         5.9128105097        5.9121681645        4.1798016613
 Au         8.6705995374        0.0010697625        4.1803848915
 Au         8.6707050038        2.9560697396        4.1800419575
 Au         8.6708105058        5.9120697167        4.1796989076
 Au        11.6265995332        0.0009642470        4.1802747609
 Au        11.6267049996        2.9559642241        4.1799318270
 Au        11.6268105017        5.9119642012        4.1795887770
 Au         1.4787301739        1.4795690181        6.2704812998
 Au         1.4788356403        4.4345689952        6.2701383658
 Au         1.4789411424        7.3905689723        6.2697953159
 Au         4.4347301698        1.4794635026        6.2703711692
 Au         4.4348356362        4.4344634797        6.2700282353
 Au         4.4349411383        7.3904634568        6.2696851853
 Au         7.1927301659        1.4793650548        6.2702684155
 Au         7.1928356323        4.4343650319        6.2699254815
 Au         7.1929411344        7.3903650090        6.2695824315
 Au        10.1487301618        1.4792595393        6.2701582849
 Au        10.1488356282        4.4342595164        6.2698153509
 Au        10.1489411302        7.3902594934        6.2694723010
 Au        13.1047301576        1.4791540238        6.2700481543
 Au        13.1048356240        4.4341540009        6.2697052204
 Au        13.1049411261        7.3901539779        6.2693621704
 Au         0.0007553004        0.0018643333        8.3607078737
 Au         0.0008607668        2.9568643104        8.3603649398
 Au         0.0009662689        5.9128642875        8.3600218898
 Au         2.9567552963        0.0017588178        8.3605977432
 Au         2.9568607627        2.9567587949        8.3602548092
 Au         2.9569662647        5.9127587719        8.3599117592
 Au         5.9127552921        0.0016533023        8.3604876126
 Au         5.9128607585        2.9566532793        8.3601446787
 Au         5.9129662606        5.9126532564        8.3598016287
 Au         8.6707552883        0.0015548544        8.3603848588
 Au         8.6708607547        2.9565548315        8.3600419249
 Au         8.6709662567        5.9125548086        8.3596988749
 Au        11.6267552841        0.0014493389        8.3602747283
 Au        11.6268607505        2.9564493160        8.3599317943
 Au        11.6269662526        5.9124492931        8.3595887443
 Au         1.4788859249        1.4800541100       10.4504812671
 Au         1.4789913912        4.4350540871       10.4501383332
 Au         1.4790968933        7.3910540642       10.4497952832
 Au         4.4348859207        1.4799485945       10.4503711366
 Au         4.4349913871        4.4349485716       10.4500282026
 Au         4.4350968892        7.3909485487       10.4496851526
 Au         7.1928859168        1.4798501467       10.4502683828
 Au         7.1929913832        4.4348501238       10.4499254489
 Au         7.1930968853        7.3908501009       10.4495823989
 Au        10.1488859127        1.4797446312       10.4501582522
 Au        10.1489913791        4.4347446083       10.4498153183
 Au        10.1490968812        7.3907445853       10.4494722683
 Au        13.1048859086        1.4796391157       10.4500481217
 Au        13.1049913749        4.4346390927       10.4497051877
 Au        13.1050968770        7.3906390698       10.4493621377
  N         4.8561224445        5.9131606849       12.0318313002
  N         9.5291032237        5.9149844325       12.0336666480
  N         7.1931042001        5.9360346327       12.0397512423
  H        10.3212709029        5.9199515893       12.6842002546
  H         4.0704620437        5.9175880796       12.6909579468
  C         8.3714292952        5.9426026456       12.7340155031
  C         5.9999726233        5.9366192127       12.7921237069
  N         8.3090038449        5.9859345777       14.0946035261
  N         5.9233870833        5.9712620393       14.0932539660
  H         9.1789262840        5.9889482508       14.6239082761
  C         7.0679024414        6.0571854189       14.8476797762
  N         6.9983293256        6.1930885792       16.1223103466
  H         7.8906259218        6.3149558407       16.6023001351
 Au         7.1992477025        5.9370794466       21.0427511735
 Au         5.9087655297        7.2070641765       22.9916528563
 Au         8.6783799938        4.4372528851       22.9918701714
 Au         5.9086670779        4.4363513138       22.9919730381
 Au         8.6784784099        7.2069657479       22.9915501056
 Au         1.4794311276        1.4817521637       25.0824811529
 Au         1.4795365940        4.4367521408       25.0821382189
 Au         1.4796420960        7.3927521179       25.0817951689
 Au         4.4354311234        1.4816466482       25.0823710223
 Au         4.4355365898        4.4366466253       25.0820280884
 Au         4.4356420919        7.3926466024       25.0816850384
 Au         7.1934311196        1.4815482004       25.0822682685
 Au         7.1935365859        4.4365481775       25.0819253346
 Au         7.1936420880        7.3925481546       25.0815822846
 Au        10.1494311154        1.4814426849       25.0821581380
 Au        10.1495365818        4.4364426620       25.0818152040
 Au        10.1496420839        7.3924426391       25.0814721541
 Au        13.1054311113        1.4813371694       25.0820480074
 Au        13.1055365776        4.4363371465       25.0817050735
 Au        13.1056420797        7.3923371236       25.0813620235
 Au         0.0014562541        0.0040474789       27.1727077268
 Au         0.0015617204        2.9590474560       27.1723647929
 Au         0.0016672225        5.9150474331       27.1720217429
 Au         2.9574562499        0.0039419634       27.1725975963
 Au         2.9575617163        2.9589419405       27.1722546623
 Au         2.9576672184        5.9149419176       27.1719116123
 Au         5.9134562458        0.0038364479       27.1724874657
 Au         5.9135617122        2.9588364250       27.1721445318
 Au         5.9136672142        5.9148364021       27.1718014818
 Au         8.6714562419        0.0037380001       27.1723847119
 Au         8.6715617083        2.9587379771       27.1720417780
 Au         8.6716672104        5.9147379542       27.1716987280
 Au        11.6274562378        0.0036324845       27.1722745814
 Au        11.6275617041        2.9586324616       27.1719316474
 Au        11.6276672062        5.9146324387       27.1715885974
 Au         1.4795868785        1.4822372556       29.2624811202
 Au         1.4796923449        4.4372372327       29.2621381863
 Au         1.4797978469        7.3932372098       29.2617951363
 Au         4.4355868743        1.4821317401       29.2623709897
 Au         4.4356923407        4.4371317172       29.2620280557
 Au         4.4357978428        7.3931316943       29.2616850057
 Au         7.1935868705        1.4820332923       29.2622682359
 Au         7.1936923369        4.4370332694       29.2619253020
 Au         7.1937978389        7.3930332465       29.2615822520
 Au        10.1495868663        1.4819277768       29.2621581053
 Au        10.1496923327        4.4369277539       29.2618151714
 Au        10.1497978348        7.3929277310       29.2614721214
 Au        13.1055868622        1.4818222613       29.2620479748
 Au        13.1056923286        4.4368222384       29.2617050408
 Au        13.1057978306        7.3928222155       29.2613619908
 Au         0.0016120050        0.0045325708       31.3527076942
 Au         0.0017174714        2.9595325479       31.3523647603
 Au         0.0018229734        5.9155325250       31.3520217103
 Au         2.9576120008        0.0044270553       31.3525975636
 Au         2.9577174672        2.9594270324       31.3522546297
 Au         2.9578229693        5.9154270095       31.3519115797
 Au         5.9136119967        0.0043215398       31.3524874330
 Au         5.9137174631        2.9593215169       31.3521444991
 Au         5.9138229651        5.9153214940       31.3518014491
 Au         8.6716119928        0.0042230920       31.3523846793
 Au         8.6717174592        2.9592230690       31.3520417454
 Au         8.6718229613        5.9152230461       31.3516986954
 Au        11.6276119887        0.0041175764       31.3522745487
 Au        11.6277174551        2.9591175535       31.3519316148
 Au        11.6278229571        5.9151175306       31.3515885648
 Au         1.4797426294        1.4827223475       33.4424810876
 Au         1.4798480958        4.4377223246       33.4421381537
 Au         1.4799535978        7.3937223017       33.4417951037
 Au         4.4357426253        1.4826168320       33.4423709570
 Au         4.4358480916        4.4376168091       33.4420280231
 Au         4.4359535937        7.3936167862       33.4416849731
 Au         7.1937426214        1.4825183842       33.4422682033
 Au         7.1938480878        4.4375183613       33.4419252693
 Au         7.1939535898        7.3935183384       33.4415822193
 Au        10.1497426172        1.4824128687       33.4421580727
 Au        10.1498480836        4.4374128458       33.4418151388
 Au        10.1499535857        7.3934128229       33.4414720888
 Au        13.1057426131        1.4823073532       33.4420479421
 Au        13.1058480795        4.4373073303       33.4417050082
 Au        13.1059535815        7.3933073074       33.4413619582
