     183
 i =     144, E =    -5729.7826078962
 Au         0.0000000000        0.0000000000        0.0000000000
 Au         0.0000000000        2.9550000000        0.0000000000
 Au         0.0000000000        5.9110000000        0.0000000000
 Au         2.9560000000        0.0000000000        0.0000000000
 Au         2.9560000000        2.9550000000        0.0000000000
 Au         2.9560000000        5.9110000000        0.0000000000
 Au         5.9120000000        0.0000000000        0.0000000000
 Au         5.9120000000        2.9550000000        0.0000000000
 Au         5.9120000000        5.9110000000        0.0000000000
 Au         8.6700000000        0.0000000000        0.0000000000
 Au         8.6700000000        2.9550000000        0.0000000000
 Au         8.6700000000        5.9110000000        0.0000000000
 Au        11.6260000000        0.0000000000        0.0000000000
 Au        11.6260000000        2.9550000000        0.0000000000
 Au        11.6260000000        5.9110000000        0.0000000000
 Au         1.4780000000        1.4780000000        2.0900000000
 Au         1.4780000000        4.4330000000        2.0900000000
 Au         1.4780000000        7.3890000000        2.0900000000
 Au         4.4340000000        1.4780000000        2.0900000000
 Au         4.4340000000        4.4330000000        2.0900000000
 Au         4.4340000000        7.3890000000        2.0900000000
 Au         7.1920000000        1.4780000000        2.0900000000
 Au         7.1920000000        4.4330000000        2.0900000000
 Au         7.1920000000        7.3890000000        2.0900000000
 Au        10.1480000000        1.4780000000        2.0900000000
 Au        10.1480000000        4.4330000000        2.0900000000
 Au        10.1480000000        7.3890000000        2.0900000000
 Au        13.1040000000        1.4780000000        2.0900000000
 Au        13.1040000000        4.4330000000        2.0900000000
 Au        13.1040000000        7.3890000000        2.0900000000
 Au         0.0000000000        0.0000000000        4.1800000000
 Au         0.0000000000        2.9550000000        4.1800000000
 Au         0.0000000000        5.9110000000        4.1800000000
 Au         2.9560000000        0.0000000000        4.1800000000
 Au         2.9560000000        2.9550000000        4.1800000000
 Au         2.9560000000        5.9110000000        4.1800000000
 Au         5.9120000000        0.0000000000        4.1800000000
 Au         5.9120000000        2.9550000000        4.1800000000
 Au         5.9120000000        5.9110000000        4.1800000000
 Au         8.6700000000        0.0000000000        4.1800000000
 Au         8.6700000000        2.9550000000        4.1800000000
 Au         8.6700000000        5.9110000000        4.1800000000
 Au        11.6260000000        0.0000000000        4.1800000000
 Au        11.6260000000        2.9550000000        4.1800000000
 Au        11.6260000000        5.9110000000        4.1800000000
 Au         1.4780000000        1.4780000000        6.2700000000
 Au         1.4780000000        4.4330000000        6.2700000000
 Au         1.4780000000        7.3890000000        6.2700000000
 Au         4.4340000000        1.4780000000        6.2700000000
 Au         4.4340000000        4.4330000000        6.2700000000
 Au         4.4340000000        7.3890000000        6.2700000000
 Au         7.1920000000        1.4780000000        6.2700000000
 Au         7.1920000000        4.4330000000        6.2700000000
 Au         7.1920000000        7.3890000000        6.2700000000
 Au        10.1480000000        1.4780000000        6.2700000000
 Au        10.1480000000        4.4330000000        6.2700000000
 Au        10.1480000000        7.3890000000        6.2700000000
 Au        13.1040000000        1.4780000000        6.2700000000
 Au        13.1040000000        4.4330000000        6.2700000000
 Au        13.1040000000        7.3890000000        6.2700000000
 Au         0.0000000000        0.0000000000        8.3600000000
 Au         0.0000000000        2.9550000000        8.3600000000
 Au         0.0000000000        5.9110000000        8.3600000000
 Au         2.9560000000        0.0000000000        8.3600000000
 Au         2.9560000000        2.9550000000        8.3600000000
 Au         2.9560000000        5.9110000000        8.3600000000
 Au         5.9120000000        0.0000000000        8.3600000000
 Au         5.9120000000        2.9550000000        8.3600000000
 Au         5.9120000000        5.9110000000        8.3600000000
 Au         8.6700000000        0.0000000000        8.3600000000
 Au         8.6700000000        2.9550000000        8.3600000000
 Au         8.6700000000        5.9110000000        8.3600000000
 Au        11.6260000000        0.0000000000        8.3600000000
 Au        11.6260000000        2.9550000000        8.3600000000
 Au        11.6260000000        5.9110000000        8.3600000000
 Au         1.4780000000        1.4780000000       10.4500000000
 Au         1.4780000000        4.4330000000       10.4500000000
 Au         1.4780000000        7.3890000000       10.4500000000
 Au         4.4340000000        1.4780000000       10.4500000000
 Au         4.4340000000        4.4330000000       10.4500000000
 Au         4.4340000000        7.3890000000       10.4500000000
 Au         7.1920000000        1.4780000000       10.4500000000
 Au         7.1920000000        4.4330000000       10.4500000000
 Au         7.1920000000        7.3890000000       10.4500000000
 Au        10.1480000000        1.4780000000       10.4500000000
 Au        10.1480000000        4.4330000000       10.4500000000
 Au        10.1480000000        7.3890000000       10.4500000000
 Au        13.1040000000        1.4780000000       10.4500000000
 Au        13.1040000000        4.4330000000       10.4500000000
 Au        13.1040000000        7.3890000000       10.4500000000
  N         4.8554000000        5.9119000000       12.0318000000
  N         9.5280000000        5.9137000000       12.0340000000
  N         7.1920000000        5.9340000000       12.0400000000
  H        10.3189054048        5.9087793826       12.6857470732
  H         4.0673339928        5.9059993220       12.6877413689
  C         8.3738707293        5.9179777707       12.7314572522
  C         5.9989554222        5.9152564166       12.7926424112
  N         8.3227525762        5.9051536095       14.0804976421
  N         5.9344285049        5.8981604865       14.1017499696
  H         9.1743570613        5.8876302392       14.6410177353
  C         7.1039653577        5.8899410689       14.8287032191
  N         7.2416021047        5.8657702092       16.1064667573
  H         6.3118250323        5.8547577071       16.5396013062
 Au         7.3120000000        5.9340000000       21.0430000000
 Au         5.8130000000        7.4340000000       22.9920000000
 Au         8.8130000000        4.4340000000       22.9920000000
 Au         5.8130000000        4.4330000000       22.9920000000
 Au         8.8130000000        7.4340000000       22.9920000000
 Au         1.4780000000        1.4780000000       25.0820000000
 Au         1.4780000000        4.4330000000       25.0820000000
 Au         1.4780000000        7.3890000000       25.0820000000
 Au         4.4340000000        1.4780000000       25.0820000000
 Au         4.4340000000        4.4330000000       25.0820000000
 Au         4.4340000000        7.3890000000       25.0820000000
 Au         7.1920000000        1.4780000000       25.0820000000
 Au         7.1920000000        4.4330000000       25.0820000000
 Au         7.1920000000        7.3890000000       25.0820000000
 Au        10.1480000000        1.4780000000       25.0820000000
 Au        10.1480000000        4.4330000000       25.0820000000
 Au        10.1480000000        7.3890000000       25.0820000000
 Au        13.1040000000        1.4780000000       25.0820000000
 Au        13.1040000000        4.4330000000       25.0820000000
 Au        13.1040000000        7.3890000000       25.0820000000
 Au         0.0000000000        0.0000000000       27.1720000000
 Au         0.0000000000        2.9550000000       27.1720000000
 Au         0.0000000000        5.9110000000       27.1720000000
 Au         2.9560000000        0.0000000000       27.1720000000
 Au         2.9560000000        2.9550000000       27.1720000000
 Au         2.9560000000        5.9110000000       27.1720000000
 Au         5.9120000000        0.0000000000       27.1720000000
 Au         5.9120000000        2.9550000000       27.1720000000
 Au         5.9120000000        5.9110000000       27.1720000000
 Au         8.6700000000        0.0000000000       27.1720000000
 Au         8.6700000000        2.9550000000       27.1720000000
 Au         8.6700000000        5.9110000000       27.1720000000
 Au        11.6260000000        0.0000000000       27.1720000000
 Au        11.6260000000        2.9550000000       27.1720000000
 Au        11.6260000000        5.9110000000       27.1720000000
 Au         1.4780000000        1.4780000000       29.2620000000
 Au         1.4780000000        4.4330000000       29.2620000000
 Au         1.4780000000        7.3890000000       29.2620000000
 Au         4.4340000000        1.4780000000       29.2620000000
 Au         4.4340000000        4.4330000000       29.2620000000
 Au         4.4340000000        7.3890000000       29.2620000000
 Au         7.1920000000        1.4780000000       29.2620000000
 Au         7.1920000000        4.4330000000       29.2620000000
 Au         7.1920000000        7.3890000000       29.2620000000
 Au        10.1480000000        1.4780000000       29.2620000000
 Au        10.1480000000        4.4330000000       29.2620000000
 Au        10.1480000000        7.3890000000       29.2620000000
 Au        13.1040000000        1.4780000000       29.2620000000
 Au        13.1040000000        4.4330000000       29.2620000000
 Au        13.1040000000        7.3890000000       29.2620000000
 Au         0.0000000000        0.0000000000       31.3520000000
 Au         0.0000000000        2.9550000000       31.3520000000
 Au         0.0000000000        5.9110000000       31.3520000000
 Au         2.9560000000        0.0000000000       31.3520000000
 Au         2.9560000000        2.9550000000       31.3520000000
 Au         2.9560000000        5.9110000000       31.3520000000
 Au         5.9120000000        0.0000000000       31.3520000000
 Au         5.9120000000        2.9550000000       31.3520000000
 Au         5.9120000000        5.9110000000       31.3520000000
 Au         8.6700000000        0.0000000000       31.3520000000
 Au         8.6700000000        2.9550000000       31.3520000000
 Au         8.6700000000        5.9110000000       31.3520000000
 Au        11.6260000000        0.0000000000       31.3520000000
 Au        11.6260000000        2.9550000000       31.3520000000
 Au        11.6260000000        5.9110000000       31.3520000000
 Au         1.4780000000        1.4780000000       33.4420000000
 Au         1.4780000000        4.4330000000       33.4420000000
 Au         1.4780000000        7.3890000000       33.4420000000
 Au         4.4340000000        1.4780000000       33.4420000000
 Au         4.4340000000        4.4330000000       33.4420000000
 Au         4.4340000000        7.3890000000       33.4420000000
 Au         7.1920000000        1.4780000000       33.4420000000
 Au         7.1920000000        4.4330000000       33.4420000000
 Au         7.1920000000        7.3890000000       33.4420000000
 Au        10.1480000000        1.4780000000       33.4420000000
 Au        10.1480000000        4.4330000000       33.4420000000
 Au        10.1480000000        7.3890000000       33.4420000000
 Au        13.1040000000        1.4780000000       33.4420000000
 Au        13.1040000000        4.4330000000       33.4420000000
 Au        13.1040000000        7.3890000000       33.4420000000
     183
 i =     144, E =    -5729.7733812213
 Au         0.0004559610        0.0009195518        0.0007306939
 Au         0.0005649176        2.9559195282        0.0003770531
 Au         0.0006739110        5.9119195046        0.0000232926
 Au         2.9564559567        0.0008105445        0.0006171115
 Au         2.9565649133        2.9558105209        0.0002634707
 Au         2.9566739068        5.9118104973       -0.0000902898
 Au         5.9124559525        0.0007015372        0.0005035291
 Au         5.9125649090        2.9557015136        0.0001498883
 Au         5.9126739025        5.9117014900       -0.0002038722
 Au         8.6704559485        0.0005998315        0.0003975548
 Au         8.6705649050        2.9555998079        0.0000439139
 Au         8.6706738985        5.9115997842       -0.0003098466
 Au        11.6264559442        0.0004908242        0.0002839724
 Au        11.6265649008        2.9554908005       -0.0000696685
 Au        11.6266738942        5.9114907769       -0.0004234290
 Au         1.4785907719        1.4791151549        2.0904970056
 Au         1.4786997285        4.4341151313        2.0901433648
 Au         1.4788087219        7.3901151077        2.0897896043
 Au         4.4345907676        1.4790061476        2.0903834232
 Au         4.4346997242        4.4340061240        2.0900297824
 Au         4.4348087177        7.3900061004        2.0896760219
 Au         7.1925907636        1.4789044419        2.0902774489
 Au         7.1926997202        4.4339044183        2.0899238080
 Au         7.1928087137        7.3899043947        2.0895700475
 Au        10.1485907594        1.4787954346        2.0901638665
 Au        10.1486997159        4.4337954110        2.0898102256
 Au        10.1488087094        7.3897953873        2.0894564651
 Au        13.1045907551        1.4786864273        2.0900502841
 Au        13.1046997117        4.4336864037        2.0896966432
 Au        13.1048087051        7.3896863800        2.0893428827
 Au         0.0006165936        0.0014197890        4.1807306603
 Au         0.0007255502        2.9564197654        4.1803770194
 Au         0.0008345437        5.9124197418        4.1800232589
 Au         2.9566165893        0.0013107817        4.1806170779
 Au         2.9567255459        2.9563107581        4.1802634370
 Au         2.9568345394        5.9123107344        4.1799096765
 Au         5.9126165851        0.0012017744        4.1805034955
 Au         5.9127255417        2.9562017508        4.1801498546
 Au         5.9128345351        5.9122017271        4.1797960941
 Au         8.6706165811        0.0011000686        4.1803975211
 Au         8.6707255377        2.9561000450        4.1800438803
 Au         8.6708345311        5.9121000214        4.1796901198
 Au        11.6266165768        0.0009910613        4.1802839387
 Au        11.6267255334        2.9559910377        4.1799302979
 Au        11.6268345268        5.9119910141        4.1795765374
 Au         1.4787514045        1.4796153921        6.2704969720
 Au         1.4788603611        4.4346153685        6.2701433312
 Au         1.4789693546        7.3906153449        6.2697895706
 Au         4.4347514002        1.4795063848        6.2703833896
 Au         4.4348603568        4.4345063612        6.2700297488
 Au         4.4349693503        7.3905063376        6.2696759882
 Au         7.1927513963        1.4794046791        6.2702774152
 Au         7.1928603528        4.4344046554        6.2699237744
 Au         7.1929693463        7.3904046318        6.2695700139
 Au        10.1487513920        1.4792956718        6.2701638328
 Au        10.1488603486        4.4342956481        6.2698101920
 Au        10.1489693420        7.3902956245        6.2694564315
 Au        13.1047513877        1.4791866644        6.2700502504
 Au        13.1048603443        4.4341866408        6.2696966096
 Au        13.1049693377        7.3901866172        6.2693428491
 Au         0.0007772262        0.0019200262        8.3607306266
 Au         0.0008861828        2.9569200025        8.3603769858
 Au         0.0009951763        5.9129199789        8.3600232253
 Au         2.9567772220        0.0018110189        8.3606170442
 Au         2.9568861785        2.9568109952        8.3602634034
 Au         2.9569951720        5.9128109716        8.3599096429
 Au         5.9127772177        0.0017020115        8.3605034618
 Au         5.9128861743        2.9567019879        8.3601498210
 Au         5.9129951677        5.9127019643        8.3597960605
 Au         8.6707772137        0.0016003058        8.3603974874
 Au         8.6708861703        2.9566002822        8.3600438466
 Au         8.6709951637        5.9126002586        8.3596900861
 Au        11.6267772094        0.0014912985        8.3602839050
 Au        11.6268861660        2.9564912749        8.3599302642
 Au        11.6269951595        5.9124912513        8.3595765037
 Au         1.4789120371        1.4801156293       10.4504969383
 Au         1.4790209937        4.4351156057       10.4501432975
 Au         1.4791299872        7.3911155820       10.4497895370
 Au         4.4349120329        1.4800066220       10.4503833559
 Au         4.4350209894        4.4350065984       10.4500297151
 Au         4.4351299829        7.3910065747       10.4496759546
 Au         7.1929120289        1.4799049162       10.4502773816
 Au         7.1930209855        4.4349048926       10.4499237407
 Au         7.1931299789        7.3909048690       10.4495699802
 Au        10.1489120246        1.4797959089       10.4501637992
 Au        10.1490209812        4.4347958853       10.4498101583
 Au        10.1491299746        7.3907958617       10.4494563978
 Au        13.1049120203        1.4796869016       10.4500502168
 Au        13.1050209769        4.4346868780       10.4496965759
 Au        13.1051299704        7.3906868544       10.4493428154
  N         4.8561438304        5.9131973742       12.0318328702
  N         9.5291364238        5.9150215138       12.0336568491
  N         7.1931374321        5.9360951622       12.0397440951
  H        10.3190431153        5.9128818480       12.6861472258
  H         4.0660681218        5.9242870501       12.6860009264
  C         8.3759939045        5.9223021942       12.7261915315
  C         6.0017717418        5.9562810148       12.8026246570
  N         8.3334659909        5.9144407319       14.0694214802
  N         5.9495875842        6.0317646932       14.1174973703
  H         9.1864391226        5.9513835649       14.6269882356
  C         7.1322045743        6.0635406055       14.8338229475
  N         7.3698408572        6.2036223556       16.0894352426
  H         6.5512262649        6.3744080441       16.6691987762
 Au         7.1957485381        5.9371725879       21.0427440228
 Au         5.9117359567        7.2000210368       22.9916426389
 Au         8.6742022760        4.4373513410       22.9918667290
 Au         5.9116342290        4.4364530448       22.9919728228
 Au         8.6743039669        7.1999193330       22.9915366649
 Au         1.4794743281        1.4818666987       25.0824968205
 Au         1.4795832847        4.4368666751       25.0821431797
 Au         1.4796922782        7.3928666515       25.0817894192
 Au         4.4354743239        1.4817576914       25.0823832381
 Au         4.4355832805        4.4367576678       25.0820295973
 Au         4.4356922739        7.3927576442       25.0816758368
 Au         7.1934743199        1.4816559857       25.0822772637
 Au         7.1935832765        4.4366559621       25.0819236229
 Au         7.1936922699        7.3926559384       25.0815698624
 Au        10.1494743156        1.4815469784       25.0821636813
 Au        10.1495832722        4.4365469548       25.0818100405
 Au        10.1496922656        7.3925469311       25.0814562800
 Au        13.1054743113        1.4814379711       25.0820500989
 Au        13.1055832679        4.4364379474       25.0816964581
 Au        13.1056922614        7.3924379238       25.0813426976
 Au         0.0015001499        0.0041713328       27.1727304751
 Au         0.0016091064        2.9591713092       27.1723768343
 Au         0.0017180999        5.9151712855       27.1720230738
 Au         2.9575001456        0.0040623255       27.1726168927
 Au         2.9576091022        2.9590623019       27.1722632519
 Au         2.9577180956        5.9150622782       27.1719094914
 Au         5.9135001413        0.0039533182       27.1725033104
 Au         5.9136090979        2.9589532945       27.1721496695
 Au         5.9137180914        5.9149532709       27.1717959090
 Au         8.6715001373        0.0038516124       27.1723973360
 Au         8.6716090939        2.9588515888       27.1720436951
 Au         8.6717180874        5.9148515652       27.1716899346
 Au        11.6275001331        0.0037426051       27.1722837536
 Au        11.6276090896        2.9587425815       27.1719301127
 Au        11.6277180831        5.9147425579       27.1715763522
 Au         1.4796349608        1.4823669359       29.2624967869
 Au         1.4797439173        4.4373669123       29.2621431460
 Au         1.4798529108        7.3933668887       29.2617893855
 Au         4.4356349565        1.4822579286       29.2623832045
 Au         4.4357439131        4.4372579050       29.2620295636
 Au         4.4358529065        7.3932578814       29.2616758031
 Au         7.1936349525        1.4821562229       29.2622772301
 Au         7.1937439091        4.4371561992       29.2619235893
 Au         7.1938529025        7.3931561756       29.2615698287
 Au        10.1496349482        1.4820472155       29.2621636477
 Au        10.1497439048        4.4370471919       29.2618100069
 Au        10.1498528983        7.3930471683       29.2614562464
 Au        13.1056349440        1.4819382082       29.2620500653
 Au        13.1057439005        4.4369381846       29.2616964245
 Au        13.1058528940        7.3929381610       29.2613426640
 Au         0.0016607825        0.0046715700       31.3527304415
 Au         0.0017697391        2.9596715463       31.3523768007
 Au         0.0018787325        5.9156715227       31.3520230401
 Au         2.9576607782        0.0045625626       31.3526168591
 Au         2.9577697348        2.9595625390       31.3522632183
 Au         2.9578787282        5.9155625154       31.3519094578
 Au         5.9136607739        0.0044535553       31.3525032767
 Au         5.9137697305        2.9594535317       31.3521496359
 Au         5.9138787240        5.9154535081       31.3517958754
 Au         8.6716607699        0.0043518496       31.3523973023
 Au         8.6717697265        2.9593518260       31.3520436615
 Au         8.6718787200        5.9153518024       31.3516899010
 Au        11.6276607657        0.0042428423       31.3522837199
 Au        11.6277697223        2.9592428187       31.3519300791
 Au        11.6278787157        5.9152427950       31.3515763186
 Au         1.4797955934        1.4828671731       33.4424967532
 Au         1.4799045500        4.4378671495       33.4421431124
 Au         1.4800135434        7.3938671258       33.4417893519
 Au         4.4357955891        1.4827581658       33.4423831708
 Au         4.4359045457        4.4377581421       33.4420295300
 Au         4.4360135391        7.3937581185       33.4416757695
 Au         7.1937955851        1.4826564600       33.4422771964
 Au         7.1939045417        4.4376564364       33.4419235556
 Au         7.1940135352        7.3936564128       33.4415697951
 Au        10.1497955808        1.4825474527       33.4421636140
 Au        10.1499045374        4.4375474291       33.4418099732
 Au        10.1500135309        7.3935474055       33.4414562127
 Au        13.1057955766        1.4824384454       33.4420500316
 Au        13.1059045332        4.4374384218       33.4416963908
 Au        13.1060135266        7.3934383982       33.4413426303
     183
 i =     144, E =    -5729.7357290400
 Au         0.0004634312        0.0009346070        0.0007426270
 Au         0.0005741660        2.9559345830        0.0003832072
 Au         0.0006849383        5.9119345589        0.0000236658
 Au         2.9564634268        0.0008238206        0.0006271886
 Au         2.9565741617        2.9558237966        0.0002677689
 Au         2.9566849340        5.9118237726       -0.0000917725
 Au         5.9124634225        0.0007130342        0.0005117503
 Au         5.9125741573        2.9557130102        0.0001523306
 Au         5.9126849296        5.9117129862       -0.0002072108
 Au         8.6704634184        0.0006096686        0.0004040443
 Au         8.6705741533        2.9556096445        0.0000446246
 Au         8.6706849256        5.9116096205       -0.0003149168
 Au        11.6264634141        0.0004988822        0.0002886060
 Au        11.6265741489        2.9554988582       -0.0000708137
 Au        11.6266849212        5.9114988342       -0.0004303551
 Au         1.4786004438        1.4791334076        2.0905051200
 Au         1.4787111787        4.4341333836        2.0901457002
 Au         1.4788219510        7.3901333596        2.0897861589
 Au         4.4346004395        1.4790226212        2.0903896817
 Au         4.4347111743        4.4340225972        2.0900302619
 Au         4.4348219466        7.3900225732        2.0896707205
 Au         7.1926004354        1.4789192556        2.0902819757
 Au         7.1927111703        4.4339192316        2.0899225559
 Au         7.1928219426        7.3899192076        2.0895630145
 Au        10.1486004311        1.4788084692        2.0901665374
 Au        10.1487111659        4.4338084452        2.0898071176
 Au        10.1488219382        7.3898084212        2.0894475762
 Au        13.1046004267        1.4786976828        2.0900510991
 Au        13.1047111616        4.4336976588        2.0896916793
 Au        13.1048219339        7.3896976348        2.0893321379
 Au         0.0006266885        0.0014430186        4.1807425928
 Au         0.0007374233        2.9564429946        4.1803831730
 Au         0.0008481956        5.9124429706        4.1800236316
 Au         2.9566266842        0.0013322322        4.1806271544
 Au         2.9567374190        2.9563322082        4.1802677347
 Au         2.9568481913        5.9123321842        4.1799081933
 Au         5.9126266798        0.0012214459        4.1805117161
 Au         5.9127374147        2.9562214219        4.1801522964
 Au         5.9128481870        5.9122213978        4.1797927550
 Au         8.6706266758        0.0011180802        4.1804040101
 Au         8.6707374106        2.9561180562        4.1800445904
 Au         8.6708481829        5.9121180322        4.1796850490
 Au        11.6266266714        0.0010072938        4.1802885718
 Au        11.6267374063        2.9560072698        4.1799291520
 Au        11.6268481786        5.9120072458        4.1795696107
 Au         1.4787637012        1.4796418193        6.2705050858
 Au         1.4788744360        4.4346417953        6.2701456660
 Au         1.4789852083        7.3906417712        6.2697861246
 Au         4.4347636968        1.4795310329        6.2703896475
 Au         4.4348744317        4.4345310089        6.2700302277
 Au         4.4349852040        7.3905309849        6.2696706863
 Au         7.1927636928        1.4794276672        6.2702819415
 Au         7.1928744276        4.4344276432        6.2699225217
 Au         7.1929851999        7.3904276192        6.2695629803
 Au        10.1487636884        1.4793168809        6.2701665032
 Au        10.1488744233        4.4343168568        6.2698070834
 Au        10.1489851956        7.3903168328        6.2694475420
 Au        13.1047636841        1.4792060945        6.2700510648
 Au        13.1048744189        4.4342060705        6.2696916451
 Au        13.1049851912        7.3902060465        6.2693321037
 Au         0.0007899459        0.0019514303        8.3607425586
 Au         0.0009006807        2.9569514063        8.3603831388
 Au         0.0010114530        5.9129513823        8.3600235974
 Au         2.9567899415        0.0018406439        8.3606271202
 Au         2.9569006763        2.9568406199        8.3602677005
 Au         2.9570114486        5.9128405959        8.3599081591
 Au         5.9127899372        0.0017298575        8.3605116819
 Au         5.9129006720        2.9567298335        8.3601522622
 Au         5.9130114443        5.9127298095        8.3597927208
 Au         8.6707899331        0.0016264919        8.3604039759
 Au         8.6709006679        2.9566264679        8.3600445562
 Au         8.6710114402        5.9126264439        8.3596850148
 Au        11.6267899288        0.0015157055        8.3602885376
 Au        11.6269006636        2.9565156815        8.3599291178
 Au        11.6270114359        5.9125156575        8.3595695764
 Au         1.4789269585        1.4801502309       10.4505050516
 Au         1.4790376933        4.4351502069       10.4501456318
 Au         1.4791484656        7.3911501829       10.4497860904
 Au         4.4349269542        1.4800394445       10.4503896133
 Au         4.4350376890        4.4350394205       10.4500301935
 Au         4.4351484613        7.3910393965       10.4496706521
 Au         7.1929269501        1.4799360789       10.4502819073
 Au         7.1930376849        4.4349360549       10.4499224875
 Au         7.1931484572        7.3909360309       10.4495629461
 Au        10.1489269458        1.4798252925       10.4501664690
 Au        10.1490376806        4.4348252685       10.4498070492
 Au        10.1491484529        7.3908252445       10.4494475078
 Au        13.1049269414        1.4797145061       10.4500510306
 Au        13.1050376762        4.4347144821       10.4496916109
 Au        13.1051484485        7.3907144581       10.4493320695
  N         4.8561559988        5.9132186052       12.0318334007
  N         9.5291550085        5.9150431433       12.0336512347
  N         7.1931560333        5.9361294337       12.0397399063