 # Version information for this restart file 
 # current date 2024-01-13 00:00:24.865
 # current working dir /gpfs/home/cahart/transport/melamine/au_from-h2/ci-neb/ts2-fixed/dft_leads-sz_tip-dzvp_surf-dzvp_kpoints-2-4-20_replicas-5
 # Program compiled at                              Thu 21 Sep 19:20:17 BST 2023
 # Program compiled on                                           hx1-c12-login-1
 # Program compiled for                                                    local
 # Source code revision number                                       git:5518aa6
 &GLOBAL
   EXTENDED_FFT_LENGTHS  T
   PRINT_LEVEL  MEDIUM
   PROJECT_NAME 2_dft_wfn-r-0
   OUTPUT_FILE_NAME 2_dft_wfn-r-0.out
   RUN_TYPE  BAND
 &END GLOBAL
 &MOTION
   &BAND
     NPROC_REP  64
     BAND_TYPE  CI-NEB
     NUMBER_OF_REPLICA  5
     K_SPRING     5.0000000000000003E-02
     &CI_NEB
       NSTEPS_IT  5
     &END CI_NEB
     &OPTIMIZE_BAND
       OPT_TYPE  DIIS
       &DIIS
         MAX_STEPS  1000
       &END DIIS
     &END OPTIMIZE_BAND
     &REPLICA
       &COORD
             0.0000000000000000E+00    0.0000000000000000E+00    0.0000000000000000E+00
             0.0000000000000000E+00    2.9549999999999894E+00    0.0000000000000000E+00
             0.0000000000000000E+00    5.9109999999999774E+00    0.0000000000000000E+00
             2.9559999999999889E+00    0.0000000000000000E+00    0.0000000000000000E+00
             2.9559999999999889E+00    2.9549999999999894E+00    0.0000000000000000E+00
             2.9559999999999889E+00    5.9109999999999774E+00    0.0000000000000000E+00
             5.9119999999999777E+00    0.0000000000000000E+00    0.0000000000000000E+00
             5.9119999999999777E+00    2.9549999999999894E+00    0.0000000000000000E+00
             5.9119999999999777E+00    5.9109999999999774E+00    0.0000000000000000E+00
             8.6699999999999715E+00    0.0000000000000000E+00    0.0000000000000000E+00
             8.6699999999999715E+00    2.9549999999999894E+00    0.0000000000000000E+00
             8.6699999999999715E+00    5.9109999999999774E+00    0.0000000000000000E+00
             1.1625999999999950E+01    0.0000000000000000E+00    0.0000000000000000E+00
             1.1625999999999950E+01    2.9549999999999894E+00    0.0000000000000000E+00
             1.1625999999999950E+01    5.9109999999999774E+00    0.0000000000000000E+00
             1.4779999999999944E+00    1.4779999999999944E+00    2.0899999999999919E+00
             1.4779999999999944E+00    4.4329999999999838E+00    2.0899999999999919E+00
             1.4779999999999944E+00    7.3889999999999718E+00    2.0899999999999919E+00
             4.4339999999999842E+00    1.4779999999999944E+00    2.0899999999999919E+00
             4.4339999999999842E+00    4.4329999999999838E+00    2.0899999999999919E+00
             4.4339999999999842E+00    7.3889999999999718E+00    2.0899999999999919E+00
             7.1919999999999726E+00    1.4779999999999944E+00    2.0899999999999919E+00
             7.1919999999999726E+00    4.4329999999999838E+00    2.0899999999999919E+00
             7.1919999999999726E+00    7.3889999999999718E+00    2.0899999999999919E+00
             1.0147999999999962E+01    1.4779999999999944E+00    2.0899999999999919E+00
             1.0147999999999962E+01    4.4329999999999838E+00    2.0899999999999919E+00
             1.0147999999999962E+01    7.3889999999999718E+00    2.0899999999999919E+00
             1.3103999999999948E+01    1.4779999999999944E+00    2.0899999999999919E+00
             1.3103999999999948E+01    4.4329999999999838E+00    2.0899999999999919E+00
             1.3103999999999948E+01    7.3889999999999718E+00    2.0899999999999919E+00
             0.0000000000000000E+00    0.0000000000000000E+00    4.1799999999999837E+00
             0.0000000000000000E+00    2.9549999999999894E+00    4.1799999999999837E+00
             0.0000000000000000E+00    5.9109999999999774E+00    4.1799999999999837E+00
             2.9559999999999889E+00    0.0000000000000000E+00    4.1799999999999837E+00
             2.9559999999999889E+00    2.9549999999999894E+00    4.1799999999999837E+00
             2.9559999999999889E+00    5.9109999999999774E+00    4.1799999999999837E+00
             5.9119999999999777E+00    0.0000000000000000E+00    4.1799999999999837E+00
             5.9119999999999777E+00    2.9549999999999894E+00    4.1799999999999837E+00
             5.9119999999999777E+00    5.9109999999999774E+00    4.1799999999999837E+00
             8.6699999999999715E+00    0.0000000000000000E+00    4.1799999999999837E+00
             8.6699999999999715E+00    2.9549999999999894E+00    4.1799999999999837E+00
             8.6699999999999715E+00    5.9109999999999774E+00    4.1799999999999837E+00
             1.1625999999999950E+01    0.0000000000000000E+00    4.1799999999999837E+00
             1.1625999999999950E+01    2.9549999999999894E+00    4.1799999999999837E+00
             1.1625999999999950E+01    5.9109999999999774E+00    4.1799999999999837E+00
             1.4779999999999944E+00    1.4779999999999944E+00    6.2699999999999729E+00
             1.4779999999999944E+00    4.4329999999999838E+00    6.2699999999999729E+00
             1.4779999999999944E+00    7.3889999999999718E+00    6.2699999999999729E+00
             4.4339999999999842E+00    1.4779999999999944E+00    6.2699999999999729E+00
             4.4339999999999842E+00    4.4329999999999838E+00    6.2699999999999729E+00
             4.4339999999999842E+00    7.3889999999999718E+00    6.2699999999999729E+00
             7.1919999999999726E+00    1.4779999999999944E+00    6.2699999999999729E+00
             7.1919999999999726E+00    4.4329999999999838E+00    6.2699999999999729E+00
             7.1919999999999726E+00    7.3889999999999718E+00    6.2699999999999729E+00
             1.0147999999999962E+01    1.4779999999999944E+00    6.2699999999999729E+00
             1.0147999999999962E+01    4.4329999999999838E+00    6.2699999999999729E+00
             1.0147999999999962E+01    7.3889999999999718E+00    6.2699999999999729E+00
             1.3103999999999948E+01    1.4779999999999944E+00    6.2699999999999729E+00
             1.3103999999999948E+01    4.4329999999999838E+00    6.2699999999999729E+00
             1.3103999999999948E+01    7.3889999999999718E+00    6.2699999999999729E+00
             0.0000000000000000E+00    0.0000000000000000E+00    8.3599999999999675E+00
             0.0000000000000000E+00    2.9549999999999894E+00    8.3599999999999675E+00
             0.0000000000000000E+00    5.9109999999999774E+00    8.3599999999999675E+00
             2.9559999999999889E+00    0.0000000000000000E+00    8.3599999999999675E+00
             2.9559999999999889E+00    2.9549999999999894E+00    8.3599999999999675E+00
             2.9559999999999889E+00    5.9109999999999774E+00    8.3599999999999675E+00
             5.9119999999999777E+00    0.0000000000000000E+00    8.3599999999999675E+00
             5.9119999999999777E+00    2.9549999999999894E+00    8.3599999999999675E+00
             5.9119999999999777E+00    5.9109999999999774E+00    8.3599999999999675E+00
             8.6699999999999715E+00    0.0000000000000000E+00    8.3599999999999675E+00
             8.6699999999999715E+00    2.9549999999999894E+00    8.3599999999999675E+00
             8.6699999999999715E+00    5.9109999999999774E+00    8.3599999999999675E+00
             1.1625999999999950E+01    0.0000000000000000E+00    8.3599999999999675E+00
             1.1625999999999950E+01    2.9549999999999894E+00    8.3599999999999675E+00
             1.1625999999999950E+01    5.9109999999999774E+00    8.3599999999999675E+00
             1.4779999999999944E+00    1.4779999999999944E+00    1.0449999999999964E+01
             1.4779999999999944E+00    4.4329999999999838E+00    1.0449999999999964E+01
             1.4779999999999944E+00    7.3889999999999718E+00    1.0449999999999964E+01
             4.4339999999999842E+00    1.4779999999999944E+00    1.0449999999999964E+01
             4.4339999999999842E+00    4.4329999999999838E+00    1.0449999999999964E+01
             4.4339999999999842E+00    7.3889999999999718E+00    1.0449999999999964E+01
             7.1919999999999726E+00    1.4779999999999944E+00    1.0449999999999964E+01
             7.1919999999999726E+00    4.4329999999999838E+00    1.0449999999999964E+01
             7.1919999999999726E+00    7.3889999999999718E+00    1.0449999999999964E+01
             1.0147999999999962E+01    1.4779999999999944E+00    1.0449999999999964E+01
             1.0147999999999962E+01    4.4329999999999838E+00    1.0449999999999964E+01
             1.0147999999999962E+01    7.3889999999999718E+00    1.0449999999999964E+01
             1.3103999999999948E+01    1.4779999999999944E+00    1.0449999999999964E+01
             1.3103999999999948E+01    4.4329999999999838E+00    1.0449999999999964E+01
             1.3103999999999948E+01    7.3889999999999718E+00    1.0449999999999964E+01
             4.8553999999999853E+00    5.9118999999999762E+00    1.2031799999999958E+01
             9.5279999999999667E+00    5.9136999999999764E+00    1.2033999999999958E+01
             7.1919999999999726E+00    5.9339999999999780E+00    1.2039999999999955E+01
             4.0673339927999859E+00    5.9059993219999827E+00    1.2687741368899950E+01
             1.0318905404799965E+01    5.9087793825999775E+00    1.2685747073199954E+01
             5.9989554221999786E+00    5.9152564165999779E+00    1.2792642411199949E+01
             8.3738707292999699E+00    5.9179777706999799E+00    1.2731457252199952E+01
             8.3227525761999672E+00    5.9051536094999806E+00    1.4080497642099953E+01
             5.9344285048999721E+00    5.8981604864999770E+00    1.4101749969599949E+01
             7.1039653576999759E+00    5.8899410688999758E+00    1.4828703219099948E+01
             7.2416021046999690E+00    5.8657702091999777E+00    1.6106466757299948E+01
             6.3118250322999758E+00    5.8547577070999770E+00    1.6539601306199938E+01
             9.1743570612999736E+00    5.8876302391999760E+00    1.4641017735299942E+01
             7.3119999999999727E+00    5.9339999999999780E+00    2.1042999999999914E+01
             5.8129999999999749E+00    7.4339999999999709E+00    2.2991999999999909E+01
             8.8129999999999633E+00    4.4339999999999842E+00    2.2991999999999909E+01
             5.8129999999999749E+00    4.4329999999999838E+00    2.2991999999999909E+01
             8.8129999999999633E+00    7.4339999999999709E+00    2.2991999999999909E+01
             1.4779999999999944E+00    1.4779999999999944E+00    2.5081999999999908E+01
             1.4779999999999944E+00    4.4329999999999838E+00    2.5081999999999908E+01
             1.4779999999999944E+00    7.3889999999999718E+00    2.5081999999999908E+01
             4.4339999999999842E+00    1.4779999999999944E+00    2.5081999999999908E+01
             4.4339999999999842E+00    4.4329999999999838E+00    2.5081999999999908E+01
             4.4339999999999842E+00    7.3889999999999718E+00    2.5081999999999908E+01
             7.1919999999999726E+00    1.4779999999999944E+00    2.5081999999999908E+01
             7.1919999999999726E+00    4.4329999999999838E+00    2.5081999999999908E+01
             7.1919999999999726E+00    7.3889999999999718E+00    2.5081999999999908E+01
             1.0147999999999962E+01    1.4779999999999944E+00    2.5081999999999908E+01
             1.0147999999999962E+01    4.4329999999999838E+00    2.5081999999999908E+01
             1.0147999999999962E+01    7.3889999999999718E+00    2.5081999999999908E+01
             1.3103999999999948E+01    1.4779999999999944E+00    2.5081999999999908E+01
             1.3103999999999948E+01    4.4329999999999838E+00    2.5081999999999908E+01
             1.3103999999999948E+01    7.3889999999999718E+00    2.5081999999999908E+01
             0.0000000000000000E+00    0.0000000000000000E+00    2.7171999999999905E+01
             0.0000000000000000E+00    2.9549999999999894E+00    2.7171999999999905E+01
             0.0000000000000000E+00    5.9109999999999774E+00    2.7171999999999905E+01
             2.9559999999999889E+00    0.0000000000000000E+00    2.7171999999999905E+01
             2.9559999999999889E+00    2.9549999999999894E+00    2.7171999999999905E+01
             2.9559999999999889E+00    5.9109999999999774E+00    2.7171999999999905E+01
             5.9119999999999777E+00    0.0000000000000000E+00    2.7171999999999905E+01
             5.9119999999999777E+00    2.9549999999999894E+00    2.7171999999999905E+01
             5.9119999999999777E+00    5.9109999999999774E+00    2.7171999999999905E+01
             8.6699999999999715E+00    0.0000000000000000E+00    2.7171999999999905E+01
             8.6699999999999715E+00    2.9549999999999894E+00    2.7171999999999905E+01
             8.6699999999999715E+00    5.9109999999999774E+00    2.7171999999999905E+01
             1.1625999999999950E+01    0.0000000000000000E+00    2.7171999999999905E+01
             1.1625999999999950E+01    2.9549999999999894E+00    2.7171999999999905E+01
             1.1625999999999950E+01    5.9109999999999774E+00    2.7171999999999905E+01
             1.4779999999999944E+00    1.4779999999999944E+00    2.9261999999999887E+01
             1.4779999999999944E+00    4.4329999999999838E+00    2.9261999999999887E+01
             1.4779999999999944E+00    7.3889999999999718E+00    2.9261999999999887E+01
             4.4339999999999842E+00    1.4779999999999944E+00    2.9261999999999887E+01
             4.4339999999999842E+00    4.4329999999999838E+00    2.9261999999999887E+01
             4.4339999999999842E+00    7.3889999999999718E+00    2.9261999999999887E+01
             7.1919999999999726E+00    1.4779999999999944E+00    2.9261999999999887E+01
             7.1919999999999726E+00    4.4329999999999838E+00    2.9261999999999887E+01
             7.1919999999999726E+00    7.3889999999999718E+00    2.9261999999999887E+01
             1.0147999999999962E+01    1.4779999999999944E+00    2.9261999999999887E+01
             1.0147999999999962E+01    4.4329999999999838E+00    2.9261999999999887E+01
             1.0147999999999962E+01    7.3889999999999718E+00    2.9261999999999887E+01
             1.3103999999999948E+01    1.4779999999999944E+00    2.9261999999999887E+01
             1.3103999999999948E+01    4.4329999999999838E+00    2.9261999999999887E+01
             1.3103999999999948E+01    7.3889999999999718E+00    2.9261999999999887E+01
             0.0000000000000000E+00    0.0000000000000000E+00    3.1351999999999887E+01
             0.0000000000000000E+00    2.9549999999999894E+00    3.1351999999999887E+01
             0.0000000000000000E+00    5.9109999999999774E+00    3.1351999999999887E+01
             2.9559999999999889E+00    0.0000000000000000E+00    3.1351999999999887E+01
             2.9559999999999889E+00    2.9549999999999894E+00    3.1351999999999887E+01
             2.9559999999999889E+00    5.9109999999999774E+00    3.1351999999999887E+01
             5.9119999999999777E+00    0.0000000000000000E+00    3.1351999999999887E+01
             5.9119999999999777E+00    2.9549999999999894E+00    3.1351999999999887E+01
             5.9119999999999777E+00    5.9109999999999774E+00    3.1351999999999887E+01
             8.6699999999999715E+00    0.0000000000000000E+00    3.1351999999999887E+01
             8.6699999999999715E+00    2.9549999999999894E+00    3.1351999999999887E+01
             8.6699999999999715E+00    5.9109999999999774E+00    3.1351999999999887E+01
             1.1625999999999950E+01    0.0000000000000000E+00    3.1351999999999887E+01
             1.1625999999999950E+01    2.9549999999999894E+00    3.1351999999999887E+01
             1.1625999999999950E+01    5.9109999999999774E+00    3.1351999999999887E+01
             1.4779999999999944E+00    1.4779999999999944E+00    3.3441999999999872E+01
             1.4779999999999944E+00    4.4329999999999838E+00    3.3441999999999872E+01
             1.4779999999999944E+00    7.3889999999999718E+00    3.3441999999999872E+01
             4.4339999999999842E+00    1.4779999999999944E+00    3.3441999999999872E+01
             4.4339999999999842E+00    4.4329999999999838E+00    3.3441999999999872E+01
             4.4339999999999842E+00    7.3889999999999718E+00    3.3441999999999872E+01
             7.1919999999999726E+00    1.4779999999999944E+00    3.3441999999999872E+01
             7.1919999999999726E+00    4.4329999999999838E+00    3.3441999999999872E+01
             7.1919999999999726E+00    7.3889999999999718E+00    3.3441999999999872E+01
             1.0147999999999962E+01    1.4779999999999944E+00    3.3441999999999872E+01
             1.0147999999999962E+01    4.4329999999999838E+00    3.3441999999999872E+01
             1.0147999999999962E+01    7.3889999999999718E+00    3.3441999999999872E+01
             1.3103999999999948E+01    1.4779999999999944E+00    3.3441999999999872E+01
             1.3103999999999948E+01    4.4329999999999838E+00    3.3441999999999872E+01
             1.3103999999999948E+01    7.3889999999999718E+00    3.3441999999999872E+01
       &END COORD
       &VELOCITY
             0.0000000000000000E+00    0.0000000000000000E+00    0.0000000000000000E+00
             0.0000000000000000E+00    0.0000000000000000E+00    0.0000000000000000E+00
             0.0000000000000000E+00    0.0000000000000000E+00    0.0000000000000000E+00
             0.0000000000000000E+00    0.0000000000000000E+00    0.0000000000000000E+00
             0.0000000000000000E+00    0.0000000000000000E+00    0.0000000000000000E+00
             0.0000000000000000E+00    0.0000000000000000E+00    0.0000000000000000E+00
             0.0000000000000000E+00    0.0000000000000000E+00    0.0000000000000000E+00
             0.0000000000000000E+00    0.0000000000000000E+00    0.0000000000000000E+00
             0.0000000000000000E+00    0.0000000000000000E+00    0.0000000000000000E+00
             0.0000000000000000E+00    0.0000000000000000E+00    0.0000000000000000E+00
             0.0000000000000000E+00    0.0000000000000000E+00    0.0000000000000000E+00
             0.0000000000000000E+00    0.0000000000000000E+00    0.0000000000000000E+00
             0.0000000000000000E+00    0.0000000000000000E+00    0.0000000000000000E+00
             0.0000000000000000E+00    0.0000000000000000E+00    0.0000000000000000E+00
             0.0000000000000000E+00    0.0000000000000000E+00    0.0000000000000000E+00
             0.0000000000000000E+00    0.0000000000000000E+00    0.0000000000000000E+00
             0.0000000000000000E+00    0.0000000000000000E+00    0.0000000000000000E+00
             0.0000000000000000E+00    0.0000000000000000E+00    0.0000000000000000E+00
             0.0000000000000000E+00    0.0000000000000000E+00    0.0000000000000000E+00
             0.0000000000000000E+00    0.0000000000000000E+00    0.0000000000000000E+00
             0.0000000000000000E+00    0.0000000000000000E+00    0.0000000000000000E+00
             0.0000000000000000E+00    0.0000000000000000E+00    0.0000000000000000E+00
             0.0000000000000000E+00    0.0000000000000000E+00    0.0000000000000000E+00
             0.0000000000000000E+00    0.0000000000000000E+00    0.0000000000000000E+00
             0.0000000000000000E+00    0.0000000000000000E+00    0.0000000000000000E+00
             0.0000000000000000E+00    0.0000000000000000E+00    0.0000000000000000E+00
             0.0000000000000000E+00    0.0000000000000000E+00    0.0000000000000000E+00
             0.0000000000000000E+00    0.0000000000000000E+00    0.0000000000000000E+00
             0.0000000000000000E+00    0.0000000000000000E+00    0.0000000000000000E+00
             0.0000000000000000E+00    0.0000000000000000E+00    0.0000000000000000E+00
             0.0000000000000000E+00    0.0000000000000000E+00    0.0000000000000000E+00
             0.0000000000000000E+00    0.0000000000000000E+00    0.0000000000000000E+00
             0.0000000000000000E+00    0.0000000000000000E+00    0.0000000000000000E+00
             0.0000000000000000E+00    0.0000000000000000E+00    0.0000000000000000E+00
             0.0000000000000000E+00    0.0000000000000000E+00    0.0000000000000000E+00
             0.0000000000000000E+00    0.0000000000000000E+00    0.0000000000000000E+00
             0.0000000000000000E+00    0.0000000000000000E+00    0.0000000000000000E+00
             0.0000000000000000E+00    0.0000000000000000E+00    0.0000000000000000E+00
             0.0000000000000000E+00    0.0000000000000000E+00    0.0000000000000000E+00
             0.0000000000000000E+00    0.0000000000000000E+00    0.0000000000000000E+00
             0.0000000000000000E+00    0.0000000000000000E+00    0.0000000000000000E+00
             0.0000000000000000E+00    0.0000000000000000E+00    0.0000000000000000E+00
             0.0000000000000000E+00    0.0000000000000000E+00    0.0000000000000000E+00
             0.0000000000000000E+00    0.0000000000000000E+00    0.0000000000000000E+00
             0.0000000000000000E+00    0.0000000000000000E+00    0.0000000000000000E+00
             0.0000000000000000E+00    0.0000000000000000E+00    0.0000000000000000E+00
             0.0000000000000000E+00    0.0000000000000000E+00    0.0000000000000000E+00
             0.0000000000000000E+00    0.0000000000000000E+00    0.0000000000000000E+00
             0.0000000000000000E+00    0.0000000000000000E+00    0.0000000000000000E+00
             0.0000000000000000E+00    0.0000000000000000E+00    0.0000000000000000E+00
             0.0000000000000000E+00    0.0000000000000000E+00    0.0000000000000000E+00
             0.0000000000000000E+00    0.0000000000000000E+00    0.0000000000000000E+00
             0.0000000000000000E+00    0.0000000000000000E+00    0.0000000000000000E+00
             0.0000000000000000E+00    0.0000000000000000E+00    0.0000000000000000E+00
             0.0000000000000000E+00    0.0000000000000000E+00    0.0000000000000000E+00
             0.0000000000000000E+00    0.0000000000000000E+00    0.0000000000000000E+00
             0.0000000000000000E+00    0.0000000000000000E+00    0.0000000000000000E+00
             0.0000000000000000E+00    0.0000000000000000E+00    0.0000000000000000E+00
             0.0000000000000000E+00    0.0000000000000000E+00    0.0000000000000000E+00
             0.0000000000000000E+00    0.0000000000000000E+00    0.0000000000000000E+00
             0.0000000000000000E+00    0.0000000000000000E+00    0.0000000000000000E+00
             0.0000000000000000E+00    0.0000000000000000E+00    0.0000000000000000E+00
             0.0000000000000000E+00    0.0000000000000000E+00    0.0000000000000000E+00
             0.0000000000000000E+00    0.0000000000000000E+00    0.0000000000000000E+00
             0.0000000000000000E+00    0.0000000000000000E+00    0.0000000000000000E+00
             0.0000000000000000E+00    0.0000000000000000E+00    0.0000000000000000E+00
             0.0000000000000000E+00    0.0000000000000000E+00    0.0000000000000000E+00
             0.0000000000000000E+00    0.0000000000000000E+00    0.0000000000000000E+00
             0.0000000000000000E+00    0.0000000000000000E+00    0.0000000000000000E+00
             0.0000000000000000E+00    0.0000000000000000E+00    0.0000000000000000E+00
             0.0000000000000000E+00    0.0000000000000000E+00    0.0000000000000000E+00
             0.0000000000000000E+00    0.0000000000000000E+00    0.0000000000000000E+00
             0.0000000000000000E+00    0.0000000000000000E+00    0.0000000000000000E+00
             0.0000000000000000E+00    0.0000000000000000E+00    0.0000000000000000E+00
             0.0000000000000000E+00    0.0000000000000000E+00    0.0000000000000000E+00
             0.0000000000000000E+00    0.0000000000000000E+00    0.0000000000000000E+00
             0.0000000000000000E+00    0.0000000000000000E+00    0.0000000000000000E+00
             0.0000000000000000E+00    0.0000000000000000E+00    0.0000000000000000E+00
             0.0000000000000000E+00    0.0000000000000000E+00    0.0000000000000000E+00
             0.0000000000000000E+00    0.0000000000000000E+00    0.0000000000000000E+00
             0.0000000000000000E+00    0.0000000000000000E+00    0.0000000000000000E+00
             0.0000000000000000E+00    0.0000000000000000E+00    0.0000000000000000E+00
             0.0000000000000000E+00    0.0000000000000000E+00    0.0000000000000000E+00
             0.0000000000000000E+00    0.0000000000000000E+00    0.0000000000000000E+00
             0.0000000000000000E+00    0.0000000000000000E+00    0.0000000000000000E+00
             0.0000000000000000E+00    0.0000000000000000E+00    0.0000000000000000E+00
             0.0000000000000000E+00    0.0000000000000000E+00    0.0000000000000000E+00
             0.0000000000000000E+00    0.0000000000000000E+00    0.0000000000000000E+00
             0.0000000000000000E+00    0.0000000000000000E+00    0.0000000000000000E+00
             0.0000000000000000E+00    0.0000000000000000E+00    0.0000000000000000E+00
             0.0000000000000000E+00    0.0000000000000000E+00    0.0000000000000000E+00
             0.0000000000000000E+00    0.0000000000000000E+00    0.0000000000000000E+00
             0.0000000000000000E+00    0.0000000000000000E+00    0.0000000000000000E+00
             0.0000000000000000E+00    0.0000000000000000E+00    0.0000000000000000E+00
             0.0000000000000000E+00    0.0000000000000000E+00    0.0000000000000000E+00
             0.0000000000000000E+00    0.0000000000000000E+00    0.0000000000000000E+00
             0.0000000000000000E+00    0.0000000000000000E+00    0.0000000000000000E+00
             0.0000000000000000E+00    0.0000000000000000E+00    0.0000000000000000E+00
             0.0000000000000000E+00    0.0000000000000000E+00    0.0000000000000000E+00
             0.0000000000000000E+00    0.0000000000000000E+00    0.0000000000000000E+00
             0.0000000000000000E+00    0.0000000000000000E+00    0.0000000000000000E+00
             0.0000000000000000E+00    0.0000000000000000E+00    0.0000000000000000E+00
             0.0000000000000000E+00    0.0000000000000000E+00    0.0000000000000000E+00
             0.0000000000000000E+00    0.0000000000000000E+00    0.0000000000000000E+00
             0.0000000000000000E+00    0.0000000000000000E+00    0.0000000000000000E+00
             0.0000000000000000E+00    0.0000000000000000E+00    0.0000000000000000E+00
             0.0000000000000000E+00    0.0000000000000000E+00    0.0000000000000000E+00
             0.0000000000000000E+00    0.0000000000000000E+00    0.0000000000000000E+00
             0.0000000000000000E+00    0.0000000000000000E+00    0.0000000000000000E+00
             0.0000000000000000E+00    0.0000000000000000E+00    0.0000000000000000E+00
             0.0000000000000000E+00    0.0000000000000000E+00    0.0000000000000000E+00
             0.0000000000000000E+00    0.0000000000000000E+00    0.0000000000000000E+00
             0.0000000000000000E+00    0.0000000000000000E+00    0.0000000000000000E+00
             0.0000000000000000E+00    0.0000000000000000E+00    0.0000000000000000E+00
             0.0000000000000000E+00    0.0000000000000000E+00    0.0000000000000000E+00
             0.0000000000000000E+00    0.0000000000000000E+00    0.0000000000000000E+00
             0.0000000000000000E+00    0.0000000000000000E+00    0.0000000000000000E+00
             0.0000000000000000E+00    0.0000000000000000E+00    0.0000000000000000E+00
             0.0000000000000000E+00    0.0000000000000000E+00    0.0000000000000000E+00
             0.0000000000000000E+00    0.0000000000000000E+00    0.0000000000000000E+00
             0.0000000000000000E+00    0.0000000000000000E+00    0.0000000000000000E+00
             0.0000000000000000E+00    0.0000000000000000E+00    0.0000000000000000E+00
             0.0000000000000000E+00    0.0000000000000000E+00    0.0000000000000000E+00
             0.0000000000000000E+00    0.0000000000000000E+00    0.0000000000000000E+00
             0.0000000000000000E+00    0.0000000000000000E+00    0.0000000000000000E+00
             0.0000000000000000E+00    0.0000000000000000E+00    0.0000000000000000E+00
             0.0000000000000000E+00    0.0000000000000000E+00    0.0000000000000000E+00
             0.0000000000000000E+00    0.0000000000000000E+00    0.0000000000000000E+00
             0.0000000000000000E+00    0.0000000000000000E+00    0.0000000000000000E+00
             0.0000000000000000E+00    0.0000000000000000E+00    0.0000000000000000E+00
             0.0000000000000000E+00    0.0000000000000000E+00    0.0000000000000000E+00
             0.0000000000000000E+00    0.0000000000000000E+00    0.0000000000000000E+00
             0.0000000000000000E+00    0.0000000000000000E+00    0.0000000000000000E+00
             0.0000000000000000E+00    0.0000000000000000E+00    0.0000000000000000E+00
             0.0000000000000000E+00    0.0000000000000000E+00    0.0000000000000000E+00
             0.0000000000000000E+00    0.0000000000000000E+00    0.0000000000000000E+00
             0.0000000000000000E+00    0.0000000000000000E+00    0.0000000000000000E+00
             0.0000000000000000E+00    0.0000000000000000E+00    0.0000000000000000E+00
             0.0000000000000000E+00    0.0000000000000000E+00    0.0000000000000000E+00
             0.0000000000000000E+00    0.0000000000000000E+00    0.0000000000000000E+00
             0.0000000000000000E+00    0.0000000000000000E+00    0.0000000000000000E+00
             0.0000000000000000E+00    0.0000000000000000E+00    0.0000000000000000E+00
             0.0000000000000000E+00    0.0000000000000000E+00    0.0000000000000000E+00
             0.0000000000000000E+00    0.0000000000000000E+00    0.0000000000000000E+00
             0.0000000000000000E+00    0.0000000000000000E+00    0.0000000000000000E+00