 # Version information for this restart file 
 # current date 2024-01-12 22:29:11.220
 # current working dir /gpfs/home/cahart/transport/melamine/au_from-h2/ci-neb/ts2-fixed/dft_leads-sz_tip-dzvp_surf-dzvp_kpoints-2-4-20_replicas-5
 # Program compiled at                              Thu 21 Sep 19:20:17 BST 2023
 # Program compiled on                                           hx1-c12-login-1
 # Program compiled for                                                    local
 # Source code revision number                                       git:5518aa6
 &GLOBAL
   EXTENDED_FFT_LENGTHS  T
   PRINT_LEVEL  MEDIUM
   PROJECT_NAME 2_dft_wfn-r-0
   OUTPUT_FILE_NAME 2_dft_wfn-r-0.out
   RUN_TYPE  BAND
 &END GLOBAL
 &MOTION
   &BAND
     NPROC_REP  64
     BAND_TYPE  CI-NEB
     NUMBER_OF_REPLICA  5
     K_SPRING     5.0000000000000003E-02
     &CI_NEB
       NSTEPS_IT  5
     &END CI_NEB
     &OPTIMIZE_BAND
       OPT_TYPE  DIIS
       &DIIS
         MAX_STEPS  1000
       &END DIIS
     &END OPTIMIZE_BAND
     &REPLICA
       &COORD
             0.0000000000000000E+00    0.0000000000000000E+00    0.0000000000000000E+00
             0.0000000000000000E+00    2.9549999999999863E+00    0.0000000000000000E+00
             0.0000000000000000E+00    5.9109999999999712E+00    0.0000000000000000E+00
             2.9559999999999858E+00    0.0000000000000000E+00    0.0000000000000000E+00
             2.9559999999999858E+00    2.9549999999999863E+00    0.0000000000000000E+00
             2.9559999999999858E+00    5.9109999999999712E+00    0.0000000000000000E+00
             5.9119999999999715E+00    0.0000000000000000E+00    0.0000000000000000E+00
             5.9119999999999715E+00    2.9549999999999863E+00    0.0000000000000000E+00
             5.9119999999999715E+00    5.9109999999999712E+00    0.0000000000000000E+00
             8.6699999999999626E+00    0.0000000000000000E+00    0.0000000000000000E+00
             8.6699999999999626E+00    2.9549999999999863E+00    0.0000000000000000E+00
             8.6699999999999626E+00    5.9109999999999712E+00    0.0000000000000000E+00
             1.1625999999999944E+01    0.0000000000000000E+00    0.0000000000000000E+00
             1.1625999999999944E+01    2.9549999999999863E+00    0.0000000000000000E+00
             1.1625999999999944E+01    5.9109999999999712E+00    0.0000000000000000E+00
             1.4779999999999929E+00    1.4779999999999929E+00    2.0899999999999896E+00
             1.4779999999999929E+00    4.4329999999999794E+00    2.0899999999999896E+00
             1.4779999999999929E+00    7.3889999999999638E+00    2.0899999999999896E+00
             4.4339999999999797E+00    1.4779999999999929E+00    2.0899999999999896E+00
             4.4339999999999797E+00    4.4329999999999794E+00    2.0899999999999896E+00
             4.4339999999999797E+00    7.3889999999999638E+00    2.0899999999999896E+00
             7.1919999999999638E+00    1.4779999999999929E+00    2.0899999999999896E+00
             7.1919999999999638E+00    4.4329999999999794E+00    2.0899999999999896E+00
             7.1919999999999638E+00    7.3889999999999638E+00    2.0899999999999896E+00
             1.0147999999999948E+01    1.4779999999999929E+00    2.0899999999999896E+00
             1.0147999999999948E+01    4.4329999999999794E+00    2.0899999999999896E+00
             1.0147999999999948E+01    7.3889999999999638E+00    2.0899999999999896E+00
             1.3103999999999930E+01    1.4779999999999929E+00    2.0899999999999896E+00
             1.3103999999999930E+01    4.4329999999999794E+00    2.0899999999999896E+00
             1.3103999999999930E+01    7.3889999999999638E+00    2.0899999999999896E+00
             0.0000000000000000E+00    0.0000000000000000E+00    4.1799999999999793E+00
             0.0000000000000000E+00    2.9549999999999863E+00    4.1799999999999793E+00
             0.0000000000000000E+00    5.9109999999999712E+00    4.1799999999999793E+00
             2.9559999999999858E+00    0.0000000000000000E+00    4.1799999999999793E+00
             2.9559999999999858E+00    2.9549999999999863E+00    4.1799999999999793E+00
             2.9559999999999858E+00    5.9109999999999712E+00    4.1799999999999793E+00
             5.9119999999999715E+00    0.0000000000000000E+00    4.1799999999999793E+00
             5.9119999999999715E+00    2.9549999999999863E+00    4.1799999999999793E+00
             5.9119999999999715E+00    5.9109999999999712E+00    4.1799999999999793E+00
             8.6699999999999626E+00    0.0000000000000000E+00    4.1799999999999793E+00
             8.6699999999999626E+00    2.9549999999999863E+00    4.1799999999999793E+00
             8.6699999999999626E+00    5.9109999999999712E+00    4.1799999999999793E+00
             1.1625999999999944E+01    0.0000000000000000E+00    4.1799999999999793E+00
             1.1625999999999944E+01    2.9549999999999863E+00    4.1799999999999793E+00
             1.1625999999999944E+01    5.9109999999999712E+00    4.1799999999999793E+00
             1.4779999999999929E+00    1.4779999999999929E+00    6.2699999999999676E+00
             1.4779999999999929E+00    4.4329999999999794E+00    6.2699999999999676E+00
             1.4779999999999929E+00    7.3889999999999638E+00    6.2699999999999676E+00
             4.4339999999999797E+00    1.4779999999999929E+00    6.2699999999999676E+00
             4.4339999999999797E+00    4.4329999999999794E+00    6.2699999999999676E+00
             4.4339999999999797E+00    7.3889999999999638E+00    6.2699999999999676E+00
             7.1919999999999638E+00    1.4779999999999929E+00    6.2699999999999676E+00
             7.1919999999999638E+00    4.4329999999999794E+00    6.2699999999999676E+00
             7.1919999999999638E+00    7.3889999999999638E+00    6.2699999999999676E+00
             1.0147999999999948E+01    1.4779999999999929E+00    6.2699999999999676E+00
             1.0147999999999948E+01    4.4329999999999794E+00    6.2699999999999676E+00
             1.0147999999999948E+01    7.3889999999999638E+00    6.2699999999999676E+00
             1.3103999999999930E+01    1.4779999999999929E+00    6.2699999999999676E+00
             1.3103999999999930E+01    4.4329999999999794E+00    6.2699999999999676E+00
             1.3103999999999930E+01    7.3889999999999638E+00    6.2699999999999676E+00
             0.0000000000000000E+00    0.0000000000000000E+00    8.3599999999999586E+00
             0.0000000000000000E+00    2.9549999999999863E+00    8.3599999999999586E+00
             0.0000000000000000E+00    5.9109999999999712E+00    8.3599999999999586E+00
             2.9559999999999858E+00    0.0000000000000000E+00    8.3599999999999586E+00
             2.9559999999999858E+00    2.9549999999999863E+00    8.3599999999999586E+00
             2.9559999999999858E+00    5.9109999999999712E+00    8.3599999999999586E+00
             5.9119999999999715E+00    0.0000000000000000E+00    8.3599999999999586E+00
             5.9119999999999715E+00    2.9549999999999863E+00    8.3599999999999586E+00
             5.9119999999999715E+00    5.9109999999999712E+00    8.3599999999999586E+00
             8.6699999999999626E+00    0.0000000000000000E+00    8.3599999999999586E+00
             8.6699999999999626E+00    2.9549999999999863E+00    8.3599999999999586E+00
             8.6699999999999626E+00    5.9109999999999712E+00    8.3599999999999586E+00
             1.1625999999999944E+01    0.0000000000000000E+00    8.3599999999999586E+00
             1.1625999999999944E+01    2.9549999999999863E+00    8.3599999999999586E+00
             1.1625999999999944E+01    5.9109999999999712E+00    8.3599999999999586E+00
             1.4779999999999929E+00    1.4779999999999929E+00    1.0449999999999950E+01
             1.4779999999999929E+00    4.4329999999999794E+00    1.0449999999999950E+01
             1.4779999999999929E+00    7.3889999999999638E+00    1.0449999999999950E+01
             4.4339999999999797E+00    1.4779999999999929E+00    1.0449999999999950E+01
             4.4339999999999797E+00    4.4329999999999794E+00    1.0449999999999950E+01
             4.4339999999999797E+00    7.3889999999999638E+00    1.0449999999999950E+01
             7.1919999999999638E+00    1.4779999999999929E+00    1.0449999999999950E+01
             7.1919999999999638E+00    4.4329999999999794E+00    1.0449999999999950E+01
             7.1919999999999638E+00    7.3889999999999638E+00    1.0449999999999950E+01
             1.0147999999999948E+01    1.4779999999999929E+00    1.0449999999999950E+01
             1.0147999999999948E+01    4.4329999999999794E+00    1.0449999999999950E+01
             1.0147999999999948E+01    7.3889999999999638E+00    1.0449999999999950E+01
             1.3103999999999930E+01    1.4779999999999929E+00    1.0449999999999950E+01
             1.3103999999999930E+01    4.4329999999999794E+00    1.0449999999999950E+01
             1.3103999999999930E+01    7.3889999999999638E+00    1.0449999999999950E+01
             4.8553999999999782E+00    5.9118999999999691E+00    1.2031799999999945E+01
             9.5279999999999578E+00    5.9136999999999702E+00    1.2033999999999947E+01
             7.1919999999999638E+00    5.9339999999999717E+00    1.2039999999999941E+01
             4.0673339927999814E+00    5.9059993219999747E+00    1.2687741368899935E+01
             1.0318905404799951E+01    5.9087793825999722E+00    1.2685747073199943E+01
             5.9989554221999724E+00    5.9152564165999717E+00    1.2792642411199937E+01
             8.3738707292999592E+00    5.9179777706999728E+00    1.2731457252199940E+01
             8.3227525761999583E+00    5.9051536094999717E+00    1.4080497642099939E+01
             5.9344285048999685E+00    5.8981604864999717E+00    1.4101749969599934E+01
             7.1039653576999671E+00    5.8899410688999705E+00    1.4828703219099934E+01
             7.2416021046999628E+00    5.8657702091999733E+00    1.6106466757299930E+01
             6.3118250322999705E+00    5.8547577070999708E+00    1.6539601306199923E+01
             9.1743570612999612E+00    5.8876302391999706E+00    1.4641017735299927E+01
             7.3119999999999647E+00    5.9339999999999717E+00    2.1042999999999893E+01
             5.8129999999999722E+00    7.4339999999999637E+00    2.2991999999999887E+01
             8.8129999999999526E+00    4.4339999999999797E+00    2.2991999999999887E+01
             5.8129999999999722E+00    4.4329999999999794E+00    2.2991999999999887E+01
             8.8129999999999526E+00    7.4339999999999637E+00    2.2991999999999887E+01
             1.4779999999999929E+00    1.4779999999999929E+00    2.5081999999999883E+01
             1.4779999999999929E+00    4.4329999999999794E+00    2.5081999999999883E+01
             1.4779999999999929E+00    7.3889999999999638E+00    2.5081999999999883E+01
             4.4339999999999797E+00    1.4779999999999929E+00    2.5081999999999883E+01
             4.4339999999999797E+00    4.4329999999999794E+00    2.5081999999999883E+01
             4.4339999999999797E+00    7.3889999999999638E+00    2.5081999999999883E+01
             7.1919999999999638E+00    1.4779999999999929E+00    2.5081999999999883E+01
             7.1919999999999638E+00    4.4329999999999794E+00    2.5081999999999883E+01
             7.1919999999999638E+00    7.3889999999999638E+00    2.5081999999999883E+01
             1.0147999999999948E+01    1.4779999999999929E+00    2.5081999999999883E+01
             1.0147999999999948E+01    4.4329999999999794E+00    2.5081999999999883E+01
             1.0147999999999948E+01    7.3889999999999638E+00    2.5081999999999883E+01
             1.3103999999999930E+01    1.4779999999999929E+00    2.5081999999999883E+01
             1.3103999999999930E+01    4.4329999999999794E+00    2.5081999999999883E+01
             1.3103999999999930E+01    7.3889999999999638E+00    2.5081999999999883E+01
             0.0000000000000000E+00    0.0000000000000000E+00    2.7171999999999876E+01
             0.0000000000000000E+00    2.9549999999999863E+00    2.7171999999999876E+01
             0.0000000000000000E+00    5.9109999999999712E+00    2.7171999999999876E+01
             2.9559999999999858E+00    0.0000000000000000E+00    2.7171999999999876E+01
             2.9559999999999858E+00    2.9549999999999863E+00    2.7171999999999876E+01
             2.9559999999999858E+00    5.9109999999999712E+00    2.7171999999999876E+01
             5.9119999999999715E+00    0.0000000000000000E+00    2.7171999999999876E+01
             5.9119999999999715E+00    2.9549999999999863E+00    2.7171999999999876E+01
             5.9119999999999715E+00    5.9109999999999712E+00    2.7171999999999876E+01
             8.6699999999999626E+00    0.0000000000000000E+00    2.7171999999999876E+01
             8.6699999999999626E+00    2.9549999999999863E+00    2.7171999999999876E+01
             8.6699999999999626E+00    5.9109999999999712E+00    2.7171999999999876E+01
             1.1625999999999944E+01    0.0000000000000000E+00    2.7171999999999876E+01
             1.1625999999999944E+01    2.9549999999999863E+00    2.7171999999999876E+01
             1.1625999999999944E+01    5.9109999999999712E+00    2.7171999999999876E+01
             1.4779999999999929E+00    1.4779999999999929E+00    2.9261999999999858E+01
             1.4779999999999929E+00    4.4329999999999794E+00    2.9261999999999858E+01
             1.4779999999999929E+00    7.3889999999999638E+00    2.9261999999999858E+01
             4.4339999999999797E+00    1.4779999999999929E+00    2.9261999999999858E+01
             4.4339999999999797E+00    4.4329999999999794E+00    2.9261999999999858E+01
             4.4339999999999797E+00    7.3889999999999638E+00    2.9261999999999858E+01
             7.1919999999999638E+00    1.4779999999999929E+00    2.9261999999999858E+01
             7.1919999999999638E+00    4.4329999999999794E+00    2.9261999999999858E+01
             7.1919999999999638E+00    7.3889999999999638E+00    2.9261999999999858E+01
             1.0147999999999948E+01    1.4779999999999929E+00    2.9261999999999858E+01
             1.0147999999999948E+01    4.4329999999999794E+00    2.9261999999999858E+01
             1.0147999999999948E+01    7.3889999999999638E+00    2.9261999999999858E+01
             1.3103999999999930E+01    1.4779999999999929E+00    2.9261999999999858E+01
             1.3103999999999930E+01    4.4329999999999794E+00    2.9261999999999858E+01
             1.3103999999999930E+01    7.3889999999999638E+00    2.9261999999999858E+01
             0.0000000000000000E+00    0.0000000000000000E+00    3.1351999999999848E+01
             0.0000000000000000E+00    2.9549999999999863E+00    3.1351999999999848E+01
             0.0000000000000000E+00    5.9109999999999712E+00    3.1351999999999848E+01
             2.9559999999999858E+00    0.0000000000000000E+00    3.1351999999999848E+01
             2.9559999999999858E+00    2.9549999999999863E+00    3.1351999999999848E+01
             2.9559999999999858E+00    5.9109999999999712E+00    3.1351999999999848E+01
             5.9119999999999715E+00    0.0000000000000000E+00    3.1351999999999848E+01
             5.9119999999999715E+00    2.9549999999999863E+00    3.1351999999999848E+01
             5.9119999999999715E+00    5.9109999999999712E+00    3.1351999999999848E+01
             8.6699999999999626E+00    0.0000000000000000E+00    3.1351999999999848E+01
             8.6699999999999626E+00    2.9549999999999863E+00    3.1351999999999848E+01
             8.6699999999999626E+00    5.9109999999999712E+00    3.1351999999999848E+01
             1.1625999999999944E+01    0.0000000000000000E+00    3.1351999999999848E+01
             1.1625999999999944E+01    2.9549999999999863E+00    3.1351999999999848E+01
             1.1625999999999944E+01    5.9109999999999712E+00    3.1351999999999848E+01
             1.4779999999999929E+00    1.4779999999999929E+00    3.3441999999999837E+01
             1.4779999999999929E+00    4.4329999999999794E+00    3.3441999999999837E+01
             1.4779999999999929E+00    7.3889999999999638E+00    3.3441999999999837E+01
             4.4339999999999797E+00    1.4779999999999929E+00    3.3441999999999837E+01
             4.4339999999999797E+00    4.4329999999999794E+00    3.3441999999999837E+01
             4.4339999999999797E+00    7.3889999999999638E+00    3.3441999999999837E+01
             7.1919999999999638E+00    1.4779999999999929E+00    3.3441999999999837E+01
             7.1919999999999638E+00    4.4329999999999794E+00    3.3441999999999837E+01
             7.1919999999999638E+00    7.3889999999999638E+00    3.3441999999999837E+01
             1.0147999999999948E+01    1.4779999999999929E+00    3.3441999999999837E+01
             1.0147999999999948E+01    4.4329999999999794E+00    3.3441999999999837E+01
             1.0147999999999948E+01    7.3889999999999638E+00    3.3441999999999837E+01
             1.3103999999999930E+01    1.4779999999999929E+00    3.3441999999999837E+01
             1.3103999999999930E+01    4.4329999999999794E+00    3.3441999999999837E+01
             1.3103999999999930E+01    7.3889999999999638E+00    3.3441999999999837E+01
       &END COORD
       &VELOCITY
             0.0000000000000000E+00    0.0000000000000000E+00    0.0000000000000000E+00
             0.0000000000000000E+00    0.0000000000000000E+00    0.0000000000000000E+00
             0.0000000000000000E+00    0.0000000000000000E+00    0.0000000000000000E+00
             0.0000000000000000E+00    0.0000000000000000E+00    0.0000000000000000E+00
             0.0000000000000000E+00    0.0000000000000000E+00    0.0000000000000000E+00
             0.0000000000000000E+00    0.0000000000000000E+00    0.0000000000000000E+00
             0.0000000000000000E+00    0.0000000000000000E+00    0.0000000000000000E+00
             0.0000000000000000E+00    0.0000000000000000E+00    0.0000000000000000E+00
             0.0000000000000000E+00    0.0000000000000000E+00    0.0000000000000000E+00
             0.0000000000000000E+00    0.0000000000000000E+00    0.0000000000000000E+00
             0.0000000000000000E+00    0.0000000000000000E+00    0.0000000000000000E+00
             0.0000000000000000E+00    0.0000000000000000E+00    0.0000000000000000E+00
             0.0000000000000000E+00    0.0000000000000000E+00    0.0000000000000000E+00
             0.0000000000000000E+00    0.0000000000000000E+00    0.0000000000000000E+00
             0.0000000000000000E+00    0.0000000000000000E+00    0.0000000000000000E+00
             0.0000000000000000E+00    0.0000000000000000E+00    0.0000000000000000E+00
             0.0000000000000000E+00    0.0000000000000000E+00    0.0000000000000000E+00
             0.0000000000000000E+00    0.0000000000000000E+00    0.0000000000000000E+00
             0.0000000000000000E+00    0.0000000000000000E+00    0.0000000000000000E+00
             0.0000000000000000E+00    0.0000000000000000E+00    0.0000000000000000E+00
             0.0000000000000000E+00    0.0000000000000000E+00    0.0000000000000000E+00
             0.0000000000000000E+00    0.0000000000000000E+00    0.0000000000000000E+00
             0.0000000000000000E+00    0.0000000000000000E+00    0.0000000000000000E+00
             0.0000000000000000E+00    0.0000000000000000E+00    0.0000000000000000E+00
             0.0000000000000000E+00    0.0000000000000000E+00    0.0000000000000000E+00
             0.0000000000000000E+00    0.0000000000000000E+00    0.0000000000000000E+00
             0.0000000000000000E+00    0.0000000000000000E+00    0.0000000000000000E+00
             0.0000000000000000E+00    0.0000000000000000E+00    0.0000000000000000E+00
             0.0000000000000000E+00    0.0000000000000000E+00    0.0000000000000000E+00
             0.0000000000000000E+00    0.0000000000000000E+00    0.0000000000000000E+00
             0.0000000000000000E+00    0.0000000000000000E+00    0.0000000000000000E+00
             0.0000000000000000E+00    0.0000000000000000E+00    0.0000000000000000E+00
             0.0000000000000000E+00    0.0000000000000000E+00    0.0000000000000000E+00
             0.0000000000000000E+00    0.0000000000000000E+00    0.0000000000000000E+00
             0.0000000000000000E+00    0.0000000000000000E+00    0.0000000000000000E+00
             0.0000000000000000E+00    0.0000000000000000E+00    0.0000000000000000E+00
             0.0000000000000000E+00    0.0000000000000000E+00    0.0000000000000000E+00
             0.0000000000000000E+00    0.0000000000000000E+00    0.0000000000000000E+00
             0.0000000000000000E+00    0.0000000000000000E+00    0.0000000000000000E+00
             0.0000000000000000E+00    0.0000000000000000E+00    0.0000000000000000E+00
             0.0000000000000000E+00    0.0000000000000000E+00    0.0000000000000000E+00
             0.0000000000000000E+00    0.0000000000000000E+00    0.0000000000000000E+00
             0.0000000000000000E+00    0.0000000000000000E+00    0.0000000000000000E+00
             0.0000000000000000E+00    0.0000000000000000E+00    0.0000000000000000E+00
             0.0000000000000000E+00    0.0000000000000000E+00    0.0000000000000000E+00
             0.0000000000000000E+00    0.0000000000000000E+00    0.0000000000000000E+00
             0.0000000000000000E+00    0.0000000000000000E+00    0.0000000000000000E+00
             0.0000000000000000E+00    0.0000000000000000E+00    0.0000000000000000E+00
             0.0000000000000000E+00    0.0000000000000000E+00    0.0000000000000000E+00
             0.0000000000000000E+00    0.0000000000000000E+00    0.0000000000000000E+00
             0.0000000000000000E+00    0.0000000000000000E+00    0.0000000000000000E+00
             0.0000000000000000E+00    0.0000000000000000E+00    0.0000000000000000E+00
             0.0000000000000000E+00    0.0000000000000000E+00    0.0000000000000000E+00
             0.0000000000000000E+00    0.0000000000000000E+00    0.0000000000000000E+00
             0.0000000000000000E+00    0.0000000000000000E+00    0.0000000000000000E+00
             0.0000000000000000E+00    0.0000000000000000E+00    0.0000000000000000E+00
             0.0000000000000000E+00    0.0000000000000000E+00    0.0000000000000000E+00
             0.0000000000000000E+00    0.0000000000000000E+00    0.0000000000000000E+00
             0.0000000000000000E+00    0.0000000000000000E+00    0.0000000000000000E+00
             0.0000000000000000E+00    0.0000000000000000E+00    0.0000000000000000E+00
             0.0000000000000000E+00    0.0000000000000000E+00    0.0000000000000000E+00
             0.0000000000000000E+00    0.0000000000000000E+00    0.0000000000000000E+00
             0.0000000000000000E+00    0.0000000000000000E+00    0.0000000000000000E+00
             0.0000000000000000E+00    0.0000000000000000E+00    0.0000000000000000E+00
             0.0000000000000000E+00    0.0000000000000000E+00    0.0000000000000000E+00
             0.0000000000000000E+00    0.0000000000000000E+00    0.0000000000000000E+00
             0.0000000000000000E+00    0.0000000000000000E+00    0.0000000000000000E+00
             0.0000000000000000E+00    0.0000000000000000E+00    0.0000000000000000E+00
             0.0000000000000000E+00    0.0000000000000000E+00    0.0000000000000000E+00
             0.0000000000000000E+00    0.0000000000000000E+00    0.0000000000000000E+00
             0.0000000000000000E+00    0.0000000000000000E+00    0.0000000000000000E+00
             0.0000000000000000E+00    0.0000000000000000E+00    0.0000000000000000E+00
             0.0000000000000000E+00    0.0000000000000000E+00    0.0000000000000000E+00
             0.0000000000000000E+00    0.0000000000000000E+00    0.0000000000000000E+00
             0.0000000000000000E+00    0.0000000000000000E+00    0.0000000000000000E+00
             0.0000000000000000E+00    0.0000000000000000E+00    0.0000000000000000E+00
             0.0000000000000000E+00    0.0000000000000000E+00    0.0000000000000000E+00
             0.0000000000000000E+00    0.0000000000000000E+00    0.0000000000000000E+00
             0.0000000000000000E+00    0.0000000000000000E+00    0.0000000000000000E+00
             0.0000000000000000E+00    0.0000000000000000E+00    0.0000000000000000E+00
             0.0000000000000000E+00    0.0000000000000000E+00    0.0000000000000000E+00
             0.0000000000000000E+00    0.0000000000000000E+00    0.0000000000000000E+00
             0.0000000000000000E+00    0.0000000000000000E+00    0.0000000000000000E+00
             0.0000000000000000E+00    0.0000000000000000E+00    0.0000000000000000E+00
             0.0000000000000000E+00    0.0000000000000000E+00    0.0000000000000000E+00
             0.0000000000000000E+00    0.0000000000000000E+00    0.0000000000000000E+00
             0.0000000000000000E+00    0.0000000000000000E+00    0.0000000000000000E+00
             0.0000000000000000E+00    0.0000000000000000E+00    0.0000000000000000E+00
             0.0000000000000000E+00    0.0000000000000000E+00    0.0000000000000000E+00
             0.0000000000000000E+00    0.0000000000000000E+00    0.0000000000000000E+00
             0.0000000000000000E+00    0.0000000000000000E+00    0.0000000000000000E+00
             0.0000000000000000E+00    0.0000000000000000E+00    0.0000000000000000E+00
             0.0000000000000000E+00    0.0000000000000000E+00    0.0000000000000000E+00
             0.0000000000000000E+00    0.0000000000000000E+00    0.0000000000000000E+00
             0.0000000000000000E+00    0.0000000000000000E+00    0.0000000000000000E+00
             0.0000000000000000E+00    0.0000000000000000E+00    0.0000000000000000E+00
             0.0000000000000000E+00    0.0000000000000000E+00    0.0000000000000000E+00
             0.0000000000000000E+00    0.0000000000000000E+00    0.0000000000000000E+00
             0.0000000000000000E+00    0.0000000000000000E+00    0.0000000000000000E+00
             0.0000000000000000E+00    0.0000000000000000E+00    0.0000000000000000E+00
             0.0000000000000000E+00    0.0000000000000000E+00    0.0000000000000000E+00
             0.0000000000000000E+00    0.0000000000000000E+00    0.0000000000000000E+00
             0.0000000000000000E+00    0.0000000000000000E+00    0.0000000000000000E+00
             0.0000000000000000E+00    0.0000000000000000E+00    0.0000000000000000E+00
             0.0000000000000000E+00    0.0000000000000000E+00    0.0000000000000000E+00
             0.0000000000000000E+00    0.0000000000000000E+00    0.0000000000000000E+00
             0.0000000000000000E+00    0.0000000000000000E+00    0.0000000000000000E+00
             0.0000000000000000E+00    0.0000000000000000E+00    0.0000000000000000E+00
             0.0000000000000000E+00    0.0000000000000000E+00    0.0000000000000000E+00
             0.0000000000000000E+00    0.0000000000000000E+00    0.0000000000000000E+00
             0.0000000000000000E+00    0.0000000000000000E+00    0.0000000000000000E+00
             0.0000000000000000E+00    0.0000000000000000E+00    0.0000000000000000E+00
             0.0000000000000000E+00    0.0000000000000000E+00    0.0000000000000000E+00
             0.0000000000000000E+00    0.0000000000000000E+00    0.0000000000000000E+00
             0.0000000000000000E+00    0.0000000000000000E+00    0.0000000000000000E+00
             0.0000000000000000E+00    0.0000000000000000E+00    0.0000000000000000E+00
             0.0000000000000000E+00    0.0000000000000000E+00    0.0000000000000000E+00
             0.0000000000000000E+00    0.0000000000000000E+00    0.0000000000000000E+00
             0.0000000000000000E+00    0.0000000000000000E+00    0.0000000000000000E+00
             0.0000000000000000E+00    0.0000000000000000E+00    0.0000000000000000E+00
             0.0000000000000000E+00    0.0000000000000000E+00    0.0000000000000000E+00
             0.0000000000000000E+00    0.0000000000000000E+00    0.0000000000000000E+00
             0.0000000000000000E+00    0.0000000000000000E+00    0.0000000000000000E+00
             0.0000000000000000E+00    0.0000000000000000E+00    0.0000000000000000E+00
             0.0000000000000000E+00    0.0000000000000000E+00    0.0000000000000000E+00
             0.0000000000000000E+00    0.0000000000000000E+00    0.0000000000000000E+00
             0.0000000000000000E+00    0.0000000000000000E+00    0.0000000000000000E+00
             0.0000000000000000E+00    0.0000000000000000E+00    0.0000000000000000E+00
             0.0000000000000000E+00    0.0000000000000000E+00    0.0000000000000000E+00
             0.0000000000000000E+00    0.0000000000000000E+00    0.0000000000000000E+00
             0.0000000000000000E+00    0.0000000000000000E+00    0.0000000000000000E+00
             0.0000000000000000E+00    0.0000000000000000E+00    0.0000000000000000E+00
             0.0000000000000000E+00    0.0000000000000000E+00    0.0000000000000000E+00
             0.0000000000000000E+00    0.0000000000000000E+00    0.0000000000000000E+00
             0.0000000000000000E+00    0.0000000000000000E+00    0.0000000000000000E+00
             0.0000000000000000E+00    0.0000000000000000E+00    0.0000000000000000E+00
             0.0000000000000000E+00    0.0000000000000000E+00    0.0000000000000000E+00
             0.0000000000000000E+00    0.0000000000000000E+00    0.0000000000000000E+00
             0.0000000000000000E+00    0.0000000000000000E+00    0.0000000000000000E+00
             0.0000000000000000E+00    0.0000000000000000E+00    0.0000000000000000E+00
             0.0000000000000000E+00    0.0000000000000000E+00    0.0000000000000000E+00
             0.0000000000000000E+00    0.0000000000000000E+00    0.0000000000000000E+00
             0.0000000000000000E+00    0.0000000000000000E+00    0.0000000000000000E+00
             0.0000000000000000E+00    0.0000000000000000E+00    0.0000000000000000E+00
             0.0000000000000000E+00    0.0000000000000000E+00    0.0000000000000000E+00