 # Version information for this restart file 
 # current date 2024-01-13 06:50:38.311
 # current working dir /gpfs/home/cahart/transport/melamine/au_from-h2/ci-neb/ts2-fixed/dft_leads-sz_tip-dzvp_surf-dzvp_kpoints-2-4-20_replicas-5
 # Program compiled at                              Thu 21 Sep 19:20:17 BST 2023
 # Program compiled on                                           hx1-c12-login-1
 # Program compiled for                                                    local
 # Source code revision number                                       git:5518aa6
 &GLOBAL
   EXTENDED_FFT_LENGTHS  T
   PRINT_LEVEL  MEDIUM
   PROJECT_NAME 2_dft_wfn-r-0
   OUTPUT_FILE_NAME 2_dft_wfn-r-0.out
   RUN_TYPE  BAND
 &END GLOBAL
 &MOTION
   &BAND
     NPROC_REP  64
     BAND_TYPE  CI-NEB
     NUMBER_OF_REPLICA  5
     K_SPRING     5.0000000000000003E-02
     &CI_NEB
       NSTEPS_IT  5
     &END CI_NEB
     &OPTIMIZE_BAND
       OPT_TYPE  DIIS
       &DIIS
         MAX_STEPS  1000
       &END DIIS
     &END OPTIMIZE_BAND
     &REPLICA
       &COORD
             0.0000000000000000E+00    0.0000000000000000E+00    0.0000000000000000E+00
             0.0000000000000000E+00    2.9549999999999903E+00    0.0000000000000000E+00
             0.0000000000000000E+00    5.9109999999999738E+00    0.0000000000000000E+00
             2.9559999999999804E+00    0.0000000000000000E+00    0.0000000000000000E+00
             2.9559999999999804E+00    2.9549999999999903E+00    0.0000000000000000E+00
             2.9559999999999804E+00    5.9109999999999738E+00    0.0000000000000000E+00
             5.9119999999999608E+00    0.0000000000000000E+00    0.0000000000000000E+00
             5.9119999999999608E+00    2.9549999999999903E+00    0.0000000000000000E+00
             5.9119999999999608E+00    5.9109999999999738E+00    0.0000000000000000E+00
             8.6699999999999573E+00    0.0000000000000000E+00    0.0000000000000000E+00
             8.6699999999999573E+00    2.9549999999999903E+00    0.0000000000000000E+00
             8.6699999999999573E+00    5.9109999999999738E+00    0.0000000000000000E+00
             1.1625999999999987E+01    0.0000000000000000E+00    0.0000000000000000E+00
             1.1625999999999987E+01    2.9549999999999903E+00    0.0000000000000000E+00
             1.1625999999999987E+01    5.9109999999999738E+00    0.0000000000000000E+00
             1.4779999999999902E+00    1.4779999999999902E+00    2.0899999999999843E+00
             1.4779999999999902E+00    4.4329999999999918E+00    2.0899999999999843E+00
             1.4779999999999902E+00    7.3889999999999540E+00    2.0899999999999843E+00
             4.4339999999999771E+00    1.4779999999999902E+00    2.0899999999999843E+00
             4.4339999999999771E+00    4.4329999999999918E+00    2.0899999999999843E+00
             4.4339999999999771E+00    7.3889999999999540E+00    2.0899999999999843E+00
             7.1919999999999424E+00    1.4779999999999902E+00    2.0899999999999843E+00
             7.1919999999999424E+00    4.4329999999999918E+00    2.0899999999999843E+00
             7.1919999999999424E+00    7.3889999999999540E+00    2.0899999999999843E+00
             1.0147999999999943E+01    1.4779999999999902E+00    2.0899999999999843E+00
             1.0147999999999943E+01    4.4329999999999918E+00    2.0899999999999843E+00
             1.0147999999999943E+01    7.3889999999999540E+00    2.0899999999999843E+00
             1.3103999999999946E+01    1.4779999999999902E+00    2.0899999999999843E+00
             1.3103999999999946E+01    4.4329999999999918E+00    2.0899999999999843E+00
             1.3103999999999946E+01    7.3889999999999540E+00    2.0899999999999843E+00
             0.0000000000000000E+00    0.0000000000000000E+00    4.1799999999999686E+00
             0.0000000000000000E+00    2.9549999999999903E+00    4.1799999999999686E+00
             0.0000000000000000E+00    5.9109999999999738E+00    4.1799999999999686E+00
             2.9559999999999804E+00    0.0000000000000000E+00    4.1799999999999686E+00
             2.9559999999999804E+00    2.9549999999999903E+00    4.1799999999999686E+00
             2.9559999999999804E+00    5.9109999999999738E+00    4.1799999999999686E+00
             5.9119999999999608E+00    0.0000000000000000E+00    4.1799999999999686E+00
             5.9119999999999608E+00    2.9549999999999903E+00    4.1799999999999686E+00
             5.9119999999999608E+00    5.9109999999999738E+00    4.1799999999999686E+00
             8.6699999999999573E+00    0.0000000000000000E+00    4.1799999999999686E+00
             8.6699999999999573E+00    2.9549999999999903E+00    4.1799999999999686E+00
             8.6699999999999573E+00    5.9109999999999738E+00    4.1799999999999686E+00
             1.1625999999999987E+01    0.0000000000000000E+00    4.1799999999999686E+00
             1.1625999999999987E+01    2.9549999999999903E+00    4.1799999999999686E+00
             1.1625999999999987E+01    5.9109999999999738E+00    4.1799999999999686E+00
             1.4779999999999902E+00    1.4779999999999902E+00    6.2699999999999596E+00
             1.4779999999999902E+00    4.4329999999999918E+00    6.2699999999999596E+00
             1.4779999999999902E+00    7.3889999999999540E+00    6.2699999999999596E+00
             4.4339999999999771E+00    1.4779999999999902E+00    6.2699999999999596E+00
             4.4339999999999771E+00    4.4329999999999918E+00    6.2699999999999596E+00
             4.4339999999999771E+00    7.3889999999999540E+00    6.2699999999999596E+00
             7.1919999999999424E+00    1.4779999999999902E+00    6.2699999999999596E+00
             7.1919999999999424E+00    4.4329999999999918E+00    6.2699999999999596E+00
             7.1919999999999424E+00    7.3889999999999540E+00    6.2699999999999596E+00
             1.0147999999999943E+01    1.4779999999999902E+00    6.2699999999999596E+00
             1.0147999999999943E+01    4.4329999999999918E+00    6.2699999999999596E+00
             1.0147999999999943E+01    7.3889999999999540E+00    6.2699999999999596E+00
             1.3103999999999946E+01    1.4779999999999902E+00    6.2699999999999596E+00
             1.3103999999999946E+01    4.4329999999999918E+00    6.2699999999999596E+00
             1.3103999999999946E+01    7.3889999999999540E+00    6.2699999999999596E+00
             0.0000000000000000E+00    0.0000000000000000E+00    8.3599999999999373E+00
             0.0000000000000000E+00    2.9549999999999903E+00    8.3599999999999373E+00
             0.0000000000000000E+00    5.9109999999999738E+00    8.3599999999999373E+00
             2.9559999999999804E+00    0.0000000000000000E+00    8.3599999999999373E+00
             2.9559999999999804E+00    2.9549999999999903E+00    8.3599999999999373E+00
             2.9559999999999804E+00    5.9109999999999738E+00    8.3599999999999373E+00
             5.9119999999999608E+00    0.0000000000000000E+00    8.3599999999999373E+00
             5.9119999999999608E+00    2.9549999999999903E+00    8.3599999999999373E+00
             5.9119999999999608E+00    5.9109999999999738E+00    8.3599999999999373E+00
             8.6699999999999573E+00    0.0000000000000000E+00    8.3599999999999373E+00
             8.6699999999999573E+00    2.9549999999999903E+00    8.3599999999999373E+00
             8.6699999999999573E+00    5.9109999999999738E+00    8.3599999999999373E+00
             1.1625999999999987E+01    0.0000000000000000E+00    8.3599999999999373E+00
             1.1625999999999987E+01    2.9549999999999903E+00    8.3599999999999373E+00
             1.1625999999999987E+01    5.9109999999999738E+00    8.3599999999999373E+00
             1.4779999999999902E+00    1.4779999999999902E+00    1.0449999999999964E+01
             1.4779999999999902E+00    4.4329999999999918E+00    1.0449999999999964E+01
             1.4779999999999902E+00    7.3889999999999540E+00    1.0449999999999964E+01
             4.4339999999999771E+00    1.4779999999999902E+00    1.0449999999999964E+01
             4.4339999999999771E+00    4.4329999999999918E+00    1.0449999999999964E+01
             4.4339999999999771E+00    7.3889999999999540E+00    1.0449999999999964E+01
             7.1919999999999424E+00    1.4779999999999902E+00    1.0449999999999964E+01
             7.1919999999999424E+00    4.4329999999999918E+00    1.0449999999999964E+01
             7.1919999999999424E+00    7.3889999999999540E+00    1.0449999999999964E+01
             1.0147999999999943E+01    1.4779999999999902E+00    1.0449999999999964E+01
             1.0147999999999943E+01    4.4329999999999918E+00    1.0449999999999964E+01
             1.0147999999999943E+01    7.3889999999999540E+00    1.0449999999999964E+01
             1.3103999999999946E+01    1.4779999999999902E+00    1.0449999999999964E+01
             1.3103999999999946E+01    4.4329999999999918E+00    1.0449999999999964E+01
             1.3103999999999946E+01    7.3889999999999540E+00    1.0449999999999964E+01
             4.8553999999999853E+00    5.9118999999999398E+00    1.2031799999999937E+01
             9.5279999999999312E+00    5.9136999999999666E+00    1.2033999999999933E+01
             7.1919999999999424E+00    5.9339999999999753E+00    1.2039999999999951E+01
             4.0673339927999947E+00    5.9059993219999702E+00    1.2687741368899943E+01
             1.0318905404799947E+01    5.9087793825999713E+00    1.2685747073199964E+01
             5.9989554221999555E+00    5.9152564165999841E+00    1.2792642411199903E+01
             8.3738707292999717E+00    5.9179777706999737E+00    1.2731457252199979E+01
             8.3227525761999246E+00    5.9051536094999726E+00    1.4080497642099916E+01
             5.9344285048999863E+00    5.8981604864999788E+00    1.4101749969599933E+01
             7.1039653576999608E+00    5.8899410688999563E+00    1.4828703219099909E+01
             7.2416021046999628E+00    5.8657702091999981E+00    1.6106466757299930E+01
             6.3118250322999572E+00    5.8547577070999761E+00    1.6539601306199927E+01
             9.1743570612999648E+00    5.8876302391999298E+00    1.4641017735299936E+01
             7.3119999999999692E+00    5.9339999999999753E+00    2.1042999999999964E+01
             5.8129999999999935E+00    7.4339999999999726E+00    2.2991999999999891E+01
             8.8129999999999775E+00    4.4339999999999771E+00    2.2991999999999891E+01
             5.8129999999999935E+00    4.4329999999999918E+00    2.2991999999999891E+01
             8.8129999999999775E+00    7.4339999999999726E+00    2.2991999999999891E+01
             1.4779999999999902E+00    1.4779999999999902E+00    2.5081999999999962E+01
             1.4779999999999902E+00    4.4329999999999918E+00    2.5081999999999962E+01
             1.4779999999999902E+00    7.3889999999999540E+00    2.5081999999999962E+01
             4.4339999999999771E+00    1.4779999999999902E+00    2.5081999999999962E+01
             4.4339999999999771E+00    4.4329999999999918E+00    2.5081999999999962E+01
             4.4339999999999771E+00    7.3889999999999540E+00    2.5081999999999962E+01
             7.1919999999999424E+00    1.4779999999999902E+00    2.5081999999999962E+01
             7.1919999999999424E+00    4.4329999999999918E+00    2.5081999999999962E+01
             7.1919999999999424E+00    7.3889999999999540E+00    2.5081999999999962E+01
             1.0147999999999943E+01    1.4779999999999902E+00    2.5081999999999962E+01
             1.0147999999999943E+01    4.4329999999999918E+00    2.5081999999999962E+01
             1.0147999999999943E+01    7.3889999999999540E+00    2.5081999999999962E+01
             1.3103999999999946E+01    1.4779999999999902E+00    2.5081999999999962E+01
             1.3103999999999946E+01    4.4329999999999918E+00    2.5081999999999962E+01
             1.3103999999999946E+01    7.3889999999999540E+00    2.5081999999999962E+01
             0.0000000000000000E+00    0.0000000000000000E+00    2.7171999999999873E+01
             0.0000000000000000E+00    2.9549999999999903E+00    2.7171999999999873E+01
             0.0000000000000000E+00    5.9109999999999738E+00    2.7171999999999873E+01
             2.9559999999999804E+00    0.0000000000000000E+00    2.7171999999999873E+01
             2.9559999999999804E+00    2.9549999999999903E+00    2.7171999999999873E+01
             2.9559999999999804E+00    5.9109999999999738E+00    2.7171999999999873E+01
             5.9119999999999608E+00    0.0000000000000000E+00    2.7171999999999873E+01
             5.9119999999999608E+00    2.9549999999999903E+00    2.7171999999999873E+01
             5.9119999999999608E+00    5.9109999999999738E+00    2.7171999999999873E+01
             8.6699999999999573E+00    0.0000000000000000E+00    2.7171999999999873E+01
             8.6699999999999573E+00    2.9549999999999903E+00    2.7171999999999873E+01
             8.6699999999999573E+00    5.9109999999999738E+00    2.7171999999999873E+01
             1.1625999999999987E+01    0.0000000000000000E+00    2.7171999999999873E+01
             1.1625999999999987E+01    2.9549999999999903E+00    2.7171999999999873E+01
             1.1625999999999987E+01    5.9109999999999738E+00    2.7171999999999873E+01
             1.4779999999999902E+00    1.4779999999999902E+00    2.9261999999999812E+01
             1.4779999999999902E+00    4.4329999999999918E+00    2.9261999999999812E+01
             1.4779999999999902E+00    7.3889999999999540E+00    2.9261999999999812E+01
             4.4339999999999771E+00    1.4779999999999902E+00    2.9261999999999812E+01
             4.4339999999999771E+00    4.4329999999999918E+00    2.9261999999999812E+01
             4.4339999999999771E+00    7.3889999999999540E+00    2.9261999999999812E+01
             7.1919999999999424E+00    1.4779999999999902E+00    2.9261999999999812E+01
             7.1919999999999424E+00    4.4329999999999918E+00    2.9261999999999812E+01
             7.1919999999999424E+00    7.3889999999999540E+00    2.9261999999999812E+01
             1.0147999999999943E+01    1.4779999999999902E+00    2.9261999999999812E+01
             1.0147999999999943E+01    4.4329999999999918E+00    2.9261999999999812E+01
             1.0147999999999943E+01    7.3889999999999540E+00    2.9261999999999812E+01
             1.3103999999999946E+01    1.4779999999999902E+00    2.9261999999999812E+01
             1.3103999999999946E+01    4.4329999999999918E+00    2.9261999999999812E+01
             1.3103999999999946E+01    7.3889999999999540E+00    2.9261999999999812E+01
             0.0000000000000000E+00    0.0000000000000000E+00    3.1351999999999780E+01
             0.0000000000000000E+00    2.9549999999999903E+00    3.1351999999999780E+01
             0.0000000000000000E+00    5.9109999999999738E+00    3.1351999999999780E+01
             2.9559999999999804E+00    0.0000000000000000E+00    3.1351999999999780E+01
             2.9559999999999804E+00    2.9549999999999903E+00    3.1351999999999780E+01
             2.9559999999999804E+00    5.9109999999999738E+00    3.1351999999999780E+01
             5.9119999999999608E+00    0.0000000000000000E+00    3.1351999999999780E+01
             5.9119999999999608E+00    2.9549999999999903E+00    3.1351999999999780E+01
             5.9119999999999608E+00    5.9109999999999738E+00    3.1351999999999780E+01
             8.6699999999999573E+00    0.0000000000000000E+00    3.1351999999999780E+01
             8.6699999999999573E+00    2.9549999999999903E+00    3.1351999999999780E+01
             8.6699999999999573E+00    5.9109999999999738E+00    3.1351999999999780E+01
             1.1625999999999987E+01    0.0000000000000000E+00    3.1351999999999780E+01
             1.1625999999999987E+01    2.9549999999999903E+00    3.1351999999999780E+01
             1.1625999999999987E+01    5.9109999999999738E+00    3.1351999999999780E+01
             1.4779999999999902E+00    1.4779999999999902E+00    3.3441999999999794E+01
             1.4779999999999902E+00    4.4329999999999918E+00    3.3441999999999794E+01
             1.4779999999999902E+00    7.3889999999999540E+00    3.3441999999999794E+01
             4.4339999999999771E+00    1.4779999999999902E+00    3.3441999999999794E+01
             4.4339999999999771E+00    4.4329999999999918E+00    3.3441999999999794E+01
             4.4339999999999771E+00    7.3889999999999540E+00    3.3441999999999794E+01
             7.1919999999999424E+00    1.4779999999999902E+00    3.3441999999999794E+01
             7.1919999999999424E+00    4.4329999999999918E+00    3.3441999999999794E+01
             7.1919999999999424E+00    7.3889999999999540E+00    3.3441999999999794E+01
             1.0147999999999943E+01    1.4779999999999902E+00    3.3441999999999794E+01
             1.0147999999999943E+01    4.4329999999999918E+00    3.3441999999999794E+01
             1.0147999999999943E+01    7.3889999999999540E+00    3.3441999999999794E+01
             1.3103999999999946E+01    1.4779999999999902E+00    3.3441999999999794E+01
             1.3103999999999946E+01    4.4329999999999918E+00    3.3441999999999794E+01
             1.3103999999999946E+01    7.3889999999999540E+00    3.3441999999999794E+01
       &END COORD
       &VELOCITY
             0.0000000000000000E+00    0.0000000000000000E+00    0.0000000000000000E+00
             0.0000000000000000E+00    0.0000000000000000E+00    0.0000000000000000E+00
             0.0000000000000000E+00    0.0000000000000000E+00    0.0000000000000000E+00
             0.0000000000000000E+00    0.0000000000000000E+00    0.0000000000000000E+00
             0.0000000000000000E+00    0.0000000000000000E+00    0.0000000000000000E+00
             0.0000000000000000E+00    0.0000000000000000E+00    0.0000000000000000E+00
             0.0000000000000000E+00    0.0000000000000000E+00    0.0000000000000000E+00
             0.0000000000000000E+00    0.0000000000000000E+00    0.0000000000000000E+00
             0.0000000000000000E+00    0.0000000000000000E+00    0.0000000000000000E+00
             0.0000000000000000E+00    0.0000000000000000E+00    0.0000000000000000E+00
             0.0000000000000000E+00    0.0000000000000000E+00    0.0000000000000000E+00
             0.0000000000000000E+00    0.0000000000000000E+00    0.0000000000000000E+00
             0.0000000000000000E+00    0.0000000000000000E+00    0.0000000000000000E+00
             0.0000000000000000E+00    0.0000000000000000E+00    0.0000000000000000E+00
             0.0000000000000000E+00    0.0000000000000000E+00    0.0000000000000000E+00
             0.0000000000000000E+00    0.0000000000000000E+00    0.0000000000000000E+00
             0.0000000000000000E+00    0.0000000000000000E+00    0.0000000000000000E+00
             0.0000000000000000E+00    0.0000000000000000E+00    0.0000000000000000E+00
             0.0000000000000000E+00    0.0000000000000000E+00    0.0000000000000000E+00
             0.0000000000000000E+00    0.0000000000000000E+00    0.0000000000000000E+00
             0.0000000000000000E+00    0.0000000000000000E+00    0.0000000000000000E+00
             0.0000000000000000E+00    0.0000000000000000E+00    0.0000000000000000E+00
             0.0000000000000000E+00    0.0000000000000000E+00    0.0000000000000000E+00
             0.0000000000000000E+00    0.0000000000000000E+00    0.0000000000000000E+00
             0.0000000000000000E+00    0.0000000000000000E+00    0.0000000000000000E+00
             0.0000000000000000E+00    0.0000000000000000E+00    0.0000000000000000E+00
             0.0000000000000000E+00    0.0000000000000000E+00    0.0000000000000000E+00
             0.0000000000000000E+00    0.0000000000000000E+00    0.0000000000000000E+00
             0.0000000000000000E+00    0.0000000000000000E+00    0.0000000000000000E+00
             0.0000000000000000E+00    0.0000000000000000E+00    0.0000000000000000E+00
             0.0000000000000000E+00    0.0000000000000000E+00    0.0000000000000000E+00
             0.0000000000000000E+00    0.0000000000000000E+00    0.0000000000000000E+00
             0.0000000000000000E+00    0.0000000000000000E+00    0.0000000000000000E+00
             0.0000000000000000E+00    0.0000000000000000E+00    0.0000000000000000E+00
             0.0000000000000000E+00    0.0000000000000000E+00    0.0000000000000000E+00
             0.0000000000000000E+00    0.0000000000000000E+00    0.0000000000000000E+00
             0.0000000000000000E+00    0.0000000000000000E+00    0.0000000000000000E+00
             0.0000000000000000E+00    0.0000000000000000E+00    0.0000000000000000E+00
             0.0000000000000000E+00    0.0000000000000000E+00    0.0000000000000000E+00
             0.0000000000000000E+00    0.0000000000000000E+00    0.0000000000000000E+00
             0.0000000000000000E+00    0.0000000000000000E+00    0.0000000000000000E+00
             0.0000000000000000E+00    0.0000000000000000E+00    0.0000000000000000E+00
             0.0000000000000000E+00    0.0000000000000000E+00    0.0000000000000000E+00
             0.0000000000000000E+00    0.0000000000000000E+00    0.0000000000000000E+00
             0.0000000000000000E+00    0.0000000000000000E+00    0.0000000000000000E+00
             0.0000000000000000E+00    0.0000000000000000E+00    0.0000000000000000E+00
             0.0000000000000000E+00    0.0000000000000000E+00    0.0000000000000000E+00
             0.0000000000000000E+00    0.0000000000000000E+00    0.0000000000000000E+00
             0.0000000000000000E+00    0.0000000000000000E+00    0.0000000000000000E+00
             0.0000000000000000E+00    0.0000000000000000E+00    0.0000000000000000E+00
             0.0000000000000000E+00    0.0000000000000000E+00    0.0000000000000000E+00
             0.0000000000000000E+00    0.0000000000000000E+00    0.0000000000000000E+00
             0.0000000000000000E+00    0.0000000000000000E+00    0.0000000000000000E+00
             0.0000000000000000E+00    0.0000000000000000E+00    0.0000000000000000E+00
             0.0000000000000000E+00    0.0000000000000000E+00    0.0000000000000000E+00
             0.0000000000000000E+00    0.0000000000000000E+00    0.0000000000000000E+00
             0.0000000000000000E+00    0.0000000000000000E+00    0.0000000000000000E+00
             0.0000000000000000E+00    0.0000000000000000E+00    0.0000000000000000E+00
             0.0000000000000000E+00    0.0000000000000000E+00    0.0000000000000000E+00
             0.0000000000000000E+00    0.0000000000000000E+00    0.0000000000000000E+00
             0.0000000000000000E+00    0.0000000000000000E+00    0.0000000000000000E+00
             0.0000000000000000E+00    0.0000000000000000E+00    0.0000000000000000E+00
             0.0000000000000000E+00    0.0000000000000000E+00    0.0000000000000000E+00
             0.0000000000000000E+00    0.0000000000000000E+00    0.0000000000000000E+00
             0.0000000000000000E+00    0.0000000000000000E+00    0.0000000000000000E+00
             0.0000000000000000E+00    0.0000000000000000E+00    0.0000000000000000E+00
             0.0000000000000000E+00    0.0000000000000000E+00    0.0000000000000000E+00
             0.0000000000000000E+00    0.0000000000000000E+00    0.0000000000000000E+00
             0.0000000000000000E+00    0.0000000000000000E+00    0.0000000000000000E+00
             0.0000000000000000E+00    0.0000000000000000E+00    0.0000000000000000E+00
             0.0000000000000000E+00    0.0000000000000000E+00    0.0000000000000000E+00
             0.0000000000000000E+00    0.0000000000000000E+00    0.0000000000000000E+00
             0.0000000000000000E+00    0.0000000000000000E+00    0.0000000000000000E+00
             0.0000000000000000E+00    0.0000000000000000E+00    0.0000000000000000E+00
             0.0000000000000000E+00    0.0000000000000000E+00    0.0000000000000000E+00
             0.0000000000000000E+00    0.0000000000000000E+00    0.0000000000000000E+00
             0.0000000000000000E+00    0.0000000000000000E+00    0.0000000000000000E+00
             0.0000000000000000E+00    0.0000000000000000E+00    0.0000000000000000E+00
             0.0000000000000000E+00    0.0000000000000000E+00    0.0000000000000000E+00
             0.0000000000000000E+00    0.0000000000000000E+00    0.0000000000000000E+00
             0.0000000000000000E+00    0.0000000000000000E+00    0.0000000000000000E+00
             0.0000000000000000E+00    0.0000000000000000E+00    0.0000000000000000E+00
             0.0000000000000000E+00    0.0000000000000000E+00    0.0000000000000000E+00
             0.0000000000000000E+00    0.0000000000000000E+00    0.0000000000000000E+00
             0.0000000000000000E+00    0.0000000000000000E+00    0.0000000000000000E+00
             0.0000000000000000E+00    0.0000000000000000E+00    0.0000000000000000E+00
             0.0000000000000000E+00    0.0000000000000000E+00    0.0000000000000000E+00
             0.0000000000000000E+00    0.0000000000000000E+00    0.0000000000000000E+00
             0.0000000000000000E+00    0.0000000000000000E+00    0.0000000000000000E+00
             0.0000000000000000E+00    0.0000000000000000E+00    0.0000000000000000E+00
             0.0000000000000000E+00    0.0000000000000000E+00    0.0000000000000000E+00
             0.0000000000000000E+00    0.0000000000000000E+00    0.0000000000000000E+00
             0.0000000000000000E+00    0.0000000000000000E+00    0.0000000000000000E+00
             0.0000000000000000E+00    0.0000000000000000E+00    0.0000000000000000E+00
             0.0000000000000000E+00    0.0000000000000000E+00    0.0000000000000000E+00
             0.0000000000000000E+00    0.0000000000000000E+00    0.0000000000000000E+00
             0.0000000000000000E+00    0.0000000000000000E+00    0.0000000000000000E+00
             0.0000000000000000E+00    0.0000000000000000E+00    0.0000000000000000E+00
             0.0000000000000000E+00    0.0000000000000000E+00    0.0000000000000000E+00
             0.0000000000000000E+00    0.0000000000000000E+00    0.0000000000000000E+00
             0.0000000000000000E+00    0.0000000000000000E+00    0.0000000000000000E+00
             0.0000000000000000E+00    0.0000000000000000E+00    0.0000000000000000E+00
             0.0000000000000000E+00    0.0000000000000000E+00    0.0000000000000000E+00
             0.0000000000000000E+00    0.0000000000000000E+00    0.0000000000000000E+00
             0.0000000000000000E+00    0.0000000000000000E+00    0.0000000000000000E+00
             0.0000000000000000E+00    0.0000000000000000E+00    0.0000000000000000E+00
             0.0000000000000000E+00    0.0000000000000000E+00    0.0000000000000000E+00
             0.0000000000000000E+00    0.0000000000000000E+00    0.0000000000000000E+00
             0.0000000000000000E+00    0.0000000000000000E+00    0.0000000000000000E+00
             0.0000000000000000E+00    0.0000000000000000E+00    0.0000000000000000E+00
             0.0000000000000000E+00    0.0000000000000000E+00    0.0000000000000000E+00
             0.0000000000000000E+00    0.0000000000000000E+00    0.0000000000000000E+00
             0.0000000000000000E+00    0.0000000000000000E+00    0.0000000000000000E+00
             0.0000000000000000E+00    0.0000000000000000E+00    0.0000000000000000E+00
             0.0000000000000000E+00    0.0000000000000000E+00    0.0000000000000000E+00
             0.0000000000000000E+00    0.0000000000000000E+00    0.0000000000000000E+00
             0.0000000000000000E+00    0.0000000000000000E+00    0.0000000000000000E+00
             0.0000000000000000E+00    0.0000000000000000E+00    0.0000000000000000E+00
             0.0000000000000000E+00    0.0000000000000000E+00    0.0000000000000000E+00
             0.0000000000000000E+00    0.0000000000000000E+00    0.0000000000000000E+00
             0.0000000000000000E+00    0.0000000000000000E+00    0.0000000000000000E+00
             0.0000000000000000E+00    0.0000000000000000E+00    0.0000000000000000E+00
             0.0000000000000000E+00    0.0000000000000000E+00    0.0000000000000000E+00
             0.0000000000000000E+00    0.0000000000000000E+00    0.0000000000000000E+00
             0.0000000000000000E+00    0.0000000000000000E+00    0.0000000000000000E+00
             0.0000000000000000E+00    0.0000000000000000E+00    0.0000000000000000E+00
             0.0000000000000000E+00    0.0000000000000000E+00    0.0000000000000000E+00
             0.0000000000000000E+00    0.0000000000000000E+00    0.0000000000000000E+00
             0.0000000000000000E+00    0.0000000000000000E+00    0.0000000000000000E+00
             0.0000000000000000E+00    0.0000000000000000E+00    0.0000000000000000E+00
             0.0000000000000000E+00    0.0000000000000000E+00    0.0000000000000000E+00
             0.0000000000000000E+00    0.0000000000000000E+00    0.0000000000000000E+00
             0.0000000000000000E+00    0.0000000000000000E+00    0.0000000000000000E+00
             0.0000000000000000E+00    0.0000000000000000E+00    0.0000000000000000E+00
             0.0000000000000000E+00    0.0000000000000000E+00    0.0000000000000000E+00
             0.0000000000000000E+00    0.0000000000000000E+00    0.0000000000000000E+00
             0.0000000000000000E+00    0.0000000000000000E+00    0.0000000000000000E+00
             0.0000000000000000E+00    0.0000000000000000E+00    0.0000000000000000E+00
             0.0000000000000000E+00    0.0000000000000000E+00    0.0000000000000000E+00
             0.0000000000000000E+00    0.0000000000000000E+00    0.0000000000000000E+00
             0.0000000000000000E+00    0.0000000000000000E+00    0.0000000000000000E+00
             0.0000000000000000E+00    0.0000000000000000E+00    0.0000000000000000E+00
             0.0000000000000000E+00    0.0000000000000000E+00    0.0000000000000000E+00
             0.0000000000000000E+00    0.0000000000000000E+00    0.0000000000000000E+00
             0.0000000000000000E+00    0.0000000000000000E+00    0.0000000000000000E+00