 # Version information for this restart file 
 # current date 2024-01-13 16:18:41.110
 # current working dir /gpfs/home/cahart/transport/melamine/au_from-h2/ci-neb/ts2-fixed/dft_leads-sz_tip-dzvp_surf-dzvp_kpoints-2-4-20_replicas-5
 # Program compiled at                              Thu 21 Sep 19:20:17 BST 2023
 # Program compiled on                                           hx1-c12-login-1
 # Program compiled for                                                    local
 # Source code revision number                                       git:5518aa6
 &GLOBAL
   EXTENDED_FFT_LENGTHS  T
   PRINT_LEVEL  MEDIUM
   PROJECT_NAME 2_dft_wfn-r-0
   OUTPUT_FILE_NAME 2_dft_wfn-r-0.out
   RUN_TYPE  BAND
 &END GLOBAL
 &MOTION
   &BAND
     NPROC_REP  64
     BAND_TYPE  CI-NEB
     NUMBER_OF_REPLICA  5
     K_SPRING     5.0000000000000003E-02
     &CI_NEB
       NSTEPS_IT  5
     &END CI_NEB
     &OPTIMIZE_BAND
       OPT_TYPE  DIIS
       &DIIS
         MAX_STEPS  1000
       &END DIIS
     &END OPTIMIZE_BAND
     &REPLICA
       &COORD
             0.0000000000000000E+00    0.0000000000000000E+00    0.0000000000000000E+00
             0.0000000000000000E+00    2.9549999999999881E+00    0.0000000000000000E+00
             0.0000000000000000E+00    5.9109999999999685E+00    0.0000000000000000E+00
             2.9559999999999800E+00    0.0000000000000000E+00    0.0000000000000000E+00
             2.9559999999999800E+00    2.9549999999999881E+00    0.0000000000000000E+00
             2.9559999999999800E+00    5.9109999999999685E+00    0.0000000000000000E+00
             5.9119999999999600E+00    0.0000000000000000E+00    0.0000000000000000E+00
             5.9119999999999600E+00    2.9549999999999881E+00    0.0000000000000000E+00
             5.9119999999999600E+00    5.9109999999999685E+00    0.0000000000000000E+00
             8.6699999999999449E+00    0.0000000000000000E+00    0.0000000000000000E+00
             8.6699999999999449E+00    2.9549999999999881E+00    0.0000000000000000E+00
             8.6699999999999449E+00    5.9109999999999685E+00    0.0000000000000000E+00
             1.1625999999999978E+01    0.0000000000000000E+00    0.0000000000000000E+00
             1.1625999999999978E+01    2.9549999999999881E+00    0.0000000000000000E+00
             1.1625999999999978E+01    5.9109999999999685E+00    0.0000000000000000E+00
             1.4779999999999900E+00    1.4779999999999900E+00    2.0899999999999852E+00
             1.4779999999999900E+00    4.4329999999999918E+00    2.0899999999999852E+00
             1.4779999999999900E+00    7.3889999999999487E+00    2.0899999999999852E+00
             4.4339999999999806E+00    1.4779999999999900E+00    2.0899999999999852E+00
             4.4339999999999806E+00    4.4329999999999918E+00    2.0899999999999852E+00
             4.4339999999999806E+00    7.3889999999999487E+00    2.0899999999999852E+00
             7.1919999999999380E+00    1.4779999999999900E+00    2.0899999999999852E+00
             7.1919999999999380E+00    4.4329999999999918E+00    2.0899999999999852E+00
             7.1919999999999380E+00    7.3889999999999487E+00    2.0899999999999852E+00
             1.0147999999999946E+01    1.4779999999999900E+00    2.0899999999999852E+00
             1.0147999999999946E+01    4.4329999999999918E+00    2.0899999999999852E+00
             1.0147999999999946E+01    7.3889999999999487E+00    2.0899999999999852E+00
             1.3103999999999935E+01    1.4779999999999900E+00    2.0899999999999852E+00
             1.3103999999999935E+01    4.4329999999999918E+00    2.0899999999999852E+00
             1.3103999999999935E+01    7.3889999999999487E+00    2.0899999999999852E+00
             0.0000000000000000E+00    0.0000000000000000E+00    4.1799999999999704E+00
             0.0000000000000000E+00    2.9549999999999881E+00    4.1799999999999704E+00
             0.0000000000000000E+00    5.9109999999999685E+00    4.1799999999999704E+00
             2.9559999999999800E+00    0.0000000000000000E+00    4.1799999999999704E+00
             2.9559999999999800E+00    2.9549999999999881E+00    4.1799999999999704E+00
             2.9559999999999800E+00    5.9109999999999685E+00    4.1799999999999704E+00
             5.9119999999999600E+00    0.0000000000000000E+00    4.1799999999999704E+00
             5.9119999999999600E+00    2.9549999999999881E+00    4.1799999999999704E+00
             5.9119999999999600E+00    5.9109999999999685E+00    4.1799999999999704E+00
             8.6699999999999449E+00    0.0000000000000000E+00    4.1799999999999704E+00
             8.6699999999999449E+00    2.9549999999999881E+00    4.1799999999999704E+00
             8.6699999999999449E+00    5.9109999999999685E+00    4.1799999999999704E+00
             1.1625999999999978E+01    0.0000000000000000E+00    4.1799999999999704E+00
             1.1625999999999978E+01    2.9549999999999881E+00    4.1799999999999704E+00
             1.1625999999999978E+01    5.9109999999999685E+00    4.1799999999999704E+00
             1.4779999999999900E+00    1.4779999999999900E+00    6.2699999999999623E+00
             1.4779999999999900E+00    4.4329999999999918E+00    6.2699999999999623E+00
             1.4779999999999900E+00    7.3889999999999487E+00    6.2699999999999623E+00
             4.4339999999999806E+00    1.4779999999999900E+00    6.2699999999999623E+00
             4.4339999999999806E+00    4.4329999999999918E+00    6.2699999999999623E+00
             4.4339999999999806E+00    7.3889999999999487E+00    6.2699999999999623E+00
             7.1919999999999380E+00    1.4779999999999900E+00    6.2699999999999623E+00
             7.1919999999999380E+00    4.4329999999999918E+00    6.2699999999999623E+00
             7.1919999999999380E+00    7.3889999999999487E+00    6.2699999999999623E+00
             1.0147999999999946E+01    1.4779999999999900E+00    6.2699999999999623E+00
             1.0147999999999946E+01    4.4329999999999918E+00    6.2699999999999623E+00
             1.0147999999999946E+01    7.3889999999999487E+00    6.2699999999999623E+00
             1.3103999999999935E+01    1.4779999999999900E+00    6.2699999999999623E+00
             1.3103999999999935E+01    4.4329999999999918E+00    6.2699999999999623E+00
             1.3103999999999935E+01    7.3889999999999487E+00    6.2699999999999623E+00
             0.0000000000000000E+00    0.0000000000000000E+00    8.3599999999999408E+00
             0.0000000000000000E+00    2.9549999999999881E+00    8.3599999999999408E+00
             0.0000000000000000E+00    5.9109999999999685E+00    8.3599999999999408E+00
             2.9559999999999800E+00    0.0000000000000000E+00    8.3599999999999408E+00
             2.9559999999999800E+00    2.9549999999999881E+00    8.3599999999999408E+00
             2.9559999999999800E+00    5.9109999999999685E+00    8.3599999999999408E+00
             5.9119999999999600E+00    0.0000000000000000E+00    8.3599999999999408E+00
             5.9119999999999600E+00    2.9549999999999881E+00    8.3599999999999408E+00
             5.9119999999999600E+00    5.9109999999999685E+00    8.3599999999999408E+00
             8.6699999999999449E+00    0.0000000000000000E+00    8.3599999999999408E+00
             8.6699999999999449E+00    2.9549999999999881E+00    8.3599999999999408E+00
             8.6699999999999449E+00    5.9109999999999685E+00    8.3599999999999408E+00
             1.1625999999999978E+01    0.0000000000000000E+00    8.3599999999999408E+00
             1.1625999999999978E+01    2.9549999999999881E+00    8.3599999999999408E+00
             1.1625999999999978E+01    5.9109999999999685E+00    8.3599999999999408E+00
             1.4779999999999900E+00    1.4779999999999900E+00    1.0449999999999964E+01
             1.4779999999999900E+00    4.4329999999999918E+00    1.0449999999999964E+01
             1.4779999999999900E+00    7.3889999999999487E+00    1.0449999999999964E+01
             4.4339999999999806E+00    1.4779999999999900E+00    1.0449999999999964E+01
             4.4339999999999806E+00    4.4329999999999918E+00    1.0449999999999964E+01
             4.4339999999999806E+00    7.3889999999999487E+00    1.0449999999999964E+01
             7.1919999999999380E+00    1.4779999999999900E+00    1.0449999999999964E+01
             7.1919999999999380E+00    4.4329999999999918E+00    1.0449999999999964E+01
             7.1919999999999380E+00    7.3889999999999487E+00    1.0449999999999964E+01
             1.0147999999999946E+01    1.4779999999999900E+00    1.0449999999999964E+01
             1.0147999999999946E+01    4.4329999999999918E+00    1.0449999999999964E+01
             1.0147999999999946E+01    7.3889999999999487E+00    1.0449999999999964E+01
             1.3103999999999935E+01    1.4779999999999900E+00    1.0449999999999964E+01
             1.3103999999999935E+01    4.4329999999999918E+00    1.0449999999999964E+01
             1.3103999999999935E+01    7.3889999999999487E+00    1.0449999999999964E+01
             4.8553999999999817E+00    5.9118999999999371E+00    1.2031799999999924E+01
             9.5279999999999347E+00    5.9136999999999658E+00    1.2033999999999933E+01
             7.1919999999999380E+00    5.9339999999999735E+00    1.2039999999999946E+01
             4.0673339927999992E+00    5.9059993219999765E+00    1.2687741368899943E+01
             1.0318905404799949E+01    5.9087793825999686E+00    1.2685747073199964E+01
             5.9989554221999537E+00    5.9152564165999832E+00    1.2792642411199902E+01
             8.3738707292999681E+00    5.9179777706999728E+00    1.2731457252199981E+01
             8.3227525761999246E+00    5.9051536094999779E+00    1.4080497642099935E+01
             5.9344285048999845E+00    5.8981604864999797E+00    1.4101749969599947E+01
             7.1039653576999608E+00    5.8899410688999518E+00    1.4828703219099898E+01
             7.2416021046999646E+00    5.8657702091999946E+00    1.6106466757299927E+01
             6.3118250322999554E+00    5.8547577070999814E+00    1.6539601306199927E+01
             9.1743570612999648E+00    5.8876302391999316E+00    1.4641017735299933E+01
             7.3119999999999656E+00    5.9339999999999735E+00    2.1042999999999974E+01
             5.8129999999999891E+00    7.4339999999999717E+00    2.2991999999999877E+01
             8.8129999999999669E+00    4.4339999999999806E+00    2.2991999999999877E+01
             5.8129999999999891E+00    4.4329999999999918E+00    2.2991999999999877E+01
             8.8129999999999669E+00    7.4339999999999717E+00    2.2991999999999877E+01
             1.4779999999999900E+00    1.4779999999999900E+00    2.5081999999999962E+01
             1.4779999999999900E+00    4.4329999999999918E+00    2.5081999999999962E+01
             1.4779999999999900E+00    7.3889999999999487E+00    2.5081999999999962E+01
             4.4339999999999806E+00    1.4779999999999900E+00    2.5081999999999962E+01
             4.4339999999999806E+00    4.4329999999999918E+00    2.5081999999999962E+01
             4.4339999999999806E+00    7.3889999999999487E+00    2.5081999999999962E+01
             7.1919999999999380E+00    1.4779999999999900E+00    2.5081999999999962E+01
             7.1919999999999380E+00    4.4329999999999918E+00    2.5081999999999962E+01
             7.1919999999999380E+00    7.3889999999999487E+00    2.5081999999999962E+01
             1.0147999999999946E+01    1.4779999999999900E+00    2.5081999999999962E+01
             1.0147999999999946E+01    4.4329999999999918E+00    2.5081999999999962E+01
             1.0147999999999946E+01    7.3889999999999487E+00    2.5081999999999962E+01
             1.3103999999999935E+01    1.4779999999999900E+00    2.5081999999999962E+01
             1.3103999999999935E+01    4.4329999999999918E+00    2.5081999999999962E+01
             1.3103999999999935E+01    7.3889999999999487E+00    2.5081999999999962E+01
             0.0000000000000000E+00    0.0000000000000000E+00    2.7171999999999858E+01
             0.0000000000000000E+00    2.9549999999999881E+00    2.7171999999999858E+01
             0.0000000000000000E+00    5.9109999999999685E+00    2.7171999999999858E+01
             2.9559999999999800E+00    0.0000000000000000E+00    2.7171999999999858E+01
             2.9559999999999800E+00    2.9549999999999881E+00    2.7171999999999858E+01
             2.9559999999999800E+00    5.9109999999999685E+00    2.7171999999999858E+01
             5.9119999999999600E+00    0.0000000000000000E+00    2.7171999999999858E+01
             5.9119999999999600E+00    2.9549999999999881E+00    2.7171999999999858E+01
             5.9119999999999600E+00    5.9109999999999685E+00    2.7171999999999858E+01
             8.6699999999999449E+00    0.0000000000000000E+00    2.7171999999999858E+01
             8.6699999999999449E+00    2.9549999999999881E+00    2.7171999999999858E+01
             8.6699999999999449E+00    5.9109999999999685E+00    2.7171999999999858E+01
             1.1625999999999978E+01    0.0000000000000000E+00    2.7171999999999858E+01
             1.1625999999999978E+01    2.9549999999999881E+00    2.7171999999999858E+01
             1.1625999999999978E+01    5.9109999999999685E+00    2.7171999999999858E+01
             1.4779999999999900E+00    1.4779999999999900E+00    2.9261999999999826E+01
             1.4779999999999900E+00    4.4329999999999918E+00    2.9261999999999826E+01
             1.4779999999999900E+00    7.3889999999999487E+00    2.9261999999999826E+01
             4.4339999999999806E+00    1.4779999999999900E+00    2.9261999999999826E+01
             4.4339999999999806E+00    4.4329999999999918E+00    2.9261999999999826E+01
             4.4339999999999806E+00    7.3889999999999487E+00    2.9261999999999826E+01
             7.1919999999999380E+00    1.4779999999999900E+00    2.9261999999999826E+01
             7.1919999999999380E+00    4.4329999999999918E+00    2.9261999999999826E+01
             7.1919999999999380E+00    7.3889999999999487E+00    2.9261999999999826E+01
             1.0147999999999946E+01    1.4779999999999900E+00    2.9261999999999826E+01
             1.0147999999999946E+01    4.4329999999999918E+00    2.9261999999999826E+01
             1.0147999999999946E+01    7.3889999999999487E+00    2.9261999999999826E+01
             1.3103999999999935E+01    1.4779999999999900E+00    2.9261999999999826E+01
             1.3103999999999935E+01    4.4329999999999918E+00    2.9261999999999826E+01
             1.3103999999999935E+01    7.3889999999999487E+00    2.9261999999999826E+01
             0.0000000000000000E+00    0.0000000000000000E+00    3.1351999999999787E+01
             0.0000000000000000E+00    2.9549999999999881E+00    3.1351999999999787E+01
             0.0000000000000000E+00    5.9109999999999685E+00    3.1351999999999787E+01
             2.9559999999999800E+00    0.0000000000000000E+00    3.1351999999999787E+01
             2.9559999999999800E+00    2.9549999999999881E+00    3.1351999999999787E+01
             2.9559999999999800E+00    5.9109999999999685E+00    3.1351999999999787E+01
             5.9119999999999600E+00    0.0000000000000000E+00    3.1351999999999787E+01
             5.9119999999999600E+00    2.9549999999999881E+00    3.1351999999999787E+01
             5.9119999999999600E+00    5.9109999999999685E+00    3.1351999999999787E+01
             8.6699999999999449E+00    0.0000000000000000E+00    3.1351999999999787E+01
             8.6699999999999449E+00    2.9549999999999881E+00    3.1351999999999787E+01
             8.6699999999999449E+00    5.9109999999999685E+00    3.1351999999999787E+01
             1.1625999999999978E+01    0.0000000000000000E+00    3.1351999999999787E+01
             1.1625999999999978E+01    2.9549999999999881E+00    3.1351999999999787E+01
             1.1625999999999978E+01    5.9109999999999685E+00    3.1351999999999787E+01
             1.4779999999999900E+00    1.4779999999999900E+00    3.3441999999999823E+01
             1.4779999999999900E+00    4.4329999999999918E+00    3.3441999999999823E+01
             1.4779999999999900E+00    7.3889999999999487E+00    3.3441999999999823E+01
             4.4339999999999806E+00    1.4779999999999900E+00    3.3441999999999823E+01
             4.4339999999999806E+00    4.4329999999999918E+00    3.3441999999999823E+01
             4.4339999999999806E+00    7.3889999999999487E+00    3.3441999999999823E+01
             7.1919999999999380E+00    1.4779999999999900E+00    3.3441999999999823E+01
             7.1919999999999380E+00    4.4329999999999918E+00    3.3441999999999823E+01
             7.1919999999999380E+00    7.3889999999999487E+00    3.3441999999999823E+01
             1.0147999999999946E+01    1.4779999999999900E+00    3.3441999999999823E+01
             1.0147999999999946E+01    4.4329999999999918E+00    3.3441999999999823E+01
             1.0147999999999946E+01    7.3889999999999487E+00    3.3441999999999823E+01
             1.3103999999999935E+01    1.4779999999999900E+00    3.3441999999999823E+01
             1.3103999999999935E+01    4.4329999999999918E+00    3.3441999999999823E+01
             1.3103999999999935E+01    7.3889999999999487E+00    3.3441999999999823E+01
       &END COORD
       &VELOCITY
             0.0000000000000000E+00    0.0000000000000000E+00    0.0000000000000000E+00
             0.0000000000000000E+00    0.0000000000000000E+00    0.0000000000000000E+00
             0.0000000000000000E+00    0.0000000000000000E+00    0.0000000000000000E+00
             0.0000000000000000E+00    0.0000000000000000E+00    0.0000000000000000E+00
             0.0000000000000000E+00    0.0000000000000000E+00    0.0000000000000000E+00
             0.0000000000000000E+00    0.0000000000000000E+00    0.0000000000000000E+00
             0.0000000000000000E+00    0.0000000000000000E+00    0.0000000000000000E+00
             0.0000000000000000E+00    0.0000000000000000E+00    0.0000000000000000E+00
             0.0000000000000000E+00    0.0000000000000000E+00    0.0000000000000000E+00
             0.0000000000000000E+00    0.0000000000000000E+00    0.0000000000000000E+00
             0.0000000000000000E+00    0.0000000000000000E+00    0.0000000000000000E+00
             0.0000000000000000E+00    0.0000000000000000E+00    0.0000000000000000E+00
             0.0000000000000000E+00    0.0000000000000000E+00    0.0000000000000000E+00
             0.0000000000000000E+00    0.0000000000000000E+00    0.0000000000000000E+00
             0.0000000000000000E+00    0.0000000000000000E+00    0.0000000000000000E+00
             0.0000000000000000E+00    0.0000000000000000E+00    0.0000000000000000E+00
             0.0000000000000000E+00    0.0000000000000000E+00    0.0000000000000000E+00
             0.0000000000000000E+00    0.0000000000000000E+00    0.0000000000000000E+00
             0.0000000000000000E+00    0.0000000000000000E+00    0.0000000000000000E+00
             0.0000000000000000E+00    0.0000000000000000E+00    0.0000000000000000E+00
             0.0000000000000000E+00    0.0000000000000000E+00    0.0000000000000000E+00
             0.0000000000000000E+00    0.0000000000000000E+00    0.0000000000000000E+00
             0.0000000000000000E+00    0.0000000000000000E+00    0.0000000000000000E+00
             0.0000000000000000E+00    0.0000000000000000E+00    0.0000000000000000E+00
             0.0000000000000000E+00    0.0000000000000000E+00    0.0000000000000000E+00
             0.0000000000000000E+00    0.0000000000000000E+00    0.0000000000000000E+00
             0.0000000000000000E+00    0.0000000000000000E+00    0.0000000000000000E+00
             0.0000000000000000E+00    0.0000000000000000E+00    0.0000000000000000E+00
             0.0000000000000000E+00    0.0000000000000000E+00    0.0000000000000000E+00
             0.0000000000000000E+00    0.0000000000000000E+00    0.0000000000000000E+00
             0.0000000000000000E+00    0.0000000000000000E+00    0.0000000000000000E+00
             0.0000000000000000E+00    0.0000000000000000E+00    0.0000000000000000E+00
             0.0000000000000000E+00    0.0000000000000000E+00    0.0000000000000000E+00
             0.0000000000000000E+00    0.0000000000000000E+00    0.0000000000000000E+00
             0.0000000000000000E+00    0.0000000000000000E+00    0.0000000000000000E+00
             0.0000000000000000E+00    0.0000000000000000E+00    0.0000000000000000E+00
             0.0000000000000000E+00    0.0000000000000000E+00    0.0000000000000000E+00
             0.0000000000000000E+00    0.0000000000000000E+00    0.0000000000000000E+00
             0.0000000000000000E+00    0.0000000000000000E+00    0.0000000000000000E+00
             0.0000000000000000E+00    0.0000000000000000E+00    0.0000000000000000E+00
             0.0000000000000000E+00    0.0000000000000000E+00    0.0000000000000000E+00
             0.0000000000000000E+00    0.0000000000000000E+00    0.0000000000000000E+00
             0.0000000000000000E+00    0.0000000000000000E+00    0.0000000000000000E+00
             0.0000000000000000E+00    0.0000000000000000E+00    0.0000000000000000E+00
             0.0000000000000000E+00    0.0000000000000000E+00    0.0000000000000000E+00
             0.0000000000000000E+00    0.0000000000000000E+00    0.0000000000000000E+00
             0.0000000000000000E+00    0.0000000000000000E+00    0.0000000000000000E+00
             0.0000000000000000E+00    0.0000000000000000E+00    0.0000000000000000E+00
             0.0000000000000000E+00    0.0000000000000000E+00    0.0000000000000000E+00
             0.0000000000000000E+00    0.0000000000000000E+00    0.0000000000000000E+00
             0.0000000000000000E+00    0.0000000000000000E+00    0.0000000000000000E+00
             0.0000000000000000E+00    0.0000000000000000E+00    0.0000000000000000E+00
             0.0000000000000000E+00    0.0000000000000000E+00    0.0000000000000000E+00
             0.0000000000000000E+00    0.0000000000000000E+00    0.0000000000000000E+00
             0.0000000000000000E+00    0.0000000000000000E+00    0.0000000000000000E+00
             0.0000000000000000E+00    0.0000000000000000E+00    0.0000000000000000E+00
             0.0000000000000000E+00    0.0000000000000000E+00    0.0000000000000000E+00
             0.0000000000000000E+00    0.0000000000000000E+00    0.0000000000000000E+00
             0.0000000000000000E+00    0.0000000000000000E+00    0.0000000000000000E+00
             0.0000000000000000E+00    0.0000000000000000E+00    0.0000000000000000E+00
             0.0000000000000000E+00    0.0000000000000000E+00    0.0000000000000000E+00
             0.0000000000000000E+00    0.0000000000000000E+00    0.0000000000000000E+00
             0.0000000000000000E+00    0.0000000000000000E+00    0.0000000000000000E+00
             0.0000000000000000E+00    0.0000000000000000E+00    0.0000000000000000E+00
             0.0000000000000000E+00    0.0000000000000000E+00    0.0000000000000000E+00
             0.0000000000000000E+00    0.0000000000000000E+00    0.0000000000000000E+00
             0.0000000000000000E+00    0.0000000000000000E+00    0.0000000000000000E+00
             0.0000000000000000E+00    0.0000000000000000E+00    0.0000000000000000E+00
             0.0000000000000000E+00    0.0000000000000000E+00    0.0000000000000000E+00
             0.0000000000000000E+00    0.0000000000000000E+00    0.0000000000000000E+00
             0.0000000000000000E+00    0.0000000000000000E+00    0.0000000000000000E+00
             0.0000000000000000E+00    0.0000000000000000E+00    0.0000000000000000E+00
             0.0000000000000000E+00    0.0000000000000000E+00    0.0000000000000000E+00
             0.0000000000000000E+00    0.0000000000000000E+00    0.0000000000000000E+00
             0.0000000000000000E+00    0.0000000000000000E+00    0.0000000000000000E+00
             0.0000000000000000E+00    0.0000000000000000E+00    0.0000000000000000E+00
             0.0000000000000000E+00    0.0000000000000000E+00    0.0000000000000000E+00
             0.0000000000000000E+00    0.0000000000000000E+00    0.0000000000000000E+00
             0.0000000000000000E+00    0.0000000000000000E+00    0.0000000000000000E+00
             0.0000000000000000E+00    0.0000000000000000E+00    0.0000000000000000E+00
             0.0000000000000000E+00    0.0000000000000000E+00    0.0000000000000000E+00
             0.0000000000000000E+00    0.0000000000000000E+00    0.0000000000000000E+00
             0.0000000000000000E+00    0.0000000000000000E+00    0.0000000000000000E+00
             0.0000000000000000E+00    0.0000000000000000E+00    0.0000000000000000E+00
             0.0000000000000000E+00    0.0000000000000000E+00    0.0000000000000000E+00
             0.0000000000000000E+00    0.0000000000000000E+00    0.0000000000000000E+00
             0.0000000000000000E+00    0.0000000000000000E+00    0.0000000000000000E+00
             0.0000000000000000E+00    0.0000000000000000E+00    0.0000000000000000E+00
             0.0000000000000000E+00    0.0000000000000000E+00    0.0000000000000000E+00
             0.0000000000000000E+00    0.0000000000000000E+00    0.0000000000000000E+00
             0.0000000000000000E+00    0.0000000000000000E+00    0.0000000000000000E+00
             0.0000000000000000E+00    0.0000000000000000E+00    0.0000000000000000E+00
             0.0000000000000000E+00    0.0000000000000000E+00    0.0000000000000000E+00
             0.0000000000000000E+00    0.0000000000000000E+00    0.0000000000000000E+00
             0.0000000000000000E+00    0.0000000000000000E+00    0.0000000000000000E+00
             0.0000000000000000E+00    0.0000000000000000E+00    0.0000000000000000E+00
             0.0000000000000000E+00    0.0000000000000000E+00    0.0000000000000000E+00
             0.0000000000000000E+00    0.0000000000000000E+00    0.0000000000000000E+00
             0.0000000000000000E+00    0.0000000000000000E+00    0.0000000000000000E+00
             0.0000000000000000E+00    0.0000000000000000E+00    0.0000000000000000E+00
             0.0000000000000000E+00    0.0000000000000000E+00    0.0000000000000000E+00
             0.0000000000000000E+00    0.0000000000000000E+00    0.0000000000000000E+00
             0.0000000000000000E+00    0.0000000000000000E+00    0.0000000000000000E+00
             0.0000000000000000E+00    0.0000000000000000E+00    0.0000000000000000E+00
             0.0000000000000000E+00    0.0000000000000000E+00    0.0000000000000000E+00
             0.0000000000000000E+00    0.0000000000000000E+00    0.0000000000000000E+00
             0.0000000000000000E+00    0.0000000000000000E+00    0.0000000000000000E+00
             0.0000000000000000E+00    0.0000000000000000E+00    0.0000000000000000E+00
             0.0000000000000000E+00    0.0000000000000000E+00    0.0000000000000000E+00
             0.0000000000000000E+00    0.0000000000000000E+00    0.0000000000000000E+00
             0.0000000000000000E+00    0.0000000000000000E+00    0.0000000000000000E+00
             0.0000000000000000E+00    0.0000000000000000E+00    0.0000000000000000E+00
             0.0000000000000000E+00    0.0000000000000000E+00    0.0000000000000000E+00
             0.0000000000000000E+00    0.0000000000000000E+00    0.0000000000000000E+00
             0.0000000000000000E+00    0.0000000000000000E+00    0.0000000000000000E+00
             0.0000000000000000E+00    0.0000000000000000E+00    0.0000000000000000E+00
             0.0000000000000000E+00    0.0000000000000000E+00    0.0000000000000000E+00
             0.0000000000000000E+00    0.0000000000000000E+00    0.0000000000000000E+00
             0.0000000000000000E+00    0.0000000000000000E+00    0.0000000000000000E+00
             0.0000000000000000E+00    0.0000000000000000E+00    0.0000000000000000E+00
             0.0000000000000000E+00    0.0000000000000000E+00    0.0000000000000000E+00
             0.0000000000000000E+00    0.0000000000000000E+00    0.0000000000000000E+00
             0.0000000000000000E+00    0.0000000000000000E+00    0.0000000000000000E+00
             0.0000000000000000E+00    0.0000000000000000E+00    0.0000000000000000E+00
             0.0000000000000000E+00    0.0000000000000000E+00    0.0000000000000000E+00
             0.0000000000000000E+00    0.0000000000000000E+00    0.0000000000000000E+00
             0.0000000000000000E+00    0.0000000000000000E+00    0.0000000000000000E+00
             0.0000000000000000E+00    0.0000000000000000E+00    0.0000000000000000E+00
             0.0000000000000000E+00    0.0000000000000000E+00    0.0000000000000000E+00
             0.0000000000000000E+00    0.0000000000000000E+00    0.0000000000000000E+00
             0.0000000000000000E+00    0.0000000000000000E+00    0.0000000000000000E+00
             0.0000000000000000E+00    0.0000000000000000E+00    0.0000000000000000E+00
             0.0000000000000000E+00    0.0000000000000000E+00    0.0000000000000000E+00
             0.0000000000000000E+00    0.0000000000000000E+00    0.0000000000000000E+00
             0.0000000000000000E+00    0.0000000000000000E+00    0.0000000000000000E+00
             0.0000000000000000E+00    0.0000000000000000E+00    0.0000000000000000E+00
             0.0000000000000000E+00    0.0000000000000000E+00    0.0000000000000000E+00
             0.0000000000000000E+00    0.0000000000000000E+00    0.0000000000000000E+00
             0.0000000000000000E+00    0.0000000000000000E+00    0.0000000000000000E+00
             0.0000000000000000E+00    0.0000000000000000E+00    0.0000000000000000E+00
             0.0000000000000000E+00    0.0000000000000000E+00    0.0000000000000000E+00
             0.0000000000000000E+00    0.0000000000000000E+00    0.0000000000000000E+00
             0.0000000000000000E+00    0.0000000000000000E+00    0.0000000000000000E+00
             0.0000000000000000E+00    0.0000000000000000E+00    0.0000000000000000E+00
             0.0000000000000000E+00    0.0000000000000000E+00    0.0000000000000000E+00