 # Version information for this restart file 
 # current date 2024-01-13 10:22:11.520
 # current working dir /gpfs/home/cahart/transport/melamine/au_from-h2/ci-neb/ts2-fixed/dft_leads-sz_tip-dzvp_surf-dzvp_kpoints-2-4-20_replicas-5
 # Program compiled at                              Thu 21 Sep 19:20:17 BST 2023
 # Program compiled on                                           hx1-c12-login-1
 # Program compiled for                                                    local
 # Source code revision number                                       git:5518aa6
 &GLOBAL
   EXTENDED_FFT_LENGTHS  T
   PRINT_LEVEL  MEDIUM
   PROJECT_NAME 2_dft_wfn-r-0
   OUTPUT_FILE_NAME 2_dft_wfn-r-0.out
   RUN_TYPE  BAND
 &END GLOBAL
 &MOTION
   &BAND
     NPROC_REP  64
     BAND_TYPE  CI-NEB
     NUMBER_OF_REPLICA  5
     K_SPRING     5.0000000000000003E-02
     &CI_NEB
       NSTEPS_IT  5
     &END CI_NEB
     &OPTIMIZE_BAND
       OPT_TYPE  DIIS
       &DIIS
         MAX_STEPS  1000
       &END DIIS
     &END OPTIMIZE_BAND
     &REPLICA
       &COORD
             0.0000000000000000E+00    0.0000000000000000E+00    0.0000000000000000E+00
             0.0000000000000000E+00    2.9549999999999903E+00    0.0000000000000000E+00
             0.0000000000000000E+00    5.9109999999999756E+00    0.0000000000000000E+00
             2.9559999999999818E+00    0.0000000000000000E+00    0.0000000000000000E+00
             2.9559999999999818E+00    2.9549999999999903E+00    0.0000000000000000E+00
             2.9559999999999818E+00    5.9109999999999756E+00    0.0000000000000000E+00
             5.9119999999999635E+00    0.0000000000000000E+00    0.0000000000000000E+00
             5.9119999999999635E+00    2.9549999999999903E+00    0.0000000000000000E+00
             5.9119999999999635E+00    5.9109999999999756E+00    0.0000000000000000E+00
             8.6699999999999537E+00    0.0000000000000000E+00    0.0000000000000000E+00
             8.6699999999999537E+00    2.9549999999999903E+00    0.0000000000000000E+00
             8.6699999999999537E+00    5.9109999999999756E+00    0.0000000000000000E+00
             1.1625999999999989E+01    0.0000000000000000E+00    0.0000000000000000E+00
             1.1625999999999989E+01    2.9549999999999903E+00    0.0000000000000000E+00
             1.1625999999999989E+01    5.9109999999999756E+00    0.0000000000000000E+00
             1.4779999999999909E+00    1.4779999999999909E+00    2.0899999999999856E+00
             1.4779999999999909E+00    4.4329999999999936E+00    2.0899999999999856E+00
             1.4779999999999909E+00    7.3889999999999576E+00    2.0899999999999856E+00
             4.4339999999999788E+00    1.4779999999999909E+00    2.0899999999999856E+00
             4.4339999999999788E+00    4.4329999999999936E+00    2.0899999999999856E+00
             4.4339999999999788E+00    7.3889999999999576E+00    2.0899999999999856E+00
             7.1919999999999451E+00    1.4779999999999909E+00    2.0899999999999856E+00
             7.1919999999999451E+00    4.4329999999999936E+00    2.0899999999999856E+00
             7.1919999999999451E+00    7.3889999999999576E+00    2.0899999999999856E+00
             1.0147999999999946E+01    1.4779999999999909E+00    2.0899999999999856E+00
             1.0147999999999946E+01    4.4329999999999936E+00    2.0899999999999856E+00
             1.0147999999999946E+01    7.3889999999999576E+00    2.0899999999999856E+00
             1.3103999999999942E+01    1.4779999999999909E+00    2.0899999999999856E+00
             1.3103999999999942E+01    4.4329999999999936E+00    2.0899999999999856E+00
             1.3103999999999942E+01    7.3889999999999576E+00    2.0899999999999856E+00
             0.0000000000000000E+00    0.0000000000000000E+00    4.1799999999999713E+00
             0.0000000000000000E+00    2.9549999999999903E+00    4.1799999999999713E+00
             0.0000000000000000E+00    5.9109999999999756E+00    4.1799999999999713E+00
             2.9559999999999818E+00    0.0000000000000000E+00    4.1799999999999713E+00
             2.9559999999999818E+00    2.9549999999999903E+00    4.1799999999999713E+00
             2.9559999999999818E+00    5.9109999999999756E+00    4.1799999999999713E+00
             5.9119999999999635E+00    0.0000000000000000E+00    4.1799999999999713E+00
             5.9119999999999635E+00    2.9549999999999903E+00    4.1799999999999713E+00
             5.9119999999999635E+00    5.9109999999999756E+00    4.1799999999999713E+00
             8.6699999999999537E+00    0.0000000000000000E+00    4.1799999999999713E+00
             8.6699999999999537E+00    2.9549999999999903E+00    4.1799999999999713E+00
             8.6699999999999537E+00    5.9109999999999756E+00    4.1799999999999713E+00
             1.1625999999999989E+01    0.0000000000000000E+00    4.1799999999999713E+00
             1.1625999999999989E+01    2.9549999999999903E+00    4.1799999999999713E+00
             1.1625999999999989E+01    5.9109999999999756E+00    4.1799999999999713E+00
             1.4779999999999909E+00    1.4779999999999909E+00    6.2699999999999623E+00
             1.4779999999999909E+00    4.4329999999999936E+00    6.2699999999999623E+00
             1.4779999999999909E+00    7.3889999999999576E+00    6.2699999999999623E+00
             4.4339999999999788E+00    1.4779999999999909E+00    6.2699999999999623E+00
             4.4339999999999788E+00    4.4329999999999936E+00    6.2699999999999623E+00
             4.4339999999999788E+00    7.3889999999999576E+00    6.2699999999999623E+00
             7.1919999999999451E+00    1.4779999999999909E+00    6.2699999999999623E+00
             7.1919999999999451E+00    4.4329999999999936E+00    6.2699999999999623E+00
             7.1919999999999451E+00    7.3889999999999576E+00    6.2699999999999623E+00
             1.0147999999999946E+01    1.4779999999999909E+00    6.2699999999999623E+00
             1.0147999999999946E+01    4.4329999999999936E+00    6.2699999999999623E+00
             1.0147999999999946E+01    7.3889999999999576E+00    6.2699999999999623E+00
             1.3103999999999942E+01    1.4779999999999909E+00    6.2699999999999623E+00
             1.3103999999999942E+01    4.4329999999999936E+00    6.2699999999999623E+00
             1.3103999999999942E+01    7.3889999999999576E+00    6.2699999999999623E+00
             0.0000000000000000E+00    0.0000000000000000E+00    8.3599999999999426E+00
             0.0000000000000000E+00    2.9549999999999903E+00    8.3599999999999426E+00
             0.0000000000000000E+00    5.9109999999999756E+00    8.3599999999999426E+00
             2.9559999999999818E+00    0.0000000000000000E+00    8.3599999999999426E+00
             2.9559999999999818E+00    2.9549999999999903E+00    8.3599999999999426E+00
             2.9559999999999818E+00    5.9109999999999756E+00    8.3599999999999426E+00
             5.9119999999999635E+00    0.0000000000000000E+00    8.3599999999999426E+00
             5.9119999999999635E+00    2.9549999999999903E+00    8.3599999999999426E+00
             5.9119999999999635E+00    5.9109999999999756E+00    8.3599999999999426E+00
             8.6699999999999537E+00    0.0000000000000000E+00    8.3599999999999426E+00
             8.6699999999999537E+00    2.9549999999999903E+00    8.3599999999999426E+00
             8.6699999999999537E+00    5.9109999999999756E+00    8.3599999999999426E+00
             1.1625999999999989E+01    0.0000000000000000E+00    8.3599999999999426E+00
             1.1625999999999989E+01    2.9549999999999903E+00    8.3599999999999426E+00
             1.1625999999999989E+01    5.9109999999999756E+00    8.3599999999999426E+00
             1.4779999999999909E+00    1.4779999999999909E+00    1.0449999999999969E+01
             1.4779999999999909E+00    4.4329999999999936E+00    1.0449999999999969E+01
             1.4779999999999909E+00    7.3889999999999576E+00    1.0449999999999969E+01
             4.4339999999999788E+00    1.4779999999999909E+00    1.0449999999999969E+01
             4.4339999999999788E+00    4.4329999999999936E+00    1.0449999999999969E+01
             4.4339999999999788E+00    7.3889999999999576E+00    1.0449999999999969E+01
             7.1919999999999451E+00    1.4779999999999909E+00    1.0449999999999969E+01
             7.1919999999999451E+00    4.4329999999999936E+00    1.0449999999999969E+01
             7.1919999999999451E+00    7.3889999999999576E+00    1.0449999999999969E+01
             1.0147999999999946E+01    1.4779999999999909E+00    1.0449999999999969E+01
             1.0147999999999946E+01    4.4329999999999936E+00    1.0449999999999969E+01
             1.0147999999999946E+01    7.3889999999999576E+00    1.0449999999999969E+01
             1.3103999999999942E+01    1.4779999999999909E+00    1.0449999999999969E+01
             1.3103999999999942E+01    4.4329999999999936E+00    1.0449999999999969E+01
             1.3103999999999942E+01    7.3889999999999576E+00    1.0449999999999969E+01
             4.8553999999999862E+00    5.9118999999999433E+00    1.2031799999999940E+01
             9.5279999999999347E+00    5.9136999999999666E+00    1.2033999999999939E+01
             7.1919999999999451E+00    5.9339999999999762E+00    1.2039999999999946E+01
             4.0673339927999992E+00    5.9059993219999738E+00    1.2687741368899946E+01
             1.0318905404799951E+01    5.9087793825999704E+00    1.2685747073199972E+01
             5.9989554221999564E+00    5.9152564165999868E+00    1.2792642411199910E+01
             8.3738707292999734E+00    5.9179777706999754E+00    1.2731457252199986E+01
             8.3227525761999281E+00    5.9051536094999788E+00    1.4080497642099926E+01
             5.9344285048999881E+00    5.8981604864999779E+00    1.4101749969599950E+01
             7.1039653576999653E+00    5.8899410688999563E+00    1.4828703219099911E+01
             7.2416021046999672E+00    5.8657702091999964E+00    1.6106466757299938E+01
             6.3118250322999563E+00    5.8547577070999814E+00    1.6539601306199931E+01
             9.1743570612999701E+00    5.8876302391999316E+00    1.4641017735299945E+01
             7.3119999999999710E+00    5.9339999999999762E+00    2.1042999999999960E+01
             5.8129999999999944E+00    7.4339999999999780E+00    2.2991999999999887E+01
             8.8129999999999811E+00    4.4339999999999788E+00    2.2991999999999887E+01
             5.8129999999999944E+00    4.4329999999999936E+00    2.2991999999999887E+01
             8.8129999999999811E+00    7.4339999999999780E+00    2.2991999999999887E+01
             1.4779999999999909E+00    1.4779999999999909E+00    2.5081999999999951E+01
             1.4779999999999909E+00    4.4329999999999936E+00    2.5081999999999951E+01
             1.4779999999999909E+00    7.3889999999999576E+00    2.5081999999999951E+01
             4.4339999999999788E+00    1.4779999999999909E+00    2.5081999999999951E+01
             4.4339999999999788E+00    4.4329999999999936E+00    2.5081999999999951E+01
             4.4339999999999788E+00    7.3889999999999576E+00    2.5081999999999951E+01
             7.1919999999999451E+00    1.4779999999999909E+00    2.5081999999999951E+01
             7.1919999999999451E+00    4.4329999999999936E+00    2.5081999999999951E+01
             7.1919999999999451E+00    7.3889999999999576E+00    2.5081999999999951E+01
             1.0147999999999946E+01    1.4779999999999909E+00    2.5081999999999951E+01
             1.0147999999999946E+01    4.4329999999999936E+00    2.5081999999999951E+01
             1.0147999999999946E+01    7.3889999999999576E+00    2.5081999999999951E+01
             1.3103999999999942E+01    1.4779999999999909E+00    2.5081999999999951E+01
             1.3103999999999942E+01    4.4329999999999936E+00    2.5081999999999951E+01
             1.3103999999999942E+01    7.3889999999999576E+00    2.5081999999999951E+01
             0.0000000000000000E+00    0.0000000000000000E+00    2.7171999999999887E+01
             0.0000000000000000E+00    2.9549999999999903E+00    2.7171999999999887E+01
             0.0000000000000000E+00    5.9109999999999756E+00    2.7171999999999887E+01
             2.9559999999999818E+00    0.0000000000000000E+00    2.7171999999999887E+01
             2.9559999999999818E+00    2.9549999999999903E+00    2.7171999999999887E+01
             2.9559999999999818E+00    5.9109999999999756E+00    2.7171999999999887E+01
             5.9119999999999635E+00    0.0000000000000000E+00    2.7171999999999887E+01
             5.9119999999999635E+00    2.9549999999999903E+00    2.7171999999999887E+01
             5.9119999999999635E+00    5.9109999999999756E+00    2.7171999999999887E+01
             8.6699999999999537E+00    0.0000000000000000E+00    2.7171999999999887E+01
             8.6699999999999537E+00    2.9549999999999903E+00    2.7171999999999887E+01
             8.6699999999999537E+00    5.9109999999999756E+00    2.7171999999999887E+01
             1.1625999999999989E+01    0.0000000000000000E+00    2.7171999999999887E+01
             1.1625999999999989E+01    2.9549999999999903E+00    2.7171999999999887E+01
             1.1625999999999989E+01    5.9109999999999756E+00    2.7171999999999887E+01
             1.4779999999999909E+00    1.4779999999999909E+00    2.9261999999999823E+01
             1.4779999999999909E+00    4.4329999999999936E+00    2.9261999999999823E+01
             1.4779999999999909E+00    7.3889999999999576E+00    2.9261999999999823E+01
             4.4339999999999788E+00    1.4779999999999909E+00    2.9261999999999823E+01
             4.4339999999999788E+00    4.4329999999999936E+00    2.9261999999999823E+01
             4.4339999999999788E+00    7.3889999999999576E+00    2.9261999999999823E+01
             7.1919999999999451E+00    1.4779999999999909E+00    2.9261999999999823E+01
             7.1919999999999451E+00    4.4329999999999936E+00    2.9261999999999823E+01
             7.1919999999999451E+00    7.3889999999999576E+00    2.9261999999999823E+01
             1.0147999999999946E+01    1.4779999999999909E+00    2.9261999999999823E+01
             1.0147999999999946E+01    4.4329999999999936E+00    2.9261999999999823E+01
             1.0147999999999946E+01    7.3889999999999576E+00    2.9261999999999823E+01
             1.3103999999999942E+01    1.4779999999999909E+00    2.9261999999999823E+01
             1.3103999999999942E+01    4.4329999999999936E+00    2.9261999999999823E+01
             1.3103999999999942E+01    7.3889999999999576E+00    2.9261999999999823E+01
             0.0000000000000000E+00    0.0000000000000000E+00    3.1351999999999794E+01
             0.0000000000000000E+00    2.9549999999999903E+00    3.1351999999999794E+01
             0.0000000000000000E+00    5.9109999999999756E+00    3.1351999999999794E+01
             2.9559999999999818E+00    0.0000000000000000E+00    3.1351999999999794E+01
             2.9559999999999818E+00    2.9549999999999903E+00    3.1351999999999794E+01
             2.9559999999999818E+00    5.9109999999999756E+00    3.1351999999999794E+01
             5.9119999999999635E+00    0.0000000000000000E+00    3.1351999999999794E+01
             5.9119999999999635E+00    2.9549999999999903E+00    3.1351999999999794E+01
             5.9119999999999635E+00    5.9109999999999756E+00    3.1351999999999794E+01
             8.6699999999999537E+00    0.0000000000000000E+00    3.1351999999999794E+01
             8.6699999999999537E+00    2.9549999999999903E+00    3.1351999999999794E+01
             8.6699999999999537E+00    5.9109999999999756E+00    3.1351999999999794E+01
             1.1625999999999989E+01    0.0000000000000000E+00    3.1351999999999794E+01
             1.1625999999999989E+01    2.9549999999999903E+00    3.1351999999999794E+01
             1.1625999999999989E+01    5.9109999999999756E+00    3.1351999999999794E+01
             1.4779999999999909E+00    1.4779999999999909E+00    3.3441999999999823E+01
             1.4779999999999909E+00    4.4329999999999936E+00    3.3441999999999823E+01
             1.4779999999999909E+00    7.3889999999999576E+00    3.3441999999999823E+01
             4.4339999999999788E+00    1.4779999999999909E+00    3.3441999999999823E+01
             4.4339999999999788E+00    4.4329999999999936E+00    3.3441999999999823E+01
             4.4339999999999788E+00    7.3889999999999576E+00    3.3441999999999823E+01
             7.1919999999999451E+00    1.4779999999999909E+00    3.3441999999999823E+01
             7.1919999999999451E+00    4.4329999999999936E+00    3.3441999999999823E+01
             7.1919999999999451E+00    7.3889999999999576E+00    3.3441999999999823E+01
             1.0147999999999946E+01    1.4779999999999909E+00    3.3441999999999823E+01
             1.0147999999999946E+01    4.4329999999999936E+00    3.3441999999999823E+01
             1.0147999999999946E+01    7.3889999999999576E+00    3.3441999999999823E+01
             1.3103999999999942E+01    1.4779999999999909E+00    3.3441999999999823E+01
             1.3103999999999942E+01    4.4329999999999936E+00    3.3441999999999823E+01
             1.3103999999999942E+01    7.3889999999999576E+00    3.3441999999999823E+01
       &END COORD
       &VELOCITY
             0.0000000000000000E+00    0.0000000000000000E+00    0.0000000000000000E+00
             0.0000000000000000E+00    0.0000000000000000E+00    0.0000000000000000E+00
             0.0000000000000000E+00    0.0000000000000000E+00    0.0000000000000000E+00
             0.0000000000000000E+00    0.0000000000000000E+00    0.0000000000000000E+00
             0.0000000000000000E+00    0.0000000000000000E+00    0.0000000000000000E+00
             0.0000000000000000E+00    0.0000000000000000E+00    0.0000000000000000E+00
             0.0000000000000000E+00    0.0000000000000000E+00    0.0000000000000000E+00
             0.0000000000000000E+00    0.0000000000000000E+00    0.0000000000000000E+00
             0.0000000000000000E+00    0.0000000000000000E+00    0.0000000000000000E+00
             0.0000000000000000E+00    0.0000000000000000E+00    0.0000000000000000E+00
             0.0000000000000000E+00    0.0000000000000000E+00    0.0000000000000000E+00
             0.0000000000000000E+00    0.0000000000000000E+00    0.0000000000000000E+00
             0.0000000000000000E+00    0.0000000000000000E+00    0.0000000000000000E+00
             0.0000000000000000E+00    0.0000000000000000E+00    0.0000000000000000E+00
             0.0000000000000000E+00    0.0000000000000000E+00    0.0000000000000000E+00
             0.0000000000000000E+00    0.0000000000000000E+00    0.0000000000000000E+00
             0.0000000000000000E+00    0.0000000000000000E+00    0.0000000000000000E+00
             0.0000000000000000E+00    0.0000000000000000E+00    0.0000000000000000E+00
             0.0000000000000000E+00    0.0000000000000000E+00    0.0000000000000000E+00
             0.0000000000000000E+00    0.0000000000000000E+00    0.0000000000000000E+00
             0.0000000000000000E+00    0.0000000000000000E+00    0.0000000000000000E+00
             0.0000000000000000E+00    0.0000000000000000E+00    0.0000000000000000E+00
             0.0000000000000000E+00    0.0000000000000000E+00    0.0000000000000000E+00
             0.0000000000000000E+00    0.0000000000000000E+00    0.0000000000000000E+00
             0.0000000000000000E+00    0.0000000000000000E+00    0.0000000000000000E+00
             0.0000000000000000E+00    0.0000000000000000E+00    0.0000000000000000E+00
             0.0000000000000000E+00    0.0000000000000000E+00    0.0000000000000000E+00
             0.0000000000000000E+00    0.0000000000000000E+00    0.0000000000000000E+00
             0.0000000000000000E+00    0.0000000000000000E+00    0.0000000000000000E+00
             0.0000000000000000E+00    0.0000000000000000E+00    0.0000000000000000E+00
             0.0000000000000000E+00    0.0000000000000000E+00    0.0000000000000000E+00
             0.0000000000000000E+00    0.0000000000000000E+00    0.0000000000000000E+00
             0.0000000000000000E+00    0.0000000000000000E+00    0.0000000000000000E+00
             0.0000000000000000E+00    0.0000000000000000E+00    0.0000000000000000E+00
             0.0000000000000000E+00    0.0000000000000000E+00    0.0000000000000000E+00
             0.0000000000000000E+00    0.0000000000000000E+00    0.0000000000000000E+00
             0.0000000000000000E+00    0.0000000000000000E+00    0.0000000000000000E+00
             0.0000000000000000E+00    0.0000000000000000E+00    0.0000000000000000E+00
             0.0000000000000000E+00    0.0000000000000000E+00    0.0000000000000000E+00
             0.0000000000000000E+00    0.0000000000000000E+00    0.0000000000000000E+00
             0.0000000000000000E+00    0.0000000000000000E+00    0.0000000000000000E+00
             0.0000000000000000E+00    0.0000000000000000E+00    0.0000000000000000E+00
             0.0000000000000000E+00    0.0000000000000000E+00    0.0000000000000000E+00
             0.0000000000000000E+00    0.0000000000000000E+00    0.0000000000000000E+00
             0.0000000000000000E+00    0.0000000000000000E+00    0.0000000000000000E+00
             0.0000000000000000E+00    0.0000000000000000E+00    0.0000000000000000E+00
             0.0000000000000000E+00    0.0000000000000000E+00    0.0000000000000000E+00
             0.0000000000000000E+00    0.0000000000000000E+00    0.0000000000000000E+00
             0.0000000000000000E+00    0.0000000000000000E+00    0.0000000000000000E+00
             0.0000000000000000E+00    0.0000000000000000E+00    0.0000000000000000E+00
             0.0000000000000000E+00    0.0000000000000000E+00    0.0000000000000000E+00
             0.0000000000000000E+00    0.0000000000000000E+00    0.0000000000000000E+00
             0.0000000000000000E+00    0.0000000000000000E+00    0.0000000000000000E+00
             0.0000000000000000E+00    0.0000000000000000E+00    0.0000000000000000E+00
             0.0000000000000000E+00    0.0000000000000000E+00    0.0000000000000000E+00
             0.0000000000000000E+00    0.0000000000000000E+00    0.0000000000000000E+00
             0.0000000000000000E+00    0.0000000000000000E+00    0.0000000000000000E+00
             0.0000000000000000E+00    0.0000000000000000E+00    0.0000000000000000E+00
             0.0000000000000000E+00    0.0000000000000000E+00    0.0000000000000000E+00
             0.0000000000000000E+00    0.0000000000000000E+00    0.0000000000000000E+00
             0.0000000000000000E+00    0.0000000000000000E+00    0.0000000000000000E+00
             0.0000000000000000E+00    0.0000000000000000E+00    0.0000000000000000E+00
             0.0000000000000000E+00    0.0000000000000000E+00    0.0000000000000000E+00
             0.0000000000000000E+00    0.0000000000000000E+00    0.0000000000000000E+00
             0.0000000000000000E+00    0.0000000000000000E+00    0.0000000000000000E+00
             0.0000000000000000E+00    0.0000000000000000E+00    0.0000000000000000E+00
             0.0000000000000000E+00    0.0000000000000000E+00    0.0000000000000000E+00
             0.0000000000000000E+00    0.0000000000000000E+00    0.0000000000000000E+00
             0.0000000000000000E+00    0.0000000000000000E+00    0.0000000000000000E+00
             0.0000000000000000E+00    0.0000000000000000E+00    0.0000000000000000E+00
             0.0000000000000000E+00    0.0000000000000000E+00    0.0000000000000000E+00
             0.0000000000000000E+00    0.0000000000000000E+00    0.0000000000000000E+00
             0.0000000000000000E+00    0.0000000000000000E+00    0.0000000000000000E+00
             0.0000000000000000E+00    0.0000000000000000E+00    0.0000000000000000E+00
             0.0000000000000000E+00    0.0000000000000000E+00    0.0000000000000000E+00
             0.0000000000000000E+00    0.0000000000000000E+00    0.0000000000000000E+00
             0.0000000000000000E+00    0.0000000000000000E+00    0.0000000000000000E+00
             0.0000000000000000E+00    0.0000000000000000E+00    0.0000000000000000E+00
             0.0000000000000000E+00    0.0000000000000000E+00    0.0000000000000000E+00
             0.0000000000000000E+00    0.0000000000000000E+00    0.0000000000000000E+00
             0.0000000000000000E+00    0.0000000000000000E+00    0.0000000000000000E+00
             0.0000000000000000E+00    0.0000000000000000E+00    0.0000000000000000E+00
             0.0000000000000000E+00    0.0000000000000000E+00    0.0000000000000000E+00
             0.0000000000000000E+00    0.0000000000000000E+00    0.0000000000000000E+00
             0.0000000000000000E+00    0.0000000000000000E+00    0.0000000000000000E+00
             0.0000000000000000E+00    0.0000000000000000E+00    0.0000000000000000E+00
             0.0000000000000000E+00    0.0000000000000000E+00    0.0000000000000000E+00
             0.0000000000000000E+00    0.0000000000000000E+00    0.0000000000000000E+00
             0.0000000000000000E+00    0.0000000000000000E+00    0.0000000000000000E+00
             0.0000000000000000E+00    0.0000000000000000E+00    0.0000000000000000E+00
             0.0000000000000000E+00    0.0000000000000000E+00    0.0000000000000000E+00
             0.0000000000000000E+00    0.0000000000000000E+00    0.0000000000000000E+00
             0.0000000000000000E+00    0.0000000000000000E+00    0.0000000000000000E+00
             0.0000000000000000E+00    0.0000000000000000E+00    0.0000000000000000E+00
             0.0000000000000000E+00    0.0000000000000000E+00    0.0000000000000000E+00
             0.0000000000000000E+00    0.0000000000000000E+00    0.0000000000000000E+00
             0.0000000000000000E+00    0.0000000000000000E+00    0.0000000000000000E+00
             0.0000000000000000E+00    0.0000000000000000E+00    0.0000000000000000E+00
             0.0000000000000000E+00    0.0000000000000000E+00    0.0000000000000000E+00
             0.0000000000000000E+00    0.0000000000000000E+00    0.0000000000000000E+00
             0.0000000000000000E+00    0.0000000000000000E+00    0.0000000000000000E+00
             0.0000000000000000E+00    0.0000000000000000E+00    0.0000000000000000E+00
             0.0000000000000000E+00    0.0000000000000000E+00    0.0000000000000000E+00
             0.0000000000000000E+00    0.0000000000000000E+00    0.0000000000000000E+00
             0.0000000000000000E+00    0.0000000000000000E+00    0.0000000000000000E+00
             0.0000000000000000E+00    0.0000000000000000E+00    0.0000000000000000E+00
             0.0000000000000000E+00    0.0000000000000000E+00    0.0000000000000000E+00
             0.0000000000000000E+00    0.0000000000000000E+00    0.0000000000000000E+00
             0.0000000000000000E+00    0.0000000000000000E+00    0.0000000000000000E+00
             0.0000000000000000E+00    0.0000000000000000E+00    0.0000000000000000E+00
             0.0000000000000000E+00    0.0000000000000000E+00    0.0000000000000000E+00
             0.0000000000000000E+00    0.0000000000000000E+00    0.0000000000000000E+00
             0.0000000000000000E+00    0.0000000000000000E+00    0.0000000000000000E+00
             0.0000000000000000E+00    0.0000000000000000E+00    0.0000000000000000E+00
             0.0000000000000000E+00    0.0000000000000000E+00    0.0000000000000000E+00
             0.0000000000000000E+00    0.0000000000000000E+00    0.0000000000000000E+00
             0.0000000000000000E+00    0.0000000000000000E+00    0.0000000000000000E+00
             0.0000000000000000E+00    0.0000000000000000E+00    0.0000000000000000E+00
             0.0000000000000000E+00    0.0000000000000000E+00    0.0000000000000000E+00
             0.0000000000000000E+00    0.0000000000000000E+00    0.0000000000000000E+00
             0.0000000000000000E+00    0.0000000000000000E+00    0.0000000000000000E+00
             0.0000000000000000E+00    0.0000000000000000E+00    0.0000000000000000E+00
             0.0000000000000000E+00    0.0000000000000000E+00    0.0000000000000000E+00
             0.0000000000000000E+00    0.0000000000000000E+00    0.0000000000000000E+00
             0.0000000000000000E+00    0.0000000000000000E+00    0.0000000000000000E+00
             0.0000000000000000E+00    0.0000000000000000E+00    0.0000000000000000E+00
             0.0000000000000000E+00    0.0000000000000000E+00    0.0000000000000000E+00
             0.0000000000000000E+00    0.0000000000000000E+00    0.0000000000000000E+00
             0.0000000000000000E+00    0.0000000000000000E+00    0.0000000000000000E+00
             0.0000000000000000E+00    0.0000000000000000E+00    0.0000000000000000E+00
             0.0000000000000000E+00    0.0000000000000000E+00    0.0000000000000000E+00
             0.0000000000000000E+00    0.0000000000000000E+00    0.0000000000000000E+00
             0.0000000000000000E+00    0.0000000000000000E+00    0.0000000000000000E+00
             0.0000000000000000E+00    0.0000000000000000E+00    0.0000000000000000E+00
             0.0000000000000000E+00    0.0000000000000000E+00    0.0000000000000000E+00
             0.0000000000000000E+00    0.0000000000000000E+00    0.0000000000000000E+00
             0.0000000000000000E+00    0.0000000000000000E+00    0.0000000000000000E+00
             0.0000000000000000E+00    0.0000000000000000E+00    0.0000000000000000E+00
             0.0000000000000000E+00    0.0000000000000000E+00    0.0000000000000000E+00
             0.0000000000000000E+00    0.0000000000000000E+00    0.0000000000000000E+00
             0.0000000000000000E+00    0.0000000000000000E+00    0.0000000000000000E+00
             0.0000000000000000E+00    0.0000000000000000E+00    0.0000000000000000E+00
             0.0000000000000000E+00    0.0000000000000000E+00    0.0000000000000000E+00
             0.0000000000000000E+00    0.0000000000000000E+00    0.0000000000000000E+00
             0.0000000000000000E+00    0.0000000000000000E+00    0.0000000000000000E+00