 # Version information for this restart file 
 # current date 2024-01-13 07:42:54.278
 # current working dir /gpfs/home/cahart/transport/melamine/au_from-h2/ci-neb/ts2-fixed/dft_leads-sz_tip-dzvp_surf-dzvp_kpoints-2-4-20_replicas-5
 # Program compiled at                              Thu 21 Sep 19:20:17 BST 2023
 # Program compiled on                                           hx1-c12-login-1
 # Program compiled for                                                    local
 # Source code revision number                                       git:5518aa6
 &GLOBAL
   EXTENDED_FFT_LENGTHS  T
   PRINT_LEVEL  MEDIUM
   PROJECT_NAME 2_dft_wfn-r-0
   OUTPUT_FILE_NAME 2_dft_wfn-r-0.out
   RUN_TYPE  BAND
 &END GLOBAL
 &MOTION
   &BAND
     NPROC_REP  64
     BAND_TYPE  CI-NEB
     NUMBER_OF_REPLICA  5
     K_SPRING     5.0000000000000003E-02
     &CI_NEB
       NSTEPS_IT  5
     &END CI_NEB
     &OPTIMIZE_BAND
       OPT_TYPE  DIIS
       &DIIS
         MAX_STEPS  1000
       &END DIIS
     &END OPTIMIZE_BAND
     &REPLICA
       &COORD
             0.0000000000000000E+00    0.0000000000000000E+00    0.0000000000000000E+00
             0.0000000000000000E+00    2.9549999999999867E+00    0.0000000000000000E+00
             0.0000000000000000E+00    5.9109999999999676E+00    0.0000000000000000E+00
             2.9559999999999778E+00    0.0000000000000000E+00    0.0000000000000000E+00
             2.9559999999999778E+00    2.9549999999999867E+00    0.0000000000000000E+00
             2.9559999999999778E+00    5.9109999999999676E+00    0.0000000000000000E+00
             5.9119999999999555E+00    0.0000000000000000E+00    0.0000000000000000E+00
             5.9119999999999555E+00    2.9549999999999867E+00    0.0000000000000000E+00
             5.9119999999999555E+00    5.9109999999999676E+00    0.0000000000000000E+00
             8.6699999999999431E+00    0.0000000000000000E+00    0.0000000000000000E+00
             8.6699999999999431E+00    2.9549999999999867E+00    0.0000000000000000E+00
             8.6699999999999431E+00    5.9109999999999676E+00    0.0000000000000000E+00
             1.1625999999999975E+01    0.0000000000000000E+00    0.0000000000000000E+00
             1.1625999999999975E+01    2.9549999999999867E+00    0.0000000000000000E+00
             1.1625999999999975E+01    5.9109999999999676E+00    0.0000000000000000E+00
             1.4779999999999889E+00    1.4779999999999889E+00    2.0899999999999821E+00
             1.4779999999999889E+00    4.4329999999999874E+00    2.0899999999999821E+00
             1.4779999999999889E+00    7.3889999999999469E+00    2.0899999999999821E+00
             4.4339999999999726E+00    1.4779999999999889E+00    2.0899999999999821E+00
             4.4339999999999726E+00    4.4329999999999874E+00    2.0899999999999821E+00
             4.4339999999999726E+00    7.3889999999999469E+00    2.0899999999999821E+00
             7.1919999999999353E+00    1.4779999999999889E+00    2.0899999999999821E+00
             7.1919999999999353E+00    4.4329999999999874E+00    2.0899999999999821E+00
             7.1919999999999353E+00    7.3889999999999469E+00    2.0899999999999821E+00
             1.0147999999999934E+01    1.4779999999999889E+00    2.0899999999999821E+00
             1.0147999999999934E+01    4.4329999999999874E+00    2.0899999999999821E+00
             1.0147999999999934E+01    7.3889999999999469E+00    2.0899999999999821E+00
             1.3103999999999930E+01    1.4779999999999889E+00    2.0899999999999821E+00
             1.3103999999999930E+01    4.4329999999999874E+00    2.0899999999999821E+00
             1.3103999999999930E+01    7.3889999999999469E+00    2.0899999999999821E+00
             0.0000000000000000E+00    0.0000000000000000E+00    4.1799999999999642E+00
             0.0000000000000000E+00    2.9549999999999867E+00    4.1799999999999642E+00
             0.0000000000000000E+00    5.9109999999999676E+00    4.1799999999999642E+00
             2.9559999999999778E+00    0.0000000000000000E+00    4.1799999999999642E+00
             2.9559999999999778E+00    2.9549999999999867E+00    4.1799999999999642E+00
             2.9559999999999778E+00    5.9109999999999676E+00    4.1799999999999642E+00
             5.9119999999999555E+00    0.0000000000000000E+00    4.1799999999999642E+00
             5.9119999999999555E+00    2.9549999999999867E+00    4.1799999999999642E+00
             5.9119999999999555E+00    5.9109999999999676E+00    4.1799999999999642E+00
             8.6699999999999431E+00    0.0000000000000000E+00    4.1799999999999642E+00
             8.6699999999999431E+00    2.9549999999999867E+00    4.1799999999999642E+00
             8.6699999999999431E+00    5.9109999999999676E+00    4.1799999999999642E+00
             1.1625999999999975E+01    0.0000000000000000E+00    4.1799999999999642E+00
             1.1625999999999975E+01    2.9549999999999867E+00    4.1799999999999642E+00
             1.1625999999999975E+01    5.9109999999999676E+00    4.1799999999999642E+00
             1.4779999999999889E+00    1.4779999999999889E+00    6.2699999999999534E+00
             1.4779999999999889E+00    4.4329999999999874E+00    6.2699999999999534E+00
             1.4779999999999889E+00    7.3889999999999469E+00    6.2699999999999534E+00
             4.4339999999999726E+00    1.4779999999999889E+00    6.2699999999999534E+00
             4.4339999999999726E+00    4.4329999999999874E+00    6.2699999999999534E+00
             4.4339999999999726E+00    7.3889999999999469E+00    6.2699999999999534E+00
             7.1919999999999353E+00    1.4779999999999889E+00    6.2699999999999534E+00
             7.1919999999999353E+00    4.4329999999999874E+00    6.2699999999999534E+00
             7.1919999999999353E+00    7.3889999999999469E+00    6.2699999999999534E+00
             1.0147999999999934E+01    1.4779999999999889E+00    6.2699999999999534E+00
             1.0147999999999934E+01    4.4329999999999874E+00    6.2699999999999534E+00
             1.0147999999999934E+01    7.3889999999999469E+00    6.2699999999999534E+00
             1.3103999999999930E+01    1.4779999999999889E+00    6.2699999999999534E+00
             1.3103999999999930E+01    4.4329999999999874E+00    6.2699999999999534E+00
             1.3103999999999930E+01    7.3889999999999469E+00    6.2699999999999534E+00
             0.0000000000000000E+00    0.0000000000000000E+00    8.3599999999999284E+00
             0.0000000000000000E+00    2.9549999999999867E+00    8.3599999999999284E+00
             0.0000000000000000E+00    5.9109999999999676E+00    8.3599999999999284E+00
             2.9559999999999778E+00    0.0000000000000000E+00    8.3599999999999284E+00
             2.9559999999999778E+00    2.9549999999999867E+00    8.3599999999999284E+00
             2.9559999999999778E+00    5.9109999999999676E+00    8.3599999999999284E+00
             5.9119999999999555E+00    0.0000000000000000E+00    8.3599999999999284E+00
             5.9119999999999555E+00    2.9549999999999867E+00    8.3599999999999284E+00
             5.9119999999999555E+00    5.9109999999999676E+00    8.3599999999999284E+00
             8.6699999999999431E+00    0.0000000000000000E+00    8.3599999999999284E+00
             8.6699999999999431E+00    2.9549999999999867E+00    8.3599999999999284E+00
             8.6699999999999431E+00    5.9109999999999676E+00    8.3599999999999284E+00
             1.1625999999999975E+01    0.0000000000000000E+00    8.3599999999999284E+00
             1.1625999999999975E+01    2.9549999999999867E+00    8.3599999999999284E+00
             1.1625999999999975E+01    5.9109999999999676E+00    8.3599999999999284E+00
             1.4779999999999889E+00    1.4779999999999889E+00    1.0449999999999955E+01
             1.4779999999999889E+00    4.4329999999999874E+00    1.0449999999999955E+01
             1.4779999999999889E+00    7.3889999999999469E+00    1.0449999999999955E+01
             4.4339999999999726E+00    1.4779999999999889E+00    1.0449999999999955E+01
             4.4339999999999726E+00    4.4329999999999874E+00    1.0449999999999955E+01
             4.4339999999999726E+00    7.3889999999999469E+00    1.0449999999999955E+01
             7.1919999999999353E+00    1.4779999999999889E+00    1.0449999999999955E+01
             7.1919999999999353E+00    4.4329999999999874E+00    1.0449999999999955E+01
             7.1919999999999353E+00    7.3889999999999469E+00    1.0449999999999955E+01
             1.0147999999999934E+01    1.4779999999999889E+00    1.0449999999999955E+01
             1.0147999999999934E+01    4.4329999999999874E+00    1.0449999999999955E+01
             1.0147999999999934E+01    7.3889999999999469E+00    1.0449999999999955E+01
             1.3103999999999930E+01    1.4779999999999889E+00    1.0449999999999955E+01
             1.3103999999999930E+01    4.4329999999999874E+00    1.0449999999999955E+01
             1.3103999999999930E+01    7.3889999999999469E+00    1.0449999999999955E+01
             4.8553999999999791E+00    5.9118999999999335E+00    1.2031799999999924E+01
             9.5279999999999205E+00    5.9136999999999578E+00    1.2033999999999921E+01
             7.1919999999999353E+00    5.9339999999999673E+00    1.2039999999999935E+01
             4.0673339927999912E+00    5.9059993219999640E+00    1.2687741368899930E+01
             1.0318905404799937E+01    5.9087793825999633E+00    1.2685747073199956E+01
             5.9989554221999493E+00    5.9152564165999779E+00    1.2792642411199889E+01
             8.3738707292999628E+00    5.9179777706999666E+00    1.2731457252199970E+01
             8.3227525761999175E+00    5.9051536094999690E+00    1.4080497642099909E+01
             5.9344285048999801E+00    5.8981604864999690E+00    1.4101749969599927E+01
             7.1039653576999529E+00    5.8899410688999501E+00    1.4828703219099889E+01
             7.2416021046999548E+00    5.8657702091999893E+00    1.6106466757299909E+01
             6.3118250322999474E+00    5.8547577070999726E+00    1.6539601306199909E+01
             9.1743570612999576E+00    5.8876302391999236E+00    1.4641017735299922E+01
             7.3119999999999612E+00    5.9339999999999673E+00    2.1042999999999928E+01
             5.8129999999999873E+00    7.4339999999999673E+00    2.2991999999999862E+01
             8.8129999999999686E+00    4.4339999999999726E+00    2.2991999999999862E+01
             5.8129999999999873E+00    4.4329999999999874E+00    2.2991999999999862E+01
             8.8129999999999686E+00    7.4339999999999673E+00    2.2991999999999862E+01
             1.4779999999999889E+00    1.4779999999999889E+00    2.5081999999999933E+01
             1.4779999999999889E+00    4.4329999999999874E+00    2.5081999999999933E+01
             1.4779999999999889E+00    7.3889999999999469E+00    2.5081999999999933E+01
             4.4339999999999726E+00    1.4779999999999889E+00    2.5081999999999933E+01
             4.4339999999999726E+00    4.4329999999999874E+00    2.5081999999999933E+01
             4.4339999999999726E+00    7.3889999999999469E+00    2.5081999999999933E+01
             7.1919999999999353E+00    1.4779999999999889E+00    2.5081999999999933E+01
             7.1919999999999353E+00    4.4329999999999874E+00    2.5081999999999933E+01
             7.1919999999999353E+00    7.3889999999999469E+00    2.5081999999999933E+01
             1.0147999999999934E+01    1.4779999999999889E+00    2.5081999999999933E+01
             1.0147999999999934E+01    4.4329999999999874E+00    2.5081999999999933E+01
             1.0147999999999934E+01    7.3889999999999469E+00    2.5081999999999933E+01
             1.3103999999999930E+01    1.4779999999999889E+00    2.5081999999999933E+01
             1.3103999999999930E+01    4.4329999999999874E+00    2.5081999999999933E+01
             1.3103999999999930E+01    7.3889999999999469E+00    2.5081999999999933E+01
             0.0000000000000000E+00    0.0000000000000000E+00    2.7171999999999841E+01
             0.0000000000000000E+00    2.9549999999999867E+00    2.7171999999999841E+01
             0.0000000000000000E+00    5.9109999999999676E+00    2.7171999999999841E+01
             2.9559999999999778E+00    0.0000000000000000E+00    2.7171999999999841E+01
             2.9559999999999778E+00    2.9549999999999867E+00    2.7171999999999841E+01
             2.9559999999999778E+00    5.9109999999999676E+00    2.7171999999999841E+01
             5.9119999999999555E+00    0.0000000000000000E+00    2.7171999999999841E+01
             5.9119999999999555E+00    2.9549999999999867E+00    2.7171999999999841E+01
             5.9119999999999555E+00    5.9109999999999676E+00    2.7171999999999841E+01
             8.6699999999999431E+00    0.0000000000000000E+00    2.7171999999999841E+01
             8.6699999999999431E+00    2.9549999999999867E+00    2.7171999999999841E+01
             8.6699999999999431E+00    5.9109999999999676E+00    2.7171999999999841E+01
             1.1625999999999975E+01    0.0000000000000000E+00    2.7171999999999841E+01
             1.1625999999999975E+01    2.9549999999999867E+00    2.7171999999999841E+01
             1.1625999999999975E+01    5.9109999999999676E+00    2.7171999999999841E+01
             1.4779999999999889E+00    1.4779999999999889E+00    2.9261999999999777E+01
             1.4779999999999889E+00    4.4329999999999874E+00    2.9261999999999777E+01
             1.4779999999999889E+00    7.3889999999999469E+00    2.9261999999999777E+01
             4.4339999999999726E+00    1.4779999999999889E+00    2.9261999999999777E+01
             4.4339999999999726E+00    4.4329999999999874E+00    2.9261999999999777E+01
             4.4339999999999726E+00    7.3889999999999469E+00    2.9261999999999777E+01
             7.1919999999999353E+00    1.4779999999999889E+00    2.9261999999999777E+01
             7.1919999999999353E+00    4.4329999999999874E+00    2.9261999999999777E+01
             7.1919999999999353E+00    7.3889999999999469E+00    2.9261999999999777E+01
             1.0147999999999934E+01    1.4779999999999889E+00    2.9261999999999777E+01
             1.0147999999999934E+01    4.4329999999999874E+00    2.9261999999999777E+01
             1.0147999999999934E+01    7.3889999999999469E+00    2.9261999999999777E+01
             1.3103999999999930E+01    1.4779999999999889E+00    2.9261999999999777E+01
             1.3103999999999930E+01    4.4329999999999874E+00    2.9261999999999777E+01
             1.3103999999999930E+01    7.3889999999999469E+00    2.9261999999999777E+01
             0.0000000000000000E+00    0.0000000000000000E+00    3.1351999999999748E+01
             0.0000000000000000E+00    2.9549999999999867E+00    3.1351999999999748E+01
             0.0000000000000000E+00    5.9109999999999676E+00    3.1351999999999748E+01
             2.9559999999999778E+00    0.0000000000000000E+00    3.1351999999999748E+01
             2.9559999999999778E+00    2.9549999999999867E+00    3.1351999999999748E+01
             2.9559999999999778E+00    5.9109999999999676E+00    3.1351999999999748E+01
             5.9119999999999555E+00    0.0000000000000000E+00    3.1351999999999748E+01
             5.9119999999999555E+00    2.9549999999999867E+00    3.1351999999999748E+01
             5.9119999999999555E+00    5.9109999999999676E+00    3.1351999999999748E+01
             8.6699999999999431E+00    0.0000000000000000E+00    3.1351999999999748E+01
             8.6699999999999431E+00    2.9549999999999867E+00    3.1351999999999748E+01
             8.6699999999999431E+00    5.9109999999999676E+00    3.1351999999999748E+01
             1.1625999999999975E+01    0.0000000000000000E+00    3.1351999999999748E+01
             1.1625999999999975E+01    2.9549999999999867E+00    3.1351999999999748E+01
             1.1625999999999975E+01    5.9109999999999676E+00    3.1351999999999748E+01
             1.4779999999999889E+00    1.4779999999999889E+00    3.3441999999999773E+01
             1.4779999999999889E+00    4.4329999999999874E+00    3.3441999999999773E+01
             1.4779999999999889E+00    7.3889999999999469E+00    3.3441999999999773E+01
             4.4339999999999726E+00    1.4779999999999889E+00    3.3441999999999773E+01
             4.4339999999999726E+00    4.4329999999999874E+00    3.3441999999999773E+01
             4.4339999999999726E+00    7.3889999999999469E+00    3.3441999999999773E+01
             7.1919999999999353E+00    1.4779999999999889E+00    3.3441999999999773E+01
             7.1919999999999353E+00    4.4329999999999874E+00    3.3441999999999773E+01
             7.1919999999999353E+00    7.3889999999999469E+00    3.3441999999999773E+01
             1.0147999999999934E+01    1.4779999999999889E+00    3.3441999999999773E+01
             1.0147999999999934E+01    4.4329999999999874E+00    3.3441999999999773E+01
             1.0147999999999934E+01    7.3889999999999469E+00    3.3441999999999773E+01
             1.3103999999999930E+01    1.4779999999999889E+00    3.3441999999999773E+01
             1.3103999999999930E+01    4.4329999999999874E+00    3.3441999999999773E+01
             1.3103999999999930E+01    7.3889999999999469E+00    3.3441999999999773E+01
       &END COORD
       &VELOCITY
             0.0000000000000000E+00    0.0000000000000000E+00    0.0000000000000000E+00
             0.0000000000000000E+00    0.0000000000000000E+00    0.0000000000000000E+00
             0.0000000000000000E+00    0.0000000000000000E+00    0.0000000000000000E+00
             0.0000000000000000E+00    0.0000000000000000E+00    0.0000000000000000E+00
             0.0000000000000000E+00    0.0000000000000000E+00    0.0000000000000000E+00
             0.0000000000000000E+00    0.0000000000000000E+00    0.0000000000000000E+00
             0.0000000000000000E+00    0.0000000000000000E+00    0.0000000000000000E+00
             0.0000000000000000E+00    0.0000000000000000E+00    0.0000000000000000E+00
             0.0000000000000000E+00    0.0000000000000000E+00    0.0000000000000000E+00
             0.0000000000000000E+00    0.0000000000000000E+00    0.0000000000000000E+00
             0.0000000000000000E+00    0.0000000000000000E+00    0.0000000000000000E+00
             0.0000000000000000E+00    0.0000000000000000E+00    0.0000000000000000E+00
             0.0000000000000000E+00    0.0000000000000000E+00    0.0000000000000000E+00
             0.0000000000000000E+00    0.0000000000000000E+00    0.0000000000000000E+00
             0.0000000000000000E+00    0.0000000000000000E+00    0.0000000000000000E+00
             0.0000000000000000E+00    0.0000000000000000E+00    0.0000000000000000E+00
             0.0000000000000000E+00    0.0000000000000000E+00    0.0000000000000000E+00
             0.0000000000000000E+00    0.0000000000000000E+00    0.0000000000000000E+00
             0.0000000000000000E+00    0.0000000000000000E+00    0.0000000000000000E+00
             0.0000000000000000E+00    0.0000000000000000E+00    0.0000000000000000E+00
             0.0000000000000000E+00    0.0000000000000000E+00    0.0000000000000000E+00
             0.0000000000000000E+00    0.0000000000000000E+00    0.0000000000000000E+00
             0.0000000000000000E+00    0.0000000000000000E+00    0.0000000000000000E+00
             0.0000000000000000E+00    0.0000000000000000E+00    0.0000000000000000E+00
             0.0000000000000000E+00    0.0000000000000000E+00    0.0000000000000000E+00
             0.0000000000000000E+00    0.0000000000000000E+00    0.0000000000000000E+00
             0.0000000000000000E+00    0.0000000000000000E+00    0.0000000000000000E+00
             0.0000000000000000E+00    0.0000000000000000E+00    0.0000000000000000E+00
             0.0000000000000000E+00    0.0000000000000000E+00    0.0000000000000000E+00
             0.0000000000000000E+00    0.0000000000000000E+00    0.0000000000000000E+00
             0.0000000000000000E+00    0.0000000000000000E+00    0.0000000000000000E+00
             0.0000000000000000E+00    0.0000000000000000E+00    0.0000000000000000E+00
             0.0000000000000000E+00    0.0000000000000000E+00    0.0000000000000000E+00
             0.0000000000000000E+00    0.0000000000000000E+00    0.0000000000000000E+00
             0.0000000000000000E+00    0.0000000000000000E+00    0.0000000000000000E+00
             0.0000000000000000E+00    0.0000000000000000E+00    0.0000000000000000E+00
             0.0000000000000000E+00    0.0000000000000000E+00    0.0000000000000000E+00
             0.0000000000000000E+00    0.0000000000000000E+00    0.0000000000000000E+00
             0.0000000000000000E+00    0.0000000000000000E+00    0.0000000000000000E+00
             0.0000000000000000E+00    0.0000000000000000E+00    0.0000000000000000E+00
             0.0000000000000000E+00    0.0000000000000000E+00    0.0000000000000000E+00
             0.0000000000000000E+00    0.0000000000000000E+00    0.0000000000000000E+00
             0.0000000000000000E+00    0.0000000000000000E+00    0.0000000000000000E+00
             0.0000000000000000E+00    0.0000000000000000E+00    0.0000000000000000E+00
             0.0000000000000000E+00    0.0000000000000000E+00    0.0000000000000000E+00
             0.0000000000000000E+00    0.0000000000000000E+00    0.0000000000000000E+00
             0.0000000000000000E+00    0.0000000000000000E+00    0.0000000000000000E+00
             0.0000000000000000E+00    0.0000000000000000E+00    0.0000000000000000E+00
             0.0000000000000000E+00    0.0000000000000000E+00    0.0000000000000000E+00
             0.0000000000000000E+00    0.0000000000000000E+00    0.0000000000000000E+00
             0.0000000000000000E+00    0.0000000000000000E+00    0.0000000000000000E+00
             0.0000000000000000E+00    0.0000000000000000E+00    0.0000000000000000E+00
             0.0000000000000000E+00    0.0000000000000000E+00    0.0000000000000000E+00
             0.0000000000000000E+00    0.0000000000000000E+00    0.0000000000000000E+00
             0.0000000000000000E+00    0.0000000000000000E+00    0.0000000000000000E+00
             0.0000000000000000E+00    0.0000000000000000E+00    0.0000000000000000E+00
             0.0000000000000000E+00    0.0000000000000000E+00    0.0000000000000000E+00
             0.0000000000000000E+00    0.0000000000000000E+00    0.0000000000000000E+00
             0.0000000000000000E+00    0.0000000000000000E+00    0.0000000000000000E+00
             0.0000000000000000E+00    0.0000000000000000E+00    0.0000000000000000E+00
             0.0000000000000000E+00    0.0000000000000000E+00    0.0000000000000000E+00
             0.0000000000000000E+00    0.0000000000000000E+00    0.0000000000000000E+00
             0.0000000000000000E+00    0.0000000000000000E+00    0.0000000000000000E+00
             0.0000000000000000E+00    0.0000000000000000E+00    0.0000000000000000E+00
             0.0000000000000000E+00    0.0000000000000000E+00    0.0000000000000000E+00
             0.0000000000000000E+00    0.0000000000000000E+00    0.0000000000000000E+00
             0.0000000000000000E+00    0.0000000000000000E+00    0.0000000000000000E+00
             0.0000000000000000E+00    0.0000000000000000E+00    0.0000000000000000E+00
             0.0000000000000000E+00    0.0000000000000000E+00    0.0000000000000000E+00
             0.0000000000000000E+00    0.0000000000000000E+00    0.0000000000000000E+00
             0.0000000000000000E+00    0.0000000000000000E+00    0.0000000000000000E+00
             0.0000000000000000E+00    0.0000000000000000E+00    0.0000000000000000E+00
             0.0000000000000000E+00    0.0000000000000000E+00    0.0000000000000000E+00
             0.0000000000000000E+00    0.0000000000000000E+00    0.0000000000000000E+00
             0.0000000000000000E+00    0.0000000000000000E+00    0.0000000000000000E+00
             0.0000000000000000E+00    0.0000000000000000E+00    0.0000000000000000E+00
             0.0000000000000000E+00    0.0000000000000000E+00    0.0000000000000000E+00
             0.0000000000000000E+00    0.0000000000000000E+00    0.0000000000000000E+00
             0.0000000000000000E+00    0.0000000000000000E+00    0.0000000000000000E+00
             0.0000000000000000E+00    0.0000000000000000E+00    0.0000000000000000E+00
             0.0000000000000000E+00    0.0000000000000000E+00    0.0000000000000000E+00
             0.0000000000000000E+00    0.0000000000000000E+00    0.0000000000000000E+00
             0.0000000000000000E+00    0.0000000000000000E+00    0.0000000000000000E+00
             0.0000000000000000E+00    0.0000000000000000E+00    0.0000000000000000E+00
             0.0000000000000000E+00    0.0000000000000000E+00    0.0000000000000000E+00
             0.0000000000000000E+00    0.0000000000000000E+00    0.0000000000000000E+00
             0.0000000000000000E+00    0.0000000000000000E+00    0.0000000000000000E+00
             0.0000000000000000E+00    0.0000000000000000E+00    0.0000000000000000E+00
             0.0000000000000000E+00    0.0000000000000000E+00    0.0000000000000000E+00
             0.0000000000000000E+00    0.0000000000000000E+00    0.0000000000000000E+00
             0.0000000000000000E+00    0.0000000000000000E+00    0.0000000000000000E+00
             0.0000000000000000E+00    0.0000000000000000E+00    0.0000000000000000E+00
             0.0000000000000000E+00    0.0000000000000000E+00    0.0000000000000000E+00
             0.0000000000000000E+00    0.0000000000000000E+00    0.0000000000000000E+00
             0.0000000000000000E+00    0.0000000000000000E+00    0.0000000000000000E+00
             0.0000000000000000E+00    0.0000000000000000E+00    0.0000000000000000E+00
             0.0000000000000000E+00    0.0000000000000000E+00    0.0000000000000000E+00
             0.0000000000000000E+00    0.0000000000000000E+00    0.0000000000000000E+00
             0.0000000000000000E+00    0.0000000000000000E+00    0.0000000000000000E+00
             0.0000000000000000E+00    0.0000000000000000E+00    0.0000000000000000E+00
             0.0000000000000000E+00    0.0000000000000000E+00    0.0000000000000000E+00
             0.0000000000000000E+00    0.0000000000000000E+00    0.0000000000000000E+00
             0.0000000000000000E+00    0.0000000000000000E+00    0.0000000000000000E+00
             0.0000000000000000E+00    0.0000000000000000E+00    0.0000000000000000E+00
             0.0000000000000000E+00    0.0000000000000000E+00    0.0000000000000000E+00
             0.0000000000000000E+00    0.0000000000000000E+00    0.0000000000000000E+00
             0.0000000000000000E+00    0.0000000000000000E+00    0.0000000000000000E+00
             0.0000000000000000E+00    0.0000000000000000E+00    0.0000000000000000E+00
             0.0000000000000000E+00    0.0000000000000000E+00    0.0000000000000000E+00
             0.0000000000000000E+00    0.0000000000000000E+00    0.0000000000000000E+00
             0.0000000000000000E+00    0.0000000000000000E+00    0.0000000000000000E+00
             0.0000000000000000E+00    0.0000000000000000E+00    0.0000000000000000E+00
             0.0000000000000000E+00    0.0000000000000000E+00    0.0000000000000000E+00
             0.0000000000000000E+00    0.0000000000000000E+00    0.0000000000000000E+00
             0.0000000000000000E+00    0.0000000000000000E+00    0.0000000000000000E+00
             0.0000000000000000E+00    0.0000000000000000E+00    0.0000000000000000E+00
             0.0000000000000000E+00    0.0000000000000000E+00    0.0000000000000000E+00
             0.0000000000000000E+00    0.0000000000000000E+00    0.0000000000000000E+00
             0.0000000000000000E+00    0.0000000000000000E+00    0.0000000000000000E+00
             0.0000000000000000E+00    0.0000000000000000E+00    0.0000000000000000E+00
             0.0000000000000000E+00    0.0000000000000000E+00    0.0000000000000000E+00
             0.0000000000000000E+00    0.0000000000000000E+00    0.0000000000000000E+00
             0.0000000000000000E+00    0.0000000000000000E+00    0.0000000000000000E+00
             0.0000000000000000E+00    0.0000000000000000E+00    0.0000000000000000E+00
             0.0000000000000000E+00    0.0000000000000000E+00    0.0000000000000000E+00
             0.0000000000000000E+00    0.0000000000000000E+00    0.0000000000000000E+00
             0.0000000000000000E+00    0.0000000000000000E+00    0.0000000000000000E+00
             0.0000000000000000E+00    0.0000000000000000E+00    0.0000000000000000E+00
             0.0000000000000000E+00    0.0000000000000000E+00    0.0000000000000000E+00
             0.0000000000000000E+00    0.0000000000000000E+00    0.0000000000000000E+00
             0.0000000000000000E+00    0.0000000000000000E+00    0.0000000000000000E+00
             0.0000000000000000E+00    0.0000000000000000E+00    0.0000000000000000E+00
             0.0000000000000000E+00    0.0000000000000000E+00    0.0000000000000000E+00
             0.0000000000000000E+00    0.0000000000000000E+00    0.0000000000000000E+00
             0.0000000000000000E+00    0.0000000000000000E+00    0.0000000000000000E+00
             0.0000000000000000E+00    0.0000000000000000E+00    0.0000000000000000E+00
             0.0000000000000000E+00    0.0000000000000000E+00    0.0000000000000000E+00
             0.0000000000000000E+00    0.0000000000000000E+00    0.0000000000000000E+00
             0.0000000000000000E+00    0.0000000000000000E+00    0.0000000000000000E+00
             0.0000000000000000E+00    0.0000000000000000E+00    0.0000000000000000E+00
             0.0000000000000000E+00    0.0000000000000000E+00    0.0000000000000000E+00
             0.0000000000000000E+00    0.0000000000000000E+00    0.0000000000000000E+00
             0.0000000000000000E+00    0.0000000000000000E+00    0.0000000000000000E+00
             0.0000000000000000E+00    0.0000000000000000E+00    0.0000000000000000E+00
             0.0000000000000000E+00    0.0000000000000000E+00    0.0000000000000000E+00