 # Version information for this restart file 
 # current date 2024-01-13 04:19:08.538
 # current working dir /gpfs/home/cahart/transport/melamine/au_from-h2/ci-neb/ts2-fixed/dft_leads-sz_tip-dzvp_surf-dzvp_kpoints-2-4-20_replicas-5
 # Program compiled at                              Thu 21 Sep 19:20:17 BST 2023
 # Program compiled on                                           hx1-c12-login-1
 # Program compiled for                                                    local
 # Source code revision number                                       git:5518aa6
 &GLOBAL
   EXTENDED_FFT_LENGTHS  T
   PRINT_LEVEL  MEDIUM
   PROJECT_NAME 2_dft_wfn-r-0
   OUTPUT_FILE_NAME 2_dft_wfn-r-0.out
   RUN_TYPE  BAND
 &END GLOBAL
 &MOTION
   &BAND
     NPROC_REP  64
     BAND_TYPE  CI-NEB
     NUMBER_OF_REPLICA  5
     K_SPRING     5.0000000000000003E-02
     &CI_NEB
       NSTEPS_IT  5
     &END CI_NEB
     &OPTIMIZE_BAND
       OPT_TYPE  DIIS
       &DIIS
         MAX_STEPS  1000
       &END DIIS
     &END OPTIMIZE_BAND
     &REPLICA
       &COORD
             0.0000000000000000E+00    0.0000000000000000E+00    0.0000000000000000E+00
             0.0000000000000000E+00    2.9549999999999774E+00    0.0000000000000000E+00
             0.0000000000000000E+00    5.9109999999999445E+00    0.0000000000000000E+00
             2.9559999999999698E+00    0.0000000000000000E+00    0.0000000000000000E+00
             2.9559999999999698E+00    2.9549999999999774E+00    0.0000000000000000E+00
             2.9559999999999698E+00    5.9109999999999445E+00    0.0000000000000000E+00
             5.9119999999999395E+00    0.0000000000000000E+00    0.0000000000000000E+00
             5.9119999999999395E+00    2.9549999999999774E+00    0.0000000000000000E+00
             5.9119999999999395E+00    5.9109999999999445E+00    0.0000000000000000E+00
             8.6699999999999218E+00    0.0000000000000000E+00    0.0000000000000000E+00
             8.6699999999999218E+00    2.9549999999999774E+00    0.0000000000000000E+00
             8.6699999999999218E+00    5.9109999999999445E+00    0.0000000000000000E+00
             1.1625999999999941E+01    0.0000000000000000E+00    0.0000000000000000E+00
             1.1625999999999941E+01    2.9549999999999774E+00    0.0000000000000000E+00
             1.1625999999999941E+01    5.9109999999999445E+00    0.0000000000000000E+00
             1.4779999999999849E+00    1.4779999999999849E+00    2.0899999999999763E+00
             1.4779999999999849E+00    4.4329999999999741E+00    2.0899999999999763E+00
             1.4779999999999849E+00    7.3889999999999256E+00    2.0899999999999763E+00
             4.4339999999999549E+00    1.4779999999999849E+00    2.0899999999999763E+00
             4.4339999999999549E+00    4.4329999999999741E+00    2.0899999999999763E+00
             4.4339999999999549E+00    7.3889999999999256E+00    2.0899999999999763E+00
             7.1919999999999114E+00    1.4779999999999849E+00    2.0899999999999763E+00
             7.1919999999999114E+00    4.4329999999999741E+00    2.0899999999999763E+00
             7.1919999999999114E+00    7.3889999999999256E+00    2.0899999999999763E+00
             1.0147999999999906E+01    1.4779999999999849E+00    2.0899999999999763E+00
             1.0147999999999906E+01    4.4329999999999741E+00    2.0899999999999763E+00
             1.0147999999999906E+01    7.3889999999999256E+00    2.0899999999999763E+00
             1.3103999999999898E+01    1.4779999999999849E+00    2.0899999999999763E+00
             1.3103999999999898E+01    4.4329999999999741E+00    2.0899999999999763E+00
             1.3103999999999898E+01    7.3889999999999256E+00    2.0899999999999763E+00
             0.0000000000000000E+00    0.0000000000000000E+00    4.1799999999999526E+00
             0.0000000000000000E+00    2.9549999999999774E+00    4.1799999999999526E+00
             0.0000000000000000E+00    5.9109999999999445E+00    4.1799999999999526E+00
             2.9559999999999698E+00    0.0000000000000000E+00    4.1799999999999526E+00
             2.9559999999999698E+00    2.9549999999999774E+00    4.1799999999999526E+00
             2.9559999999999698E+00    5.9109999999999445E+00    4.1799999999999526E+00
             5.9119999999999395E+00    0.0000000000000000E+00    4.1799999999999526E+00
             5.9119999999999395E+00    2.9549999999999774E+00    4.1799999999999526E+00
             5.9119999999999395E+00    5.9109999999999445E+00    4.1799999999999526E+00
             8.6699999999999218E+00    0.0000000000000000E+00    4.1799999999999526E+00
             8.6699999999999218E+00    2.9549999999999774E+00    4.1799999999999526E+00
             8.6699999999999218E+00    5.9109999999999445E+00    4.1799999999999526E+00
             1.1625999999999941E+01    0.0000000000000000E+00    4.1799999999999526E+00
             1.1625999999999941E+01    2.9549999999999774E+00    4.1799999999999526E+00
             1.1625999999999941E+01    5.9109999999999445E+00    4.1799999999999526E+00
             1.4779999999999849E+00    1.4779999999999849E+00    6.2699999999999303E+00
             1.4779999999999849E+00    4.4329999999999741E+00    6.2699999999999303E+00
             1.4779999999999849E+00    7.3889999999999256E+00    6.2699999999999303E+00
             4.4339999999999549E+00    1.4779999999999849E+00    6.2699999999999303E+00
             4.4339999999999549E+00    4.4329999999999741E+00    6.2699999999999303E+00
             4.4339999999999549E+00    7.3889999999999256E+00    6.2699999999999303E+00
             7.1919999999999114E+00    1.4779999999999849E+00    6.2699999999999303E+00
             7.1919999999999114E+00    4.4329999999999741E+00    6.2699999999999303E+00
             7.1919999999999114E+00    7.3889999999999256E+00    6.2699999999999303E+00
             1.0147999999999906E+01    1.4779999999999849E+00    6.2699999999999303E+00
             1.0147999999999906E+01    4.4329999999999741E+00    6.2699999999999303E+00
             1.0147999999999906E+01    7.3889999999999256E+00    6.2699999999999303E+00
             1.3103999999999898E+01    1.4779999999999849E+00    6.2699999999999303E+00
             1.3103999999999898E+01    4.4329999999999741E+00    6.2699999999999303E+00
             1.3103999999999898E+01    7.3889999999999256E+00    6.2699999999999303E+00
             0.0000000000000000E+00    0.0000000000000000E+00    8.3599999999999053E+00
             0.0000000000000000E+00    2.9549999999999774E+00    8.3599999999999053E+00
             0.0000000000000000E+00    5.9109999999999445E+00    8.3599999999999053E+00
             2.9559999999999698E+00    0.0000000000000000E+00    8.3599999999999053E+00
             2.9559999999999698E+00    2.9549999999999774E+00    8.3599999999999053E+00
             2.9559999999999698E+00    5.9109999999999445E+00    8.3599999999999053E+00
             5.9119999999999395E+00    0.0000000000000000E+00    8.3599999999999053E+00
             5.9119999999999395E+00    2.9549999999999774E+00    8.3599999999999053E+00
             5.9119999999999395E+00    5.9109999999999445E+00    8.3599999999999053E+00
             8.6699999999999218E+00    0.0000000000000000E+00    8.3599999999999053E+00
             8.6699999999999218E+00    2.9549999999999774E+00    8.3599999999999053E+00
             8.6699999999999218E+00    5.9109999999999445E+00    8.3599999999999053E+00
             1.1625999999999941E+01    0.0000000000000000E+00    8.3599999999999053E+00
             1.1625999999999941E+01    2.9549999999999774E+00    8.3599999999999053E+00
             1.1625999999999941E+01    5.9109999999999445E+00    8.3599999999999053E+00
             1.4779999999999849E+00    1.4779999999999849E+00    1.0449999999999912E+01
             1.4779999999999849E+00    4.4329999999999741E+00    1.0449999999999912E+01
             1.4779999999999849E+00    7.3889999999999256E+00    1.0449999999999912E+01
             4.4339999999999549E+00    1.4779999999999849E+00    1.0449999999999912E+01
             4.4339999999999549E+00    4.4329999999999741E+00    1.0449999999999912E+01
             4.4339999999999549E+00    7.3889999999999256E+00    1.0449999999999912E+01
             7.1919999999999114E+00    1.4779999999999849E+00    1.0449999999999912E+01
             7.1919999999999114E+00    4.4329999999999741E+00    1.0449999999999912E+01
             7.1919999999999114E+00    7.3889999999999256E+00    1.0449999999999912E+01
             1.0147999999999906E+01    1.4779999999999849E+00    1.0449999999999912E+01
             1.0147999999999906E+01    4.4329999999999741E+00    1.0449999999999912E+01
             1.0147999999999906E+01    7.3889999999999256E+00    1.0449999999999912E+01
             1.3103999999999898E+01    1.4779999999999849E+00    1.0449999999999912E+01
             1.3103999999999898E+01    4.4329999999999741E+00    1.0449999999999912E+01
             1.3103999999999898E+01    7.3889999999999256E+00    1.0449999999999912E+01
             4.8553999999999640E+00    5.9118999999999122E+00    1.2031799999999876E+01
             9.5279999999998992E+00    5.9136999999999444E+00    1.2033999999999887E+01
             7.1919999999999114E+00    5.9339999999999513E+00    1.2039999999999889E+01
             4.0673339927999752E+00    5.9059993219999480E+00    1.2687741368899882E+01
             1.0318905404799901E+01    5.9087793825999491E+00    1.2685747073199913E+01
             5.9989554221999351E+00    5.9152564165999602E+00    1.2792642411199855E+01
             8.3738707292999415E+00    5.9179777706999435E+00    1.2731457252199913E+01
             8.3227525761998944E+00    5.9051536094999522E+00    1.4080497642099861E+01
             5.9344285048999552E+00    5.8981604864999557E+00    1.4101749969599870E+01
             7.1039653576999360E+00    5.8899410688999261E+00    1.4828703219099852E+01
             7.2416021046999397E+00    5.8657702091999742E+00    1.6106466757299856E+01
             6.3118250322999376E+00    5.8547577070999566E+00    1.6539601306199842E+01
             9.1743570612999221E+00    5.8876302391999067E+00    1.4641017735299878E+01
             7.3119999999999363E+00    5.9339999999999513E+00    2.1042999999999850E+01
             5.8129999999999704E+00    7.4339999999999469E+00    2.2991999999999784E+01
             8.8129999999999438E+00    4.4339999999999549E+00    2.2991999999999784E+01
             5.8129999999999704E+00    4.4329999999999741E+00    2.2991999999999784E+01
             8.8129999999999438E+00    7.4339999999999469E+00    2.2991999999999784E+01
             1.4779999999999849E+00    1.4779999999999849E+00    2.5081999999999869E+01
             1.4779999999999849E+00    4.4329999999999741E+00    2.5081999999999869E+01
             1.4779999999999849E+00    7.3889999999999256E+00    2.5081999999999869E+01
             4.4339999999999549E+00    1.4779999999999849E+00    2.5081999999999869E+01
             4.4339999999999549E+00    4.4329999999999741E+00    2.5081999999999869E+01
             4.4339999999999549E+00    7.3889999999999256E+00    2.5081999999999869E+01
             7.1919999999999114E+00    1.4779999999999849E+00    2.5081999999999869E+01
             7.1919999999999114E+00    4.4329999999999741E+00    2.5081999999999869E+01
             7.1919999999999114E+00    7.3889999999999256E+00    2.5081999999999869E+01
             1.0147999999999906E+01    1.4779999999999849E+00    2.5081999999999869E+01
             1.0147999999999906E+01    4.4329999999999741E+00    2.5081999999999869E+01
             1.0147999999999906E+01    7.3889999999999256E+00    2.5081999999999869E+01
             1.3103999999999898E+01    1.4779999999999849E+00    2.5081999999999869E+01
             1.3103999999999898E+01    4.4329999999999741E+00    2.5081999999999869E+01
             1.3103999999999898E+01    7.3889999999999256E+00    2.5081999999999869E+01
             0.0000000000000000E+00    0.0000000000000000E+00    2.7171999999999723E+01
             0.0000000000000000E+00    2.9549999999999774E+00    2.7171999999999723E+01
             0.0000000000000000E+00    5.9109999999999445E+00    2.7171999999999723E+01
             2.9559999999999698E+00    0.0000000000000000E+00    2.7171999999999723E+01
             2.9559999999999698E+00    2.9549999999999774E+00    2.7171999999999723E+01
             2.9559999999999698E+00    5.9109999999999445E+00    2.7171999999999723E+01
             5.9119999999999395E+00    0.0000000000000000E+00    2.7171999999999723E+01
             5.9119999999999395E+00    2.9549999999999774E+00    2.7171999999999723E+01
             5.9119999999999395E+00    5.9109999999999445E+00    2.7171999999999723E+01
             8.6699999999999218E+00    0.0000000000000000E+00    2.7171999999999723E+01
             8.6699999999999218E+00    2.9549999999999774E+00    2.7171999999999723E+01
             8.6699999999999218E+00    5.9109999999999445E+00    2.7171999999999723E+01
             1.1625999999999941E+01    0.0000000000000000E+00    2.7171999999999723E+01
             1.1625999999999941E+01    2.9549999999999774E+00    2.7171999999999723E+01
             1.1625999999999941E+01    5.9109999999999445E+00    2.7171999999999723E+01
             1.4779999999999849E+00    1.4779999999999849E+00    2.9261999999999684E+01
             1.4779999999999849E+00    4.4329999999999741E+00    2.9261999999999684E+01
             1.4779999999999849E+00    7.3889999999999256E+00    2.9261999999999684E+01
             4.4339999999999549E+00    1.4779999999999849E+00    2.9261999999999684E+01
             4.4339999999999549E+00    4.4329999999999741E+00    2.9261999999999684E+01
             4.4339999999999549E+00    7.3889999999999256E+00    2.9261999999999684E+01
             7.1919999999999114E+00    1.4779999999999849E+00    2.9261999999999684E+01
             7.1919999999999114E+00    4.4329999999999741E+00    2.9261999999999684E+01
             7.1919999999999114E+00    7.3889999999999256E+00    2.9261999999999684E+01
             1.0147999999999906E+01    1.4779999999999849E+00    2.9261999999999684E+01
             1.0147999999999906E+01    4.4329999999999741E+00    2.9261999999999684E+01
             1.0147999999999906E+01    7.3889999999999256E+00    2.9261999999999684E+01
             1.3103999999999898E+01    1.4779999999999849E+00    2.9261999999999684E+01
             1.3103999999999898E+01    4.4329999999999741E+00    2.9261999999999684E+01
             1.3103999999999898E+01    7.3889999999999256E+00    2.9261999999999684E+01
             0.0000000000000000E+00    0.0000000000000000E+00    3.1351999999999634E+01
             0.0000000000000000E+00    2.9549999999999774E+00    3.1351999999999634E+01
             0.0000000000000000E+00    5.9109999999999445E+00    3.1351999999999634E+01
             2.9559999999999698E+00    0.0000000000000000E+00    3.1351999999999634E+01
             2.9559999999999698E+00    2.9549999999999774E+00    3.1351999999999634E+01
             2.9559999999999698E+00    5.9109999999999445E+00    3.1351999999999634E+01
             5.9119999999999395E+00    0.0000000000000000E+00    3.1351999999999634E+01
             5.9119999999999395E+00    2.9549999999999774E+00    3.1351999999999634E+01
             5.9119999999999395E+00    5.9109999999999445E+00    3.1351999999999634E+01
             8.6699999999999218E+00    0.0000000000000000E+00    3.1351999999999634E+01
             8.6699999999999218E+00    2.9549999999999774E+00    3.1351999999999634E+01
             8.6699999999999218E+00    5.9109999999999445E+00    3.1351999999999634E+01
             1.1625999999999941E+01    0.0000000000000000E+00    3.1351999999999634E+01
             1.1625999999999941E+01    2.9549999999999774E+00    3.1351999999999634E+01
             1.1625999999999941E+01    5.9109999999999445E+00    3.1351999999999634E+01
             1.4779999999999849E+00    1.4779999999999849E+00    3.3441999999999680E+01
             1.4779999999999849E+00    4.4329999999999741E+00    3.3441999999999680E+01
             1.4779999999999849E+00    7.3889999999999256E+00    3.3441999999999680E+01
             4.4339999999999549E+00    1.4779999999999849E+00    3.3441999999999680E+01
             4.4339999999999549E+00    4.4329999999999741E+00    3.3441999999999680E+01
             4.4339999999999549E+00    7.3889999999999256E+00    3.3441999999999680E+01
             7.1919999999999114E+00    1.4779999999999849E+00    3.3441999999999680E+01
             7.1919999999999114E+00    4.4329999999999741E+00    3.3441999999999680E+01
             7.1919999999999114E+00    7.3889999999999256E+00    3.3441999999999680E+01
             1.0147999999999906E+01    1.4779999999999849E+00    3.3441999999999680E+01
             1.0147999999999906E+01    4.4329999999999741E+00    3.3441999999999680E+01
             1.0147999999999906E+01    7.3889999999999256E+00    3.3441999999999680E+01
             1.3103999999999898E+01    1.4779999999999849E+00    3.3441999999999680E+01
             1.3103999999999898E+01    4.4329999999999741E+00    3.3441999999999680E+01
             1.3103999999999898E+01    7.3889999999999256E+00    3.3441999999999680E+01
       &END COORD
       &VELOCITY
             0.0000000000000000E+00    0.0000000000000000E+00    0.0000000000000000E+00
             0.0000000000000000E+00    0.0000000000000000E+00    0.0000000000000000E+00
             0.0000000000000000E+00    0.0000000000000000E+00    0.0000000000000000E+00
             0.0000000000000000E+00    0.0000000000000000E+00    0.0000000000000000E+00
             0.0000000000000000E+00    0.0000000000000000E+00    0.0000000000000000E+00
             0.0000000000000000E+00    0.0000000000000000E+00    0.0000000000000000E+00
             0.0000000000000000E+00    0.0000000000000000E+00    0.0000000000000000E+00
             0.0000000000000000E+00    0.0000000000000000E+00    0.0000000000000000E+00
             0.0000000000000000E+00    0.0000000000000000E+00    0.0000000000000000E+00
             0.0000000000000000E+00    0.0000000000000000E+00    0.0000000000000000E+00
             0.0000000000000000E+00    0.0000000000000000E+00    0.0000000000000000E+00
             0.0000000000000000E+00    0.0000000000000000E+00    0.0000000000000000E+00
             0.0000000000000000E+00    0.0000000000000000E+00    0.0000000000000000E+00
             0.0000000000000000E+00    0.0000000000000000E+00    0.0000000000000000E+00
             0.0000000000000000E+00    0.0000000000000000E+00    0.0000000000000000E+00
             0.0000000000000000E+00    0.0000000000000000E+00    0.0000000000000000E+00
             0.0000000000000000E+00    0.0000000000000000E+00    0.0000000000000000E+00
             0.0000000000000000E+00    0.0000000000000000E+00    0.0000000000000000E+00
             0.0000000000000000E+00    0.0000000000000000E+00    0.0000000000000000E+00
             0.0000000000000000E+00    0.0000000000000000E+00    0.0000000000000000E+00
             0.0000000000000000E+00    0.0000000000000000E+00    0.0000000000000000E+00
             0.0000000000000000E+00    0.0000000000000000E+00    0.0000000000000000E+00
             0.0000000000000000E+00    0.0000000000000000E+00    0.0000000000000000E+00
             0.0000000000000000E+00    0.0000000000000000E+00    0.0000000000000000E+00
             0.0000000000000000E+00    0.0000000000000000E+00    0.0000000000000000E+00
             0.0000000000000000E+00    0.0000000000000000E+00    0.0000000000000000E+00
             0.0000000000000000E+00    0.0000000000000000E+00    0.0000000000000000E+00
             0.0000000000000000E+00    0.0000000000000000E+00    0.0000000000000000E+00
             0.0000000000000000E+00    0.0000000000000000E+00    0.0000000000000000E+00
             0.0000000000000000E+00    0.0000000000000000E+00    0.0000000000000000E+00
             0.0000000000000000E+00    0.0000000000000000E+00    0.0000000000000000E+00
             0.0000000000000000E+00    0.0000000000000000E+00    0.0000000000000000E+00
             0.0000000000000000E+00    0.0000000000000000E+00    0.0000000000000000E+00
             0.0000000000000000E+00    0.0000000000000000E+00    0.0000000000000000E+00
             0.0000000000000000E+00    0.0000000000000000E+00    0.0000000000000000E+00
             0.0000000000000000E+00    0.0000000000000000E+00    0.0000000000000000E+00
             0.0000000000000000E+00    0.0000000000000000E+00    0.0000000000000000E+00
             0.0000000000000000E+00    0.0000000000000000E+00    0.0000000000000000E+00
             0.0000000000000000E+00    0.0000000000000000E+00    0.0000000000000000E+00
             0.0000000000000000E+00    0.0000000000000000E+00    0.0000000000000000E+00
             0.0000000000000000E+00    0.0000000000000000E+00    0.0000000000000000E+00
             0.0000000000000000E+00    0.0000000000000000E+00    0.0000000000000000E+00
             0.0000000000000000E+00    0.0000000000000000E+00    0.0000000000000000E+00
             0.0000000000000000E+00    0.0000000000000000E+00    0.0000000000000000E+00
             0.0000000000000000E+00    0.0000000000000000E+00    0.0000000000000000E+00
             0.0000000000000000E+00    0.0000000000000000E+00    0.0000000000000000E+00
             0.0000000000000000E+00    0.0000000000000000E+00    0.0000000000000000E+00
             0.0000000000000000E+00    0.0000000000000000E+00    0.0000000000000000E+00
             0.0000000000000000E+00    0.0000000000000000E+00    0.0000000000000000E+00
             0.0000000000000000E+00    0.0000000000000000E+00    0.0000000000000000E+00
             0.0000000000000000E+00    0.0000000000000000E+00    0.0000000000000000E+00
             0.0000000000000000E+00    0.0000000000000000E+00    0.0000000000000000E+00
             0.0000000000000000E+00    0.0000000000000000E+00    0.0000000000000000E+00
             0.0000000000000000E+00    0.0000000000000000E+00    0.0000000000000000E+00
             0.0000000000000000E+00    0.0000000000000000E+00    0.0000000000000000E+00
             0.0000000000000000E+00    0.0000000000000000E+00    0.0000000000000000E+00
             0.0000000000000000E+00    0.0000000000000000E+00    0.0000000000000000E+00
             0.0000000000000000E+00    0.0000000000000000E+00    0.0000000000000000E+00
             0.0000000000000000E+00    0.0000000000000000E+00    0.0000000000000000E+00
             0.0000000000000000E+00    0.0000000000000000E+00    0.0000000000000000E+00
             0.0000000000000000E+00    0.0000000000000000E+00    0.0000000000000000E+00
             0.0000000000000000E+00    0.0000000000000000E+00    0.0000000000000000E+00
             0.0000000000000000E+00    0.0000000000000000E+00    0.0000000000000000E+00
             0.0000000000000000E+00    0.0000000000000000E+00    0.0000000000000000E+00
             0.0000000000000000E+00    0.0000000000000000E+00    0.0000000000000000E+00
             0.0000000000000000E+00    0.0000000000000000E+00    0.0000000000000000E+00
             0.0000000000000000E+00    0.0000000000000000E+00    0.0000000000000000E+00
             0.0000000000000000E+00    0.0000000000000000E+00    0.0000000000000000E+00
             0.0000000000000000E+00    0.0000000000000000E+00    0.0000000000000000E+00
             0.0000000000000000E+00    0.0000000000000000E+00    0.0000000000000000E+00
             0.0000000000000000E+00    0.0000000000000000E+00    0.0000000000000000E+00
             0.0000000000000000E+00    0.0000000000000000E+00    0.0000000000000000E+00
             0.0000000000000000E+00    0.0000000000000000E+00    0.0000000000000000E+00
             0.0000000000000000E+00    0.0000000000000000E+00    0.0000000000000000E+00
             0.0000000000000000E+00    0.0000000000000000E+00    0.0000000000000000E+00
             0.0000000000000000E+00    0.0000000000000000E+00    0.0000000000000000E+00
             0.0000000000000000E+00    0.0000000000000000E+00    0.0000000000000000E+00
             0.0000000000000000E+00    0.0000000000000000E+00    0.0000000000000000E+00
             0.0000000000000000E+00    0.0000000000000000E+00    0.0000000000000000E+00
             0.0000000000000000E+00    0.0000000000000000E+00    0.0000000000000000E+00
             0.0000000000000000E+00    0.0000000000000000E+00    0.0000000000000000E+00
             0.0000000000000000E+00    0.0000000000000000E+00    0.0000000000000000E+00
             0.0000000000000000E+00    0.0000000000000000E+00    0.0000000000000000E+00
             0.0000000000000000E+00    0.0000000000000000E+00    0.0000000000000000E+00
             0.0000000000000000E+00    0.0000000000000000E+00    0.0000000000000000E+00
             0.0000000000000000E+00    0.0000000000000000E+00    0.0000000000000000E+00
             0.0000000000000000E+00    0.0000000000000000E+00    0.0000000000000000E+00
             0.0000000000000000E+00    0.0000000000000000E+00    0.0000000000000000E+00
             0.0000000000000000E+00    0.0000000000000000E+00    0.0000000000000000E+00
             0.0000000000000000E+00    0.0000000000000000E+00    0.0000000000000000E+00
             0.0000000000000000E+00    0.0000000000000000E+00    0.0000000000000000E+00
             0.0000000000000000E+00    0.0000000000000000E+00    0.0000000000000000E+00
             0.0000000000000000E+00    0.0000000000000000E+00    0.0000000000000000E+00
             0.0000000000000000E+00    0.0000000000000000E+00    0.0000000000000000E+00
             0.0000000000000000E+00    0.0000000000000000E+00    0.0000000000000000E+00
             0.0000000000000000E+00    0.0000000000000000E+00    0.0000000000000000E+00
             0.0000000000000000E+00    0.0000000000000000E+00    0.0000000000000000E+00
             0.0000000000000000E+00    0.0000000000000000E+00    0.0000000000000000E+00
             0.0000000000000000E+00    0.0000000000000000E+00    0.0000000000000000E+00
             0.0000000000000000E+00    0.0000000000000000E+00    0.0000000000000000E+00
             0.0000000000000000E+00    0.0000000000000000E+00    0.0000000000000000E+00
             0.0000000000000000E+00    0.0000000000000000E+00    0.0000000000000000E+00
             0.0000000000000000E+00    0.0000000000000000E+00    0.0000000000000000E+00
             0.0000000000000000E+00    0.0000000000000000E+00    0.0000000000000000E+00
             0.0000000000000000E+00    0.0000000000000000E+00    0.0000000000000000E+00
             0.0000000000000000E+00    0.0000000000000000E+00    0.0000000000000000E+00
             0.0000000000000000E+00    0.0000000000000000E+00    0.0000000000000000E+00
             0.0000000000000000E+00    0.0000000000000000E+00    0.0000000000000000E+00
             0.0000000000000000E+00    0.0000000000000000E+00    0.0000000000000000E+00
             0.0000000000000000E+00    0.0000000000000000E+00    0.0000000000000000E+00
             0.0000000000000000E+00    0.0000000000000000E+00    0.0000000000000000E+00
             0.0000000000000000E+00    0.0000000000000000E+00    0.0000000000000000E+00
             0.0000000000000000E+00    0.0000000000000000E+00    0.0000000000000000E+00
             0.0000000000000000E+00    0.0000000000000000E+00    0.0000000000000000E+00
             0.0000000000000000E+00    0.0000000000000000E+00    0.0000000000000000E+00
             0.0000000000000000E+00    0.0000000000000000E+00    0.0000000000000000E+00
             0.0000000000000000E+00    0.0000000000000000E+00    0.0000000000000000E+00
             0.0000000000000000E+00    0.0000000000000000E+00    0.0000000000000000E+00
             0.0000000000000000E+00    0.0000000000000000E+00    0.0000000000000000E+00
             0.0000000000000000E+00    0.0000000000000000E+00    0.0000000000000000E+00
             0.0000000000000000E+00    0.0000000000000000E+00    0.0000000000000000E+00
             0.0000000000000000E+00    0.0000000000000000E+00    0.0000000000000000E+00
             0.0000000000000000E+00    0.0000000000000000E+00    0.0000000000000000E+00
             0.0000000000000000E+00    0.0000000000000000E+00    0.0000000000000000E+00
             0.0000000000000000E+00    0.0000000000000000E+00    0.0000000000000000E+00
             0.0000000000000000E+00    0.0000000000000000E+00    0.0000000000000000E+00
             0.0000000000000000E+00    0.0000000000000000E+00    0.0000000000000000E+00
             0.0000000000000000E+00    0.0000000000000000E+00    0.0000000000000000E+00
             0.0000000000000000E+00    0.0000000000000000E+00    0.0000000000000000E+00
             0.0000000000000000E+00    0.0000000000000000E+00    0.0000000000000000E+00
             0.0000000000000000E+00    0.0000000000000000E+00    0.0000000000000000E+00
             0.0000000000000000E+00    0.0000000000000000E+00    0.0000000000000000E+00
             0.0000000000000000E+00    0.0000000000000000E+00    0.0000000000000000E+00
             0.0000000000000000E+00    0.0000000000000000E+00    0.0000000000000000E+00
             0.0000000000000000E+00    0.0000000000000000E+00    0.0000000000000000E+00
             0.0000000000000000E+00    0.0000000000000000E+00    0.0000000000000000E+00
             0.0000000000000000E+00    0.0000000000000000E+00    0.0000000000000000E+00
             0.0000000000000000E+00    0.0000000000000000E+00    0.0000000000000000E+00
             0.0000000000000000E+00    0.0000000000000000E+00    0.0000000000000000E+00
             0.0000000000000000E+00    0.0000000000000000E+00    0.0000000000000000E+00
             0.0000000000000000E+00    0.0000000000000000E+00    0.0000000000000000E+00
             0.0000000000000000E+00    0.0000000000000000E+00    0.0000000000000000E+00
             0.0000000000000000E+00    0.0000000000000000E+00    0.0000000000000000E+00
             0.0000000000000000E+00    0.0000000000000000E+00    0.0000000000000000E+00
             0.0000000000000000E+00    0.0000000000000000E+00    0.0000000000000000E+00