 # Version information for this restart file 
 # current date 2024-01-13 14:04:13.222
 # current working dir /gpfs/home/cahart/transport/melamine/au_from-h2/ci-neb/ts2-fixed/dft_leads-sz_tip-dzvp_surf-dzvp_kpoints-2-4-20_replicas-5
 # Program compiled at                              Thu 21 Sep 19:20:17 BST 2023
 # Program compiled on                                           hx1-c12-login-1
 # Program compiled for                                                    local
 # Source code revision number                                       git:5518aa6
 &GLOBAL
   EXTENDED_FFT_LENGTHS  T
   PRINT_LEVEL  MEDIUM
   PROJECT_NAME 2_dft_wfn-r-0
   OUTPUT_FILE_NAME 2_dft_wfn-r-0.out
   RUN_TYPE  BAND
 &END GLOBAL
 &MOTION
   &BAND
     NPROC_REP  64
     BAND_TYPE  CI-NEB
     NUMBER_OF_REPLICA  5
     K_SPRING     5.0000000000000003E-02
     &CI_NEB
       NSTEPS_IT  5
     &END CI_NEB
     &OPTIMIZE_BAND
       OPT_TYPE  DIIS
       &DIIS
         MAX_STEPS  1000
       &END DIIS
     &END OPTIMIZE_BAND
     &REPLICA
       &COORD
             0.0000000000000000E+00    0.0000000000000000E+00    0.0000000000000000E+00
             0.0000000000000000E+00    2.9549999999999872E+00    0.0000000000000000E+00
             0.0000000000000000E+00    5.9109999999999667E+00    0.0000000000000000E+00
             2.9559999999999786E+00    0.0000000000000000E+00    0.0000000000000000E+00
             2.9559999999999786E+00    2.9549999999999872E+00    0.0000000000000000E+00
             2.9559999999999786E+00    5.9109999999999667E+00    0.0000000000000000E+00
             5.9119999999999573E+00    0.0000000000000000E+00    0.0000000000000000E+00
             5.9119999999999573E+00    2.9549999999999872E+00    0.0000000000000000E+00
             5.9119999999999573E+00    5.9109999999999667E+00    0.0000000000000000E+00
             8.6699999999999395E+00    0.0000000000000000E+00    0.0000000000000000E+00
             8.6699999999999395E+00    2.9549999999999872E+00    0.0000000000000000E+00
             8.6699999999999395E+00    5.9109999999999667E+00    0.0000000000000000E+00
             1.1625999999999976E+01    0.0000000000000000E+00    0.0000000000000000E+00
             1.1625999999999976E+01    2.9549999999999872E+00    0.0000000000000000E+00
             1.1625999999999976E+01    5.9109999999999667E+00    0.0000000000000000E+00
             1.4779999999999893E+00    1.4779999999999893E+00    2.0899999999999830E+00
             1.4779999999999893E+00    4.4329999999999901E+00    2.0899999999999830E+00
             1.4779999999999893E+00    7.3889999999999469E+00    2.0899999999999830E+00
             4.4339999999999753E+00    1.4779999999999893E+00    2.0899999999999830E+00
             4.4339999999999753E+00    4.4329999999999901E+00    2.0899999999999830E+00
             4.4339999999999753E+00    7.3889999999999469E+00    2.0899999999999830E+00
             7.1919999999999362E+00    1.4779999999999893E+00    2.0899999999999830E+00
             7.1919999999999362E+00    4.4329999999999901E+00    2.0899999999999830E+00
             7.1919999999999362E+00    7.3889999999999469E+00    2.0899999999999830E+00
             1.0147999999999938E+01    1.4779999999999893E+00    2.0899999999999830E+00
             1.0147999999999938E+01    4.4329999999999901E+00    2.0899999999999830E+00
             1.0147999999999938E+01    7.3889999999999469E+00    2.0899999999999830E+00
             1.3103999999999925E+01    1.4779999999999893E+00    2.0899999999999830E+00
             1.3103999999999925E+01    4.4329999999999901E+00    2.0899999999999830E+00
             1.3103999999999925E+01    7.3889999999999469E+00    2.0899999999999830E+00
             0.0000000000000000E+00    0.0000000000000000E+00    4.1799999999999660E+00
             0.0000000000000000E+00    2.9549999999999872E+00    4.1799999999999660E+00
             0.0000000000000000E+00    5.9109999999999667E+00    4.1799999999999660E+00
             2.9559999999999786E+00    0.0000000000000000E+00    4.1799999999999660E+00
             2.9559999999999786E+00    2.9549999999999872E+00    4.1799999999999660E+00
             2.9559999999999786E+00    5.9109999999999667E+00    4.1799999999999660E+00
             5.9119999999999573E+00    0.0000000000000000E+00    4.1799999999999660E+00
             5.9119999999999573E+00    2.9549999999999872E+00    4.1799999999999660E+00
             5.9119999999999573E+00    5.9109999999999667E+00    4.1799999999999660E+00
             8.6699999999999395E+00    0.0000000000000000E+00    4.1799999999999660E+00
             8.6699999999999395E+00    2.9549999999999872E+00    4.1799999999999660E+00
             8.6699999999999395E+00    5.9109999999999667E+00    4.1799999999999660E+00
             1.1625999999999976E+01    0.0000000000000000E+00    4.1799999999999660E+00
             1.1625999999999976E+01    2.9549999999999872E+00    4.1799999999999660E+00
             1.1625999999999976E+01    5.9109999999999667E+00    4.1799999999999660E+00
             1.4779999999999893E+00    1.4779999999999893E+00    6.2699999999999561E+00
             1.4779999999999893E+00    4.4329999999999901E+00    6.2699999999999561E+00
             1.4779999999999893E+00    7.3889999999999469E+00    6.2699999999999561E+00
             4.4339999999999753E+00    1.4779999999999893E+00    6.2699999999999561E+00
             4.4339999999999753E+00    4.4329999999999901E+00    6.2699999999999561E+00
             4.4339999999999753E+00    7.3889999999999469E+00    6.2699999999999561E+00
             7.1919999999999362E+00    1.4779999999999893E+00    6.2699999999999561E+00
             7.1919999999999362E+00    4.4329999999999901E+00    6.2699999999999561E+00
             7.1919999999999362E+00    7.3889999999999469E+00    6.2699999999999561E+00
             1.0147999999999938E+01    1.4779999999999893E+00    6.2699999999999561E+00
             1.0147999999999938E+01    4.4329999999999901E+00    6.2699999999999561E+00
             1.0147999999999938E+01    7.3889999999999469E+00    6.2699999999999561E+00
             1.3103999999999925E+01    1.4779999999999893E+00    6.2699999999999561E+00
             1.3103999999999925E+01    4.4329999999999901E+00    6.2699999999999561E+00
             1.3103999999999925E+01    7.3889999999999469E+00    6.2699999999999561E+00
             0.0000000000000000E+00    0.0000000000000000E+00    8.3599999999999319E+00
             0.0000000000000000E+00    2.9549999999999872E+00    8.3599999999999319E+00
             0.0000000000000000E+00    5.9109999999999667E+00    8.3599999999999319E+00
             2.9559999999999786E+00    0.0000000000000000E+00    8.3599999999999319E+00
             2.9559999999999786E+00    2.9549999999999872E+00    8.3599999999999319E+00
             2.9559999999999786E+00    5.9109999999999667E+00    8.3599999999999319E+00
             5.9119999999999573E+00    0.0000000000000000E+00    8.3599999999999319E+00
             5.9119999999999573E+00    2.9549999999999872E+00    8.3599999999999319E+00
             5.9119999999999573E+00    5.9109999999999667E+00    8.3599999999999319E+00
             8.6699999999999395E+00    0.0000000000000000E+00    8.3599999999999319E+00
             8.6699999999999395E+00    2.9549999999999872E+00    8.3599999999999319E+00
             8.6699999999999395E+00    5.9109999999999667E+00    8.3599999999999319E+00
             1.1625999999999976E+01    0.0000000000000000E+00    8.3599999999999319E+00
             1.1625999999999976E+01    2.9549999999999872E+00    8.3599999999999319E+00
             1.1625999999999976E+01    5.9109999999999667E+00    8.3599999999999319E+00
             1.4779999999999893E+00    1.4779999999999893E+00    1.0449999999999960E+01
             1.4779999999999893E+00    4.4329999999999901E+00    1.0449999999999960E+01
             1.4779999999999893E+00    7.3889999999999469E+00    1.0449999999999960E+01
             4.4339999999999753E+00    1.4779999999999893E+00    1.0449999999999960E+01
             4.4339999999999753E+00    4.4329999999999901E+00    1.0449999999999960E+01
             4.4339999999999753E+00    7.3889999999999469E+00    1.0449999999999960E+01
             7.1919999999999362E+00    1.4779999999999893E+00    1.0449999999999960E+01
             7.1919999999999362E+00    4.4329999999999901E+00    1.0449999999999960E+01
             7.1919999999999362E+00    7.3889999999999469E+00    1.0449999999999960E+01
             1.0147999999999938E+01    1.4779999999999893E+00    1.0449999999999960E+01
             1.0147999999999938E+01    4.4329999999999901E+00    1.0449999999999960E+01
             1.0147999999999938E+01    7.3889999999999469E+00    1.0449999999999960E+01
             1.3103999999999925E+01    1.4779999999999893E+00    1.0449999999999960E+01
             1.3103999999999925E+01    4.4329999999999901E+00    1.0449999999999960E+01
             1.3103999999999925E+01    7.3889999999999469E+00    1.0449999999999960E+01
             4.8553999999999791E+00    5.9118999999999362E+00    1.2031799999999926E+01
             9.5279999999999241E+00    5.9136999999999604E+00    1.2033999999999924E+01
             7.1919999999999362E+00    5.9339999999999700E+00    1.2039999999999935E+01
             4.0673339927999939E+00    5.9059993219999685E+00    1.2687741368899934E+01
             1.0318905404799942E+01    5.9087793825999650E+00    1.2685747073199961E+01
             5.9989554221999501E+00    5.9152564165999806E+00    1.2792642411199894E+01
             8.3738707292999646E+00    5.9179777706999692E+00    1.2731457252199975E+01
             8.3227525761999193E+00    5.9051536094999708E+00    1.4080497642099916E+01
             5.9344285048999810E+00    5.8981604864999726E+00    1.4101749969599936E+01
             7.1039653576999573E+00    5.8899410688999483E+00    1.4828703219099895E+01
             7.2416021046999592E+00    5.8657702091999910E+00    1.6106466757299916E+01
             6.3118250322999518E+00    5.8547577070999770E+00    1.6539601306199913E+01
             9.1743570612999559E+00    5.8876302391999253E+00    1.4641017735299926E+01
             7.3119999999999621E+00    5.9339999999999700E+00    2.1042999999999942E+01
             5.8129999999999882E+00    7.4339999999999691E+00    2.2991999999999869E+01
             8.8129999999999651E+00    4.4339999999999753E+00    2.2991999999999869E+01
             5.8129999999999882E+00    4.4329999999999901E+00    2.2991999999999869E+01
             8.8129999999999651E+00    7.4339999999999691E+00    2.2991999999999869E+01
             1.4779999999999893E+00    1.4779999999999893E+00    2.5081999999999912E+01
             1.4779999999999893E+00    4.4329999999999901E+00    2.5081999999999912E+01
             1.4779999999999893E+00    7.3889999999999469E+00    2.5081999999999912E+01
             4.4339999999999753E+00    1.4779999999999893E+00    2.5081999999999912E+01
             4.4339999999999753E+00    4.4329999999999901E+00    2.5081999999999912E+01
             4.4339999999999753E+00    7.3889999999999469E+00    2.5081999999999912E+01
             7.1919999999999362E+00    1.4779999999999893E+00    2.5081999999999912E+01
             7.1919999999999362E+00    4.4329999999999901E+00    2.5081999999999912E+01
             7.1919999999999362E+00    7.3889999999999469E+00    2.5081999999999912E+01
             1.0147999999999938E+01    1.4779999999999893E+00    2.5081999999999912E+01
             1.0147999999999938E+01    4.4329999999999901E+00    2.5081999999999912E+01
             1.0147999999999938E+01    7.3889999999999469E+00    2.5081999999999912E+01
             1.3103999999999925E+01    1.4779999999999893E+00    2.5081999999999912E+01
             1.3103999999999925E+01    4.4329999999999901E+00    2.5081999999999912E+01
             1.3103999999999925E+01    7.3889999999999469E+00    2.5081999999999912E+01
             0.0000000000000000E+00    0.0000000000000000E+00    2.7171999999999844E+01
             0.0000000000000000E+00    2.9549999999999872E+00    2.7171999999999844E+01
             0.0000000000000000E+00    5.9109999999999667E+00    2.7171999999999844E+01
             2.9559999999999786E+00    0.0000000000000000E+00    2.7171999999999844E+01
             2.9559999999999786E+00    2.9549999999999872E+00    2.7171999999999844E+01
             2.9559999999999786E+00    5.9109999999999667E+00    2.7171999999999844E+01
             5.9119999999999573E+00    0.0000000000000000E+00    2.7171999999999844E+01
             5.9119999999999573E+00    2.9549999999999872E+00    2.7171999999999844E+01
             5.9119999999999573E+00    5.9109999999999667E+00    2.7171999999999844E+01
             8.6699999999999395E+00    0.0000000000000000E+00    2.7171999999999844E+01
             8.6699999999999395E+00    2.9549999999999872E+00    2.7171999999999844E+01
             8.6699999999999395E+00    5.9109999999999667E+00    2.7171999999999844E+01
             1.1625999999999976E+01    0.0000000000000000E+00    2.7171999999999844E+01
             1.1625999999999976E+01    2.9549999999999872E+00    2.7171999999999844E+01
             1.1625999999999976E+01    5.9109999999999667E+00    2.7171999999999844E+01
             1.4779999999999893E+00    1.4779999999999893E+00    2.9261999999999787E+01
             1.4779999999999893E+00    4.4329999999999901E+00    2.9261999999999787E+01
             1.4779999999999893E+00    7.3889999999999469E+00    2.9261999999999787E+01
             4.4339999999999753E+00    1.4779999999999893E+00    2.9261999999999787E+01
             4.4339999999999753E+00    4.4329999999999901E+00    2.9261999999999787E+01
             4.4339999999999753E+00    7.3889999999999469E+00    2.9261999999999787E+01
             7.1919999999999362E+00    1.4779999999999893E+00    2.9261999999999787E+01
             7.1919999999999362E+00    4.4329999999999901E+00    2.9261999999999787E+01
             7.1919999999999362E+00    7.3889999999999469E+00    2.9261999999999787E+01
             1.0147999999999938E+01    1.4779999999999893E+00    2.9261999999999787E+01
             1.0147999999999938E+01    4.4329999999999901E+00    2.9261999999999787E+01
             1.0147999999999938E+01    7.3889999999999469E+00    2.9261999999999787E+01
             1.3103999999999925E+01    1.4779999999999893E+00    2.9261999999999787E+01
             1.3103999999999925E+01    4.4329999999999901E+00    2.9261999999999787E+01
             1.3103999999999925E+01    7.3889999999999469E+00    2.9261999999999787E+01
             0.0000000000000000E+00    0.0000000000000000E+00    3.1351999999999762E+01
             0.0000000000000000E+00    2.9549999999999872E+00    3.1351999999999762E+01
             0.0000000000000000E+00    5.9109999999999667E+00    3.1351999999999762E+01
             2.9559999999999786E+00    0.0000000000000000E+00    3.1351999999999762E+01
             2.9559999999999786E+00    2.9549999999999872E+00    3.1351999999999762E+01
             2.9559999999999786E+00    5.9109999999999667E+00    3.1351999999999762E+01
             5.9119999999999573E+00    0.0000000000000000E+00    3.1351999999999762E+01
             5.9119999999999573E+00    2.9549999999999872E+00    3.1351999999999762E+01
             5.9119999999999573E+00    5.9109999999999667E+00    3.1351999999999762E+01
             8.6699999999999395E+00    0.0000000000000000E+00    3.1351999999999762E+01
             8.6699999999999395E+00    2.9549999999999872E+00    3.1351999999999762E+01
             8.6699999999999395E+00    5.9109999999999667E+00    3.1351999999999762E+01
             1.1625999999999976E+01    0.0000000000000000E+00    3.1351999999999762E+01
             1.1625999999999976E+01    2.9549999999999872E+00    3.1351999999999762E+01
             1.1625999999999976E+01    5.9109999999999667E+00    3.1351999999999762E+01
             1.4779999999999893E+00    1.4779999999999893E+00    3.3441999999999787E+01
             1.4779999999999893E+00    4.4329999999999901E+00    3.3441999999999787E+01
             1.4779999999999893E+00    7.3889999999999469E+00    3.3441999999999787E+01
             4.4339999999999753E+00    1.4779999999999893E+00    3.3441999999999787E+01
             4.4339999999999753E+00    4.4329999999999901E+00    3.3441999999999787E+01
             4.4339999999999753E+00    7.3889999999999469E+00    3.3441999999999787E+01
             7.1919999999999362E+00    1.4779999999999893E+00    3.3441999999999787E+01
             7.1919999999999362E+00    4.4329999999999901E+00    3.3441999999999787E+01
             7.1919999999999362E+00    7.3889999999999469E+00    3.3441999999999787E+01
             1.0147999999999938E+01    1.4779999999999893E+00    3.3441999999999787E+01
             1.0147999999999938E+01    4.4329999999999901E+00    3.3441999999999787E+01
             1.0147999999999938E+01    7.3889999999999469E+00    3.3441999999999787E+01
             1.3103999999999925E+01    1.4779999999999893E+00    3.3441999999999787E+01
             1.3103999999999925E+01    4.4329999999999901E+00    3.3441999999999787E+01
             1.3103999999999925E+01    7.3889999999999469E+00    3.3441999999999787E+01
       &END COORD
       &VELOCITY
             0.0000000000000000E+00    0.0000000000000000E+00    0.0000000000000000E+00
             0.0000000000000000E+00    0.0000000000000000E+00    0.0000000000000000E+00
             0.0000000000000000E+00    0.0000000000000000E+00    0.0000000000000000E+00
             0.0000000000000000E+00    0.0000000000000000E+00    0.0000000000000000E+00
             0.0000000000000000E+00    0.0000000000000000E+00    0.0000000000000000E+00
             0.0000000000000000E+00    0.0000000000000000E+00    0.0000000000000000E+00
             0.0000000000000000E+00    0.0000000000000000E+00    0.0000000000000000E+00
             0.0000000000000000E+00    0.0000000000000000E+00    0.0000000000000000E+00
             0.0000000000000000E+00    0.0000000000000000E+00    0.0000000000000000E+00
             0.0000000000000000E+00    0.0000000000000000E+00    0.0000000000000000E+00
             0.0000000000000000E+00    0.0000000000000000E+00    0.0000000000000000E+00
             0.0000000000000000E+00    0.0000000000000000E+00    0.0000000000000000E+00
             0.0000000000000000E+00    0.0000000000000000E+00    0.0000000000000000E+00
             0.0000000000000000E+00    0.0000000000000000E+00    0.0000000000000000E+00
             0.0000000000000000E+00    0.0000000000000000E+00    0.0000000000000000E+00
             0.0000000000000000E+00    0.0000000000000000E+00    0.0000000000000000E+00
             0.0000000000000000E+00    0.0000000000000000E+00    0.0000000000000000E+00
             0.0000000000000000E+00    0.0000000000000000E+00    0.0000000000000000E+00
             0.0000000000000000E+00    0.0000000000000000E+00    0.0000000000000000E+00
             0.0000000000000000E+00    0.0000000000000000E+00    0.0000000000000000E+00
             0.0000000000000000E+00    0.0000000000000000E+00    0.0000000000000000E+00
             0.0000000000000000E+00    0.0000000000000000E+00    0.0000000000000000E+00
             0.0000000000000000E+00    0.0000000000000000E+00    0.0000000000000000E+00
             0.0000000000000000E+00    0.0000000000000000E+00    0.0000000000000000E+00
             0.0000000000000000E+00    0.0000000000000000E+00    0.0000000000000000E+00
             0.0000000000000000E+00    0.0000000000000000E+00    0.0000000000000000E+00
             0.0000000000000000E+00    0.0000000000000000E+00    0.0000000000000000E+00
             0.0000000000000000E+00    0.0000000000000000E+00    0.0000000000000000E+00
             0.0000000000000000E+00    0.0000000000000000E+00    0.0000000000000000E+00
             0.0000000000000000E+00    0.0000000000000000E+00    0.0000000000000000E+00
             0.0000000000000000E+00    0.0000000000000000E+00    0.0000000000000000E+00
             0.0000000000000000E+00    0.0000000000000000E+00    0.0000000000000000E+00
             0.0000000000000000E+00    0.0000000000000000E+00    0.0000000000000000E+00
             0.0000000000000000E+00    0.0000000000000000E+00    0.0000000000000000E+00
             0.0000000000000000E+00    0.0000000000000000E+00    0.0000000000000000E+00
             0.0000000000000000E+00    0.0000000000000000E+00    0.0000000000000000E+00
             0.0000000000000000E+00    0.0000000000000000E+00    0.0000000000000000E+00
             0.0000000000000000E+00    0.0000000000000000E+00    0.0000000000000000E+00
             0.0000000000000000E+00    0.0000000000000000E+00    0.0000000000000000E+00
             0.0000000000000000E+00    0.0000000000000000E+00    0.0000000000000000E+00
             0.0000000000000000E+00    0.0000000000000000E+00    0.0000000000000000E+00
             0.0000000000000000E+00    0.0000000000000000E+00    0.0000000000000000E+00
             0.0000000000000000E+00    0.0000000000000000E+00    0.0000000000000000E+00
             0.0000000000000000E+00    0.0000000000000000E+00    0.0000000000000000E+00
             0.0000000000000000E+00    0.0000000000000000E+00    0.0000000000000000E+00
             0.0000000000000000E+00    0.0000000000000000E+00    0.0000000000000000E+00
             0.0000000000000000E+00    0.0000000000000000E+00    0.0000000000000000E+00
             0.0000000000000000E+00    0.0000000000000000E+00    0.0000000000000000E+00
             0.0000000000000000E+00    0.0000000000000000E+00    0.0000000000000000E+00
             0.0000000000000000E+00    0.0000000000000000E+00    0.0000000000000000E+00
             0.0000000000000000E+00    0.0000000000000000E+00    0.0000000000000000E+00
             0.0000000000000000E+00    0.0000000000000000E+00    0.0000000000000000E+00
             0.0000000000000000E+00    0.0000000000000000E+00    0.0000000000000000E+00
             0.0000000000000000E+00    0.0000000000000000E+00    0.0000000000000000E+00
             0.0000000000000000E+00    0.0000000000000000E+00    0.0000000000000000E+00
             0.0000000000000000E+00    0.0000000000000000E+00    0.0000000000000000E+00
             0.0000000000000000E+00    0.0000000000000000E+00    0.0000000000000000E+00
             0.0000000000000000E+00    0.0000000000000000E+00    0.0000000000000000E+00
             0.0000000000000000E+00    0.0000000000000000E+00    0.0000000000000000E+00
             0.0000000000000000E+00    0.0000000000000000E+00    0.0000000000000000E+00
             0.0000000000000000E+00    0.0000000000000000E+00    0.0000000000000000E+00
             0.0000000000000000E+00    0.0000000000000000E+00    0.0000000000000000E+00
             0.0000000000000000E+00    0.0000000000000000E+00    0.0000000000000000E+00
             0.0000000000000000E+00    0.0000000000000000E+00    0.0000000000000000E+00
             0.0000000000000000E+00    0.0000000000000000E+00    0.0000000000000000E+00
             0.0000000000000000E+00    0.0000000000000000E+00    0.0000000000000000E+00
             0.0000000000000000E+00    0.0000000000000000E+00    0.0000000000000000E+00
             0.0000000000000000E+00    0.0000000000000000E+00    0.0000000000000000E+00
             0.0000000000000000E+00    0.0000000000000000E+00    0.0000000000000000E+00
             0.0000000000000000E+00    0.0000000000000000E+00    0.0000000000000000E+00
             0.0000000000000000E+00    0.0000000000000000E+00    0.0000000000000000E+00
             0.0000000000000000E+00    0.0000000000000000E+00    0.0000000000000000E+00
             0.0000000000000000E+00    0.0000000000000000E+00    0.0000000000000000E+00
             0.0000000000000000E+00    0.0000000000000000E+00    0.0000000000000000E+00
             0.0000000000000000E+00    0.0000000000000000E+00    0.0000000000000000E+00
             0.0000000000000000E+00    0.0000000000000000E+00    0.0000000000000000E+00
             0.0000000000000000E+00    0.0000000000000000E+00    0.0000000000000000E+00
             0.0000000000000000E+00    0.0000000000000000E+00    0.0000000000000000E+00
             0.0000000000000000E+00    0.0000000000000000E+00    0.0000000000000000E+00
             0.0000000000000000E+00    0.0000000000000000E+00    0.0000000000000000E+00
             0.0000000000000000E+00    0.0000000000000000E+00    0.0000000000000000E+00
             0.0000000000000000E+00    0.0000000000000000E+00    0.0000000000000000E+00
             0.0000000000000000E+00    0.0000000000000000E+00    0.0000000000000000E+00
             0.0000000000000000E+00    0.0000000000000000E+00    0.0000000000000000E+00
             0.0000000000000000E+00    0.0000000000000000E+00    0.0000000000000000E+00
             0.0000000000000000E+00    0.0000000000000000E+00    0.0000000000000000E+00
             0.0000000000000000E+00    0.0000000000000000E+00    0.0000000000000000E+00
             0.0000000000000000E+00    0.0000000000000000E+00    0.0000000000000000E+00
             0.0000000000000000E+00    0.0000000000000000E+00    0.0000000000000000E+00
             0.0000000000000000E+00    0.0000000000000000E+00    0.0000000000000000E+00
             0.0000000000000000E+00    0.0000000000000000E+00    0.0000000000000000E+00
             0.0000000000000000E+00    0.0000000000000000E+00    0.0000000000000000E+00
             0.0000000000000000E+00    0.0000000000000000E+00    0.0000000000000000E+00
             0.0000000000000000E+00    0.0000000000000000E+00    0.0000000000000000E+00
             0.0000000000000000E+00    0.0000000000000000E+00    0.0000000000000000E+00
             0.0000000000000000E+00    0.0000000000000000E+00    0.0000000000000000E+00
             0.0000000000000000E+00    0.0000000000000000E+00    0.0000000000000000E+00
             0.0000000000000000E+00    0.0000000000000000E+00    0.0000000000000000E+00
             0.0000000000000000E+00    0.0000000000000000E+00    0.0000000000000000E+00
             0.0000000000000000E+00    0.0000000000000000E+00    0.0000000000000000E+00
             0.0000000000000000E+00    0.0000000000000000E+00    0.0000000000000000E+00
             0.0000000000000000E+00    0.0000000000000000E+00    0.0000000000000000E+00
             0.0000000000000000E+00    0.0000000000000000E+00    0.0000000000000000E+00
             0.0000000000000000E+00    0.0000000000000000E+00    0.0000000000000000E+00
             0.0000000000000000E+00    0.0000000000000000E+00    0.0000000000000000E+00
             0.0000000000000000E+00    0.0000000000000000E+00    0.0000000000000000E+00
             0.0000000000000000E+00    0.0000000000000000E+00    0.0000000000000000E+00
             0.0000000000000000E+00    0.0000000000000000E+00    0.0000000000000000E+00
             0.0000000000000000E+00    0.0000000000000000E+00    0.0000000000000000E+00
             0.0000000000000000E+00    0.0000000000000000E+00    0.0000000000000000E+00
             0.0000000000000000E+00    0.0000000000000000E+00    0.0000000000000000E+00
             0.0000000000000000E+00    0.0000000000000000E+00    0.0000000000000000E+00
             0.0000000000000000E+00    0.0000000000000000E+00    0.0000000000000000E+00
             0.0000000000000000E+00    0.0000000000000000E+00    0.0000000000000000E+00
             0.0000000000000000E+00    0.0000000000000000E+00    0.0000000000000000E+00
             0.0000000000000000E+00    0.0000000000000000E+00    0.0000000000000000E+00
             0.0000000000000000E+00    0.0000000000000000E+00    0.0000000000000000E+00
             0.0000000000000000E+00    0.0000000000000000E+00    0.0000000000000000E+00
             0.0000000000000000E+00    0.0000000000000000E+00    0.0000000000000000E+00
             0.0000000000000000E+00    0.0000000000000000E+00    0.0000000000000000E+00
             0.0000000000000000E+00    0.0000000000000000E+00    0.0000000000000000E+00
             0.0000000000000000E+00    0.0000000000000000E+00    0.0000000000000000E+00
             0.0000000000000000E+00    0.0000000000000000E+00    0.0000000000000000E+00
             0.0000000000000000E+00    0.0000000000000000E+00    0.0000000000000000E+00
             0.0000000000000000E+00    0.0000000000000000E+00    0.0000000000000000E+00
             0.0000000000000000E+00    0.0000000000000000E+00    0.0000000000000000E+00
             0.0000000000000000E+00    0.0000000000000000E+00    0.0000000000000000E+00
             0.0000000000000000E+00    0.0000000000000000E+00    0.0000000000000000E+00
             0.0000000000000000E+00    0.0000000000000000E+00    0.0000000000000000E+00
             0.0000000000000000E+00    0.0000000000000000E+00    0.0000000000000000E+00
             0.0000000000000000E+00    0.0000000000000000E+00    0.0000000000000000E+00
             0.0000000000000000E+00    0.0000000000000000E+00    0.0000000000000000E+00
             0.0000000000000000E+00    0.0000000000000000E+00    0.0000000000000000E+00
             0.0000000000000000E+00    0.0000000000000000E+00    0.0000000000000000E+00
             0.0000000000000000E+00    0.0000000000000000E+00    0.0000000000000000E+00
             0.0000000000000000E+00    0.0000000000000000E+00    0.0000000000000000E+00
             0.0000000000000000E+00    0.0000000000000000E+00    0.0000000000000000E+00
             0.0000000000000000E+00    0.0000000000000000E+00    0.0000000000000000E+00
             0.0000000000000000E+00    0.0000000000000000E+00    0.0000000000000000E+00
             0.0000000000000000E+00    0.0000000000000000E+00    0.0000000000000000E+00
             0.0000000000000000E+00    0.0000000000000000E+00    0.0000000000000000E+00
             0.0000000000000000E+00    0.0000000000000000E+00    0.0000000000000000E+00
             0.0000000000000000E+00    0.0000000000000000E+00    0.0000000000000000E+00
             0.0000000000000000E+00    0.0000000000000000E+00    0.0000000000000000E+00
             0.0000000000000000E+00    0.0000000000000000E+00    0.0000000000000000E+00