         0      -5729.782607898      -5729.713868994      -5729.737335714      -5729.709313310      -5729.772184594          1.232516705          1.232516705          1.131633098          1.131633098
         1      -5729.782607899      -5729.795169896      -5729.800071207      -5729.785566339      -5729.772184595          1.345394161          1.301921925          1.210494849          1.243905435
         2      -5729.782607899      -5729.850840773      -5729.837703961      -5729.838098946      -5729.772184595          1.401153932          1.232226643          1.157590437          1.312535752
         3      -5729.782607899      -5729.889264461      -5729.867287459      -5729.877983277      -5729.772184594          1.427719043          1.261915553          1.217010183          1.346123547
         4      -5729.782607899      -5729.905446937      -5729.882548027      -5729.893461438      -5729.772184595          1.438574025          1.304739541          1.254325232          1.361163125
         5      -5729.782607898      -5729.918472086      -5729.892677075      -5729.907397702      -5729.772184594          1.451458211          1.376168523          1.338188491          1.375261369
         6      -5729.782607898      -5729.927463085      -5729.901434114      -5729.915605582      -5729.772184595          1.462107693          1.423578599          1.381104639          1.388811741
         7      -5729.782607898      -5729.933583314      -5729.904618127      -5729.923585222      -5729.772184595          1.468032539          1.462571711          1.410127728          1.394731373
         8      -5729.782607899      -5729.964068787      -5729.934871086      -5729.946397657      -5729.772184594          1.738830490          2.028916612          1.785336003          1.656483574
         9      -5729.782607899      -5729.972410938      -5729.936475072      -5729.960101823      -5729.772184594          1.752597432          2.009107834          1.759731061          1.670495040
        10      -5729.782607899      -5729.974688446      -5729.938571446      -5729.962673673      -5729.772184595          1.773252079          2.022188571          1.769003453          1.680560007
        11      -5729.782607898      -5729.976748202      -5729.940837811      -5729.963817198      -5729.772184595          1.797713373          2.031387173          1.765571691          1.690522350
        12      -5729.782607898      -5729.977935836      -5729.941746810      -5729.965666273      -5729.772184595          1.808201097          2.043167880          1.775222095          1.694997203
        13      -5729.782607898      -5729.994683409      -5729.959281388      -5729.969458861      -5729.772184595          2.148380055          2.248959694          1.922145570          1.863173157
        14      -5729.782607899      -5729.996649757      -5729.960211689      -5729.978013298      -5729.772184595          2.152679417          2.253404468          1.916299758          1.869003654
        15      -5729.782607899      -5729.997611586      -5729.962131514      -5729.978239304      -5729.772184595          2.165455472          2.270558965          1.941146687          1.876507515
        16      -5729.782607898      -5729.998131305      -5729.963107126      -5729.979216001      -5729.772184595          2.172433921          2.280641143          1.943393787          1.880771937
        17      -5729.782607899      -5729.998446460      -5729.963701919      -5729.979696377      -5729.772184595          2.177110517          2.286625935          1.950627449          1.883494286
        18      -5729.782607899      -5730.013121161      -5729.986485093      -5729.977732986      -5729.772184595          2.603460784          2.789650374          2.539930202          2.132920802
        19      -5729.782607899      -5730.014407415      -5729.990908934      -5729.983689720      -5729.772184595          2.612384231          2.778168929          2.541778970          2.124765972
        20      -5729.782607899      -5730.015510532      -5729.994954152      -5729.985877497      -5729.772184595          2.623552603          2.792801272          2.566227562          2.098391714
        21      -5729.782607899      -5730.016402181      -5729.998350029      -5729.985389000      -5729.772184594          2.636278685          2.803412044          2.587499194          2.059520494
        22      -5729.782607898      -5730.016735744      -5729.999830429      -5729.986366979      -5729.772184595          2.642181472          2.816560310          2.605113761          2.037689840
        23      -5729.782607898      -5730.019610476      -5730.011372203      -5729.971509338      -5729.772184595          2.718068743          2.938479850          2.849472330          1.750828975
        24      -5729.782607898      -5730.020044266      -5730.012945830      -5729.969037125      -5729.772184595          2.731986173          2.953885176          2.901061084          1.686429723
        25      -5729.782607898      -5730.020527123      -5730.014655618      -5729.965160930      -5729.772184595          2.748311261          2.968277998          2.967331814          1.606977476
        26      -5729.782607898      -5730.020988558      -5730.016253819      -5729.960326589      -5729.772184595          2.764339207          2.986958545          3.029033878          1.524856001
        27      -5729.782607899      -5730.021197939      -5730.016976241      -5729.960092229      -5729.772184595          2.771683119          2.991934237          3.058862247          1.485069339
        28      -5729.782607898      -5730.004368634      -5729.927456474      -5729.935890891      -5729.772184594          2.274151720          2.887164580          3.442558375          4.708607003
        29      -5729.782607899      -5730.004724310      -5729.930069104      -5729.953327257      -5729.772184595          2.281281505          2.868168568          3.454814445          4.695272215
        30      -5729.782607899      -5730.006151274      -5729.944830656      -5730.006672742      -5729.772184595          2.313352729          2.759303083          3.488126228          4.639329307
        31      -5729.782607899      -5730.007448567      -5729.967030434      -5730.024101544      -5729.772184595          2.345148654          2.633096613          3.386998193          4.563906238
        32      -5729.782607899      -5730.008109435      -5729.976918416      -5730.027940330      -5729.772184595          2.361659775          2.577804758          3.299914764          4.498752369
        33      -5729.782607899      -5730.009949837      -5729.984353345      -5730.033359073      -5729.772184595          2.411394624          2.470078851          3.072688052          4.239394073
        34      -5729.782607899      -5730.010143034      -5729.990820469      -5730.034536587      -5729.772184594          2.415334623          2.504221378          3.094353251          4.167008083
        35      -5729.782607898      -5730.010412186      -5729.992760383      -5730.034893697      -5729.772184595          2.421904571          2.502032485          3.063876572          4.090855621
        36      -5729.782607899      -5730.010627737      -5729.994717372      -5730.035170153      -5729.772184595          2.427137300          2.515054137          3.052390945          4.025034410
        37      -5729.782607898      -5730.010745838      -5729.996498358      -5730.035551214      -5729.772184594          2.430057054          2.515976123          3.038288946          3.993428836
        38      -5729.782607898      -5730.013766033      -5730.018241571      -5730.007468217      -5729.772184594          2.514119158          2.724064904          3.143481536          3.122903400
        39      -5729.782607899      -5730.014042657      -5730.021720653      -5730.015357066      -5729.772184595          2.522401158          2.710581678          3.111597405          3.102783062
        40      -5729.782607899      -5730.012464668      -5730.023424187      -5730.015889356      -5729.772184595          2.468556612          2.767489535          3.102138028          3.105024897
        41      -5729.782607898      -5730.011327961      -5730.024570601      -5730.017234100      -5729.772184595          2.432131716          2.811085293          3.092607129          3.105945816
        42      -5729.782607899      -5730.010297560      -5730.026699017      -5730.016570776      -5729.772184595          2.399811135          2.872738078          3.141001364          3.062378903
        43      -5729.782607899      -5730.009220154      -5730.028331646      -5730.015848677      -5729.772184595          2.367430854          2.925658419          3.167088033          3.033906821
        44      -5729.782607899      -5730.008031224      -5730.029334993      -5730.016453076      -5729.772184595          2.332636809          2.960104586          3.167200903          3.040647132
        45      -5729.782607899      -5729.936692400      -5730.048219937      -5730.002150665      -5729.772184595          1.026252320          4.762851094          3.678278773          3.340105580
        46      -5729.782607898      -5729.928345618      -5730.052081450      -5730.015881866      -5729.772184595          0.922286087          4.799640861          3.683330890          3.364710000
        47      -5729.782607898      -5729.903766636      -5730.043571797      -5730.015130058      -5729.772184595          0.668756694          4.901579451          3.603598541          3.409885763
        48      -5729.782607899      -5729.885579504      -5730.049338951      -5730.021444054      -5729.772184595          0.525627974          4.939936702          3.563362744          3.423675409
        49      -5729.782607898      -5729.859045943      -5730.053132658      -5730.023163229      -5729.772184594          0.352733819          4.989977285          3.526483082          3.432628289
        50      -5729.782607899      -5729.835546904      -5730.053752452      -5730.024061181      -5729.772184595          0.226555046          5.016275000          3.494900138          3.436093015
        51      -5729.782607898      -5729.945719074      -5730.054300072      -5730.017477008      -5729.772184594          1.739605839          4.958291379          3.819967911          3.419775710
        52      -5729.782607898      -5729.959528960      -5730.056144041      -5730.019867414      -5729.772184594          1.793697704          4.807952790          3.737058342          3.447324508
        53      -5729.782607899      -5729.965038519      -5730.056597457      -5730.022217323      -5729.772184595          1.836171186          4.639755488          3.670742368          3.474567775
        54      -5729.782607898      -5729.972906665      -5730.056866248      -5730.023673885      -5729.772184595          1.856521789          4.535977856          3.640495689          3.487023755
        55      -5729.782607899      -5729.976246281      -5730.056982420      -5730.024446961      -5729.772184594          1.859697805          4.482048104          3.624002613          3.492912143
        56      -5729.782607898      -5729.987526343      -5730.056978274      -5730.030143274      -5729.772184595          1.911921456          3.840772489          3.484199944          3.569467948
        57      -5729.782607899      -5729.987512737      -5730.057180424      -5730.030203744      -5729.772184595          1.868894730          3.827574335          3.478452139          3.563549224
        58      -5729.782607899      -5729.986428943      -5730.057277849      -5730.030229858      -5729.772184595          1.817979824          3.820519409          3.480475841          3.557284244
        59      -5729.782607898      -5729.984305853      -5730.057338193      -5730.030237675      -5729.772184595          1.760754787          3.821581602          3.481078763          3.551446513
        60      -5729.782607899      -5729.984215943      -5730.057379518      -5730.030253765      -5729.772184595          1.732844846          3.823327906          3.481310280          3.549072884
        61      -5729.782607899      -5729.962293838      -5730.054104856      -5730.028083813      -5729.772184595          3.195613834          3.936080272          3.558903815          3.666424493
        62      -5729.782607899      -5729.984881358      -5730.054794737      -5730.028729310      -5729.772184594          3.240407807          3.869142879          3.547057125          3.661335964
        63      -5729.782607898      -5729.989064190      -5730.055791664      -5730.029520335      -5729.772184594          3.321265485          3.732861252          3.538867278          3.647273499
        64      -5729.782607899      -5729.993614973      -5730.056276753      -5730.029869147      -5729.772184595          3.353231072          3.686933029          3.543275662          3.641586166
        65      -5729.782607899      -5729.998289834      -5730.057042762      -5730.030293048      -5729.772184594          3.408740516          3.605985712          3.549806378          3.631963619
        66      -5729.782607898      -5730.003800662      -5730.060776403      -5730.031007499      -5729.772184595          3.692078174          3.265243196          3.610991393          3.591953221
        67      -5729.782607899      -5730.015138399      -5730.061259049      -5730.031339797      -5729.772184595          3.714772907          3.256477334          3.619764361          3.592899996
        68      -5729.782607898      -5730.019011793      -5730.061626395      -5730.031427461      -5729.772184595          3.730400862          3.249789779          3.625179571          3.594436689
        69      -5729.782607899      -5730.020916518      -5730.062254063      -5730.031593886      -5729.772184595          3.760238298          3.242574408          3.637075289          3.598581494
        70      -5729.782607899      -5730.024347530      -5730.062599058      -5730.031689921      -5729.772184595          3.770350912          3.244205736          3.642969686          3.600719617
        71      -5729.782607899      -5730.026021134      -5730.062912268      -5730.031848563      -5729.772184595          3.788879424          3.249045079          3.650696802          3.606493967
        72      -5729.782607898      -5730.028814960      -5730.063209110      -5730.031945188      -5729.772184595          3.792348116          3.253013884          3.652868809          3.608163451
        73      -5729.782607899      -5730.034800576      -5730.063403175      -5730.033180993      -5729.772184595          3.893835783          3.377533480          3.689921613          3.653127482
        74      -5729.782607898      -5730.043953986      -5730.063897580      -5730.032904322      -5729.772184595          3.877999789          3.394709203          3.698580548          3.638509177
        75      -5729.782607899      -5730.042020534      -5730.063342081      -5730.031481309      -5729.772184595          3.806146804          3.425777649          3.698471610          3.573949987
        76      -5729.782607898      -5730.043531278      -5730.063193469      -5730.031011390      -5729.772184595          3.789613979          3.435043888          3.701591793          3.553289663
        77      -5729.782607898      -5730.043411849      -5730.062918128      -5730.030193082      -5729.772184595          3.764244507          3.446028862          3.705493952          3.517897000
        78      -5729.782607898      -5730.041087792      -5730.062141799      -5730.027980662      -5729.772184595          3.703778577          3.471166120          3.717064406          3.425627439
        79      -5729.782607898      -5730.042880201      -5730.061988195      -5730.027496199      -5729.772184595          3.695173498          3.475742323          3.721497112          3.405723817
        80      -5729.782607899      -5730.037786951      -5730.060131678      -5730.022037382      -5729.772184595          3.606153361          3.504068202          3.762385788          3.192555377
        81      -5729.782607898      -5730.041791374      -5730.059938151      -5730.021488593      -5729.772184595          3.603405293          3.504964942          3.768387321          3.171644807
        82      -5729.782607899      -5730.036918399      -5730.057694316      -5730.015358277      -5729.772184595          3.566740271          3.478339946          3.813984840          2.947536110
        83      -5729.782607898      -5730.041234571      -5730.057443318      -5730.014688747      -5729.772184595          3.564558369          3.474574768          3.817884734          2.923910200
        84      -5729.782607899      -5730.041170481      -5730.056982412      -5730.013527768      -5729.772184594          3.559268597          3.462414227          3.822385547          2.883374107
        85      -5729.782607899      -5730.034414239      -5730.053724752      -5730.005520515      -5729.772184595          3.521315272          3.377269095          3.853924998          2.617067243
        86      -5729.782607898      -5730.040341317      -5730.053298685      -5730.004682759      -5729.772184595          3.517630423          3.369254380          3.855558134          2.590607492
        87      -5729.782607898      -5730.033320251      -5730.050147020      -5729.997286341      -5729.772184595          3.474170882          3.272500118          3.865083166          2.366852070
        88      -5729.782607899      -5730.038901562      -5730.049563809      -5729.996107508      -5729.772184594          3.467854517          3.260045289          3.865793372          2.333102793
        89      -5729.782607899      -5730.035953467      -5730.047856471      -5729.992229805      -5729.772184595          3.441932616          3.208181298          3.866524678          2.225077093
        90      -5729.782607898      -5730.037951170      -5730.047113446      -5729.990615677      -5729.772184595          3.431589206          3.189422815          3.866346424          2.181663852
        91      -5729.782607899      -5730.035283764      -5730.045259885      -5729.986612960      -5729.772184595          3.404450730          3.138604013          3.866187503          2.077326440
        92      -5729.782607898      -5730.036982791      -5730.044457987      -5729.984690763      -5729.772184595          3.392089817          3.117619945          3.866229114          2.029145456
        93      -5729.782607899      -5730.037398596      -5730.044275087      -5729.983398894      -5729.772184595          3.383177202          3.101703433          3.866146910          1.997422510
        94      -5729.782607898      -5730.019229140      -5730.066607273      -5730.034681578      -5729.772184595          3.874892050          4.024173352          3.993313473          3.745124225
        95      -5729.782607898      -5730.042363824      -5730.067672683      -5730.034946086      -5729.772184595          3.873758786          4.016096329          3.990596023          3.754560860
        96      -5729.782607898      -5730.047583330      -5730.067912088      -5730.034749130      -5729.772184595          3.882373227          4.008222432          4.000972301          3.736908264
        97      -5729.782607899      -5730.047928172      -5730.068158483      -5730.033901376      -5729.772184595          3.901274994          3.988465320          4.023748244          3.684318556
        98      -5729.782607899      -5730.048393767      -5730.068215357      -5730.033433785      -5729.772184595          3.907376429          3.983070663          4.033889635          3.660802035
        99      -5729.782607898      -5730.048223122      -5730.068193499      -5730.032141137      -5729.772184595          3.918519488          3.969271819          4.057618886          3.600761779
       100      -5729.782607898      -5730.048864601      -5730.068181115      -5730.031753177      -5729.772184595          3.920576328          3.964014574          4.063697981          3.583477557
       101      -5729.782607898      -5729.991102020      -5730.052810691      -5729.963805832      -5729.772184595          4.125164376          3.525744342          4.896441743          1.840336595
       102      -5729.782607899      -5730.021419648      -5730.054456562      -5729.963022962      -5729.772184595          4.120319258          3.549184733          4.906683674          1.761285523
       103      -5729.782607899      -5730.051612138      -5730.055278021      -5729.961560415      -5729.772184595          4.097406699          3.510280605          4.904191973          1.695927384
       104      -5729.782607899      -5730.051595936      -5730.054124695      -5729.958877202      -5729.772184595          4.056736624          3.443441624          4.900977216          1.606561085
       105      -5729.782607898      -5730.051167318      -5730.057136393      -5729.957340907      -5729.772184595          4.039017483          3.424505427          4.898363347          1.564107495
       106      -5729.782607898      -5729.994021195      -5730.015144943      -5729.905249595      -5729.772184595          3.534418795          2.799921281          4.816327379          0.837737004
       107      -5729.782607899      -5730.015074058      -5730.028671916      -5729.900062333      -5729.772184595          3.524934531          2.804145423          4.690960662          0.758276301
       108      -5729.782607899      -5730.035113340      -5730.026573291      -5729.888587929      -5729.772184595          3.490626528          2.781341022          4.538860153          0.633224720
       109      -5729.782607898      -5730.011109071      -5730.018835187      -5729.838226978      -5729.772184594          3.399564629          2.691274060          4.293282289          0.296035340
       110      -5729.782607899      -5730.035024979      -5730.017757454      -5729.797990798      -5729.772184595          3.371306769          2.685037103          4.335413032          0.103385367
       111      -5729.782607899      -5730.035400678      -5730.016748203      -5729.763755129      -5729.772184595          3.351187021          2.669341126          4.316659375          0.040201317
       112      -5729.782607899      -5730.035253781      -5730.016017461      -5729.786828699      -5729.772184594          3.341068381          2.663159763          4.286429915          0.060742484
       113      -5729.782607898      -5730.035146275      -5730.015568504      -5729.778550765      -5729.772184595          3.334975442          2.659547312          4.264276459          0.025951924
       114      -5729.782607899      -5730.035013862      -5730.015075530      -5729.768397176      -5729.772184595          3.328198013          2.655684635          4.286180076          0.030293493
       115      -5729.782607898      -5730.034794813      -5730.014287475      -5729.787007925      -5729.772184595          3.317870186          2.649989105          4.266727177          0.080302979
       116      -5729.782607899      -5730.034677072      -5730.013894301      -5729.787030773      -5729.772184595          3.312652744          2.647217396          4.218669343          0.059796958
       117      -5729.782607898      -5730.034560833      -5730.013528162      -5729.778964589      -5729.772184594          3.307614606          2.644647838          4.200240357          0.025970873
       118      -5729.782607898      -5730.033122683      -5730.009192886      -5729.633998718      -5729.772184594          3.248993974          2.617069245          4.380284437          0.437729016
       119      -5729.782607899      -5730.032451603      -5730.006440949      -5729.740363734      -5729.772184595          3.222362229          2.607029831          4.321722445          0.330688012
       120      -5729.782607898      -5730.032239955      -5730.005632740      -5729.749177550      -5729.772184595          3.214007476          2.604049008          4.339753786          0.374569375
       121      -5729.782607898      -5730.031473048      -5730.002613078      -5729.695159194      -5729.772184595          3.183880764          2.594248267          4.262696507          0.411511764
       122      -5729.782607899      -5730.027575337      -5729.985890041      -5729.691242160      -5729.772184594          3.033828414          2.581108864          4.565025958          1.930885012
       123      -5729.782607899      -5730.026465922      -5729.981373049      -5729.682342461      -5729.772184595          2.990235156          2.583084875          4.297970031          2.342736424
       124      -5729.782607898      -5730.025093878      -5729.970855971      -5729.701629878      -5729.772184595          2.937102411          2.606415573          4.244296943          3.008623809
       125      -5729.782607898      -5730.024540376      -5729.966785853      -5729.746481415      -5729.772184594          2.915545036          2.601447428          4.127825976          3.207461394
       126      -5729.782607898      -5730.024068935      -5729.965002967      -5729.759269341      -5729.772184594          2.897543731          2.640199329          4.149664471          3.392710876
       127      -5729.782607899      -5730.023603076      -5729.971479018      -5729.754054409      -5729.772184594          2.879534302          2.643082202          4.156750384          3.599833843
       128      -5729.782607898      -5730.023037829      -5729.968808264      -5729.745330855      -5729.772184595          2.857752644          2.670768733          4.173946393          3.855408180
       129      -5729.782607899      -5730.022462583      -5729.963906511      -5729.731233458      -5729.772184595          2.835617308          2.706965467          4.198528618          4.148967667
       130      -5729.782607898      -5730.022262085      -5729.960989919      -5729.727431038      -5729.772184594          2.827287431          2.736018343          4.199552287          4.308498786
       131      -5729.782607899      -5730.021669736      -5729.949336015      -5729.703729487      -5729.772184594          2.802744061          2.862178401          4.247491013          4.882966627
       132      -5729.782607899      -5730.022350227      -5729.939518995      -5729.700848978      -5729.772184595          2.822548468          3.000599226          4.232420882          5.263329818
       133      -5729.782607899      -5730.024483471      -5729.929367663      -5729.712549985      -5729.772184594          2.894364706          3.177207785          4.150268242          5.542811486
       134      -5729.782607899      -5730.024947911      -5729.927463750      -5729.710845046      -5729.772184595          2.910289494          3.208311795          4.159173404          5.625805512
       135      -5729.782607899      -5730.031798525      -5729.882499795      -5729.661885240      -5729.772184595          3.175374770          3.762290785          4.489114224          7.019489905
       136      -5729.782607899      -5730.032357761      -5729.890942436      -5729.664104485      -5729.772184595          3.198518942          3.798855193          4.511160527          7.078128969
       137      -5729.782607898      -5730.034122703      -5729.873931948      -5729.665917746      -5729.772184595          3.275175053          3.814987974          4.590534934          7.270351621
       138      -5729.782607898      -5730.034602742      -5729.888420711      -5729.666177226      -5729.772184595          3.296360792          3.856553294          4.612088124          7.324222265
       139      -5729.782607899      -5730.036211341      -5729.872105876      -5729.666955353      -5729.772184595          3.370231746          3.873720389          4.687458781          7.509662981
       140      -5729.782607898      -5730.036593573      -5729.886543202      -5729.667346142      -5729.772184595          3.388029054          3.909337197          4.704448490          7.555288934
       141      -5729.782607899      -5730.040559788      -5729.840750476      -5729.671635647      -5729.772184594          3.588610228          4.019311551          4.904157249          8.071328710
       142      -5729.782607898      -5730.040853003      -5729.878421905      -5729.672568766      -5729.772184595          3.604047698          4.071494449          4.918395647          8.110178875
       143      -5729.782607899      -5730.042062242      -5729.864377474      -5729.676458659      -5729.772184595          3.667886473          4.097969455          4.968893740          8.265122706
       144      -5729.782607898      -5730.042423427      -5729.875900972      -5729.677880717      -5729.772184595          3.687146106          4.136496793          4.983760243          8.312190536
       145      -5729.782607899      -5730.043691852      -5729.873894768      -5729.682909240      -5729.772184594          3.756697531          4.194440636          5.036258640          8.479655065
       146      -5729.782607898      -5730.044820750      -5729.860598919      -5729.688261534      -5729.772184595          3.819889264          4.224107179          5.078870260          8.624873257
       147      -5729.782607898      -5730.045104909      -5729.872868907      -5729.689804515      -5729.772184595          3.835851699          4.254968820          5.089023377          8.661458346
       148      -5729.782607899      -5730.048316296      -5729.842438515      -5729.707095119      -5729.772184595          4.025336634          4.394627873          5.208723136          9.094079923
       149      -5729.782607899      -5730.048559723      -5729.867852145      -5729.708839033      -5729.772184594          4.040045856          4.434748425          5.217617301          9.125036260