 # Version information for this restart file 
 # current date 2024-01-12 19:01:28.809
 # current working dir /gpfs/home/cahart/transport/melamine/au_from-h2/ci-neb/ts2-fixed/dft_leads-sz_tip-dzvp_surf-dzvp_kpoints-2-4-20_replicas-5
 # Program compiled at                              Thu 21 Sep 19:20:17 BST 2023
 # Program compiled on                                           hx1-c12-login-1
 # Program compiled for                                                    local
 # Source code revision number                                       git:5518aa6
 &GLOBAL
   EXTENDED_FFT_LENGTHS  T
   PRINT_LEVEL  MEDIUM
   PROJECT_NAME 2_dft_wfn-r-0
   OUTPUT_FILE_NAME 2_dft_wfn-r-0.out
   RUN_TYPE  BAND
 &END GLOBAL
 &MOTION
   &BAND
     NPROC_REP  64
     BAND_TYPE  CI-NEB
     NUMBER_OF_REPLICA  5
     K_SPRING     5.0000000000000003E-02
     &CI_NEB
       NSTEPS_IT  5
     &END CI_NEB
     &OPTIMIZE_BAND
       OPT_TYPE  DIIS
       &DIIS
         MAX_STEPS  1000
       &END DIIS
     &END OPTIMIZE_BAND
     &REPLICA
       &COORD
             0.0000000000000000E+00    0.0000000000000000E+00    0.0000000000000000E+00
             0.0000000000000000E+00    2.9549999999999956E+00    0.0000000000000000E+00
             0.0000000000000000E+00    5.9109999999999898E+00    0.0000000000000000E+00
             2.9559999999999960E+00    0.0000000000000000E+00    0.0000000000000000E+00
             2.9559999999999960E+00    2.9549999999999956E+00    0.0000000000000000E+00
             2.9559999999999960E+00    5.9109999999999898E+00    0.0000000000000000E+00
             5.9119999999999919E+00    0.0000000000000000E+00    0.0000000000000000E+00
             5.9119999999999919E+00    2.9549999999999956E+00    0.0000000000000000E+00
             5.9119999999999919E+00    5.9109999999999898E+00    0.0000000000000000E+00
             8.6699999999999893E+00    0.0000000000000000E+00    0.0000000000000000E+00
             8.6699999999999893E+00    2.9549999999999956E+00    0.0000000000000000E+00
             8.6699999999999893E+00    5.9109999999999898E+00    0.0000000000000000E+00
             1.1625999999999983E+01    0.0000000000000000E+00    0.0000000000000000E+00
             1.1625999999999983E+01    2.9549999999999956E+00    0.0000000000000000E+00
             1.1625999999999983E+01    5.9109999999999898E+00    0.0000000000000000E+00
             1.4779999999999980E+00    1.4779999999999980E+00    2.0899999999999967E+00
             1.4779999999999980E+00    4.4329999999999936E+00    2.0899999999999967E+00
             1.4779999999999980E+00    7.3889999999999896E+00    2.0899999999999967E+00
             4.4339999999999948E+00    1.4779999999999980E+00    2.0899999999999967E+00
             4.4339999999999948E+00    4.4329999999999936E+00    2.0899999999999967E+00
             4.4339999999999948E+00    7.3889999999999896E+00    2.0899999999999967E+00
             7.1919999999999904E+00    1.4779999999999980E+00    2.0899999999999967E+00
             7.1919999999999904E+00    4.4329999999999936E+00    2.0899999999999967E+00
             7.1919999999999904E+00    7.3889999999999896E+00    2.0899999999999967E+00
             1.0147999999999985E+01    1.4779999999999980E+00    2.0899999999999967E+00
             1.0147999999999985E+01    4.4329999999999936E+00    2.0899999999999967E+00
             1.0147999999999985E+01    7.3889999999999896E+00    2.0899999999999967E+00
             1.3103999999999981E+01    1.4779999999999980E+00    2.0899999999999967E+00
             1.3103999999999981E+01    4.4329999999999936E+00    2.0899999999999967E+00
             1.3103999999999981E+01    7.3889999999999896E+00    2.0899999999999967E+00
             0.0000000000000000E+00    0.0000000000000000E+00    4.1799999999999935E+00
             0.0000000000000000E+00    2.9549999999999956E+00    4.1799999999999935E+00
             0.0000000000000000E+00    5.9109999999999898E+00    4.1799999999999935E+00
             2.9559999999999960E+00    0.0000000000000000E+00    4.1799999999999935E+00
             2.9559999999999960E+00    2.9549999999999956E+00    4.1799999999999935E+00
             2.9559999999999960E+00    5.9109999999999898E+00    4.1799999999999935E+00
             5.9119999999999919E+00    0.0000000000000000E+00    4.1799999999999935E+00
             5.9119999999999919E+00    2.9549999999999956E+00    4.1799999999999935E+00
             5.9119999999999919E+00    5.9109999999999898E+00    4.1799999999999935E+00
             8.6699999999999893E+00    0.0000000000000000E+00    4.1799999999999935E+00
             8.6699999999999893E+00    2.9549999999999956E+00    4.1799999999999935E+00
             8.6699999999999893E+00    5.9109999999999898E+00    4.1799999999999935E+00
             1.1625999999999983E+01    0.0000000000000000E+00    4.1799999999999935E+00
             1.1625999999999983E+01    2.9549999999999956E+00    4.1799999999999935E+00
             1.1625999999999983E+01    5.9109999999999898E+00    4.1799999999999935E+00
             1.4779999999999980E+00    1.4779999999999980E+00    6.2699999999999907E+00
             1.4779999999999980E+00    4.4329999999999936E+00    6.2699999999999907E+00
             1.4779999999999980E+00    7.3889999999999896E+00    6.2699999999999907E+00
             4.4339999999999948E+00    1.4779999999999980E+00    6.2699999999999907E+00
             4.4339999999999948E+00    4.4329999999999936E+00    6.2699999999999907E+00
             4.4339999999999948E+00    7.3889999999999896E+00    6.2699999999999907E+00
             7.1919999999999904E+00    1.4779999999999980E+00    6.2699999999999907E+00
             7.1919999999999904E+00    4.4329999999999936E+00    6.2699999999999907E+00
             7.1919999999999904E+00    7.3889999999999896E+00    6.2699999999999907E+00
             1.0147999999999985E+01    1.4779999999999980E+00    6.2699999999999907E+00
             1.0147999999999985E+01    4.4329999999999936E+00    6.2699999999999907E+00
             1.0147999999999985E+01    7.3889999999999896E+00    6.2699999999999907E+00
             1.3103999999999981E+01    1.4779999999999980E+00    6.2699999999999907E+00
             1.3103999999999981E+01    4.4329999999999936E+00    6.2699999999999907E+00
             1.3103999999999981E+01    7.3889999999999896E+00    6.2699999999999907E+00
             0.0000000000000000E+00    0.0000000000000000E+00    8.3599999999999870E+00
             0.0000000000000000E+00    2.9549999999999956E+00    8.3599999999999870E+00
             0.0000000000000000E+00    5.9109999999999898E+00    8.3599999999999870E+00
             2.9559999999999960E+00    0.0000000000000000E+00    8.3599999999999870E+00
             2.9559999999999960E+00    2.9549999999999956E+00    8.3599999999999870E+00
             2.9559999999999960E+00    5.9109999999999898E+00    8.3599999999999870E+00
             5.9119999999999919E+00    0.0000000000000000E+00    8.3599999999999870E+00
             5.9119999999999919E+00    2.9549999999999956E+00    8.3599999999999870E+00
             5.9119999999999919E+00    5.9109999999999898E+00    8.3599999999999870E+00
             8.6699999999999893E+00    0.0000000000000000E+00    8.3599999999999870E+00
             8.6699999999999893E+00    2.9549999999999956E+00    8.3599999999999870E+00
             8.6699999999999893E+00    5.9109999999999898E+00    8.3599999999999870E+00
             1.1625999999999983E+01    0.0000000000000000E+00    8.3599999999999870E+00
             1.1625999999999983E+01    2.9549999999999956E+00    8.3599999999999870E+00
             1.1625999999999983E+01    5.9109999999999898E+00    8.3599999999999870E+00
             1.4779999999999980E+00    1.4779999999999980E+00    1.0449999999999983E+01
             1.4779999999999980E+00    4.4329999999999936E+00    1.0449999999999983E+01
             1.4779999999999980E+00    7.3889999999999896E+00    1.0449999999999983E+01
             4.4339999999999948E+00    1.4779999999999980E+00    1.0449999999999983E+01
             4.4339999999999948E+00    4.4329999999999936E+00    1.0449999999999983E+01
             4.4339999999999948E+00    7.3889999999999896E+00    1.0449999999999983E+01
             7.1919999999999904E+00    1.4779999999999980E+00    1.0449999999999983E+01
             7.1919999999999904E+00    4.4329999999999936E+00    1.0449999999999983E+01
             7.1919999999999904E+00    7.3889999999999896E+00    1.0449999999999983E+01
             1.0147999999999985E+01    1.4779999999999980E+00    1.0449999999999983E+01
             1.0147999999999985E+01    4.4329999999999936E+00    1.0449999999999983E+01
             1.0147999999999985E+01    7.3889999999999896E+00    1.0449999999999983E+01
             1.3103999999999981E+01    1.4779999999999980E+00    1.0449999999999983E+01
             1.3103999999999981E+01    4.4329999999999936E+00    1.0449999999999983E+01
             1.3103999999999981E+01    7.3889999999999896E+00    1.0449999999999983E+01
             4.8553999999999942E+00    5.9118999999999913E+00    1.2031799999999985E+01
             9.5279999999999863E+00    5.9136999999999915E+00    1.2033999999999985E+01
             7.1919999999999904E+00    5.9339999999999913E+00    1.2039999999999983E+01
             4.0673339927999947E+00    5.9059993219999916E+00    1.2687741368899982E+01
             1.0318905404799986E+01    5.9087793825999917E+00    1.2685747073199984E+01
             5.9989554221999928E+00    5.9152564165999921E+00    1.2792642411199980E+01
             8.3738707292999877E+00    5.9179777706999914E+00    1.2731457252199986E+01
             8.3227525761999868E+00    5.9051536094999912E+00    1.4080497642099980E+01
             5.9344285048999916E+00    5.8981604864999913E+00    1.4101749969599984E+01
             7.1039653576999902E+00    5.8899410688999909E+00    1.4828703219099983E+01
             7.2416021046999886E+00    5.8657702091999910E+00    1.6106466757299984E+01
             6.3118250322999918E+00    5.8547577070999912E+00    1.6539601306199980E+01
             9.1743570612999896E+00    5.8876302391999920E+00    1.4641017735299979E+01
             7.3119999999999896E+00    5.9339999999999913E+00    2.1042999999999967E+01
             5.8129999999999917E+00    7.4339999999999886E+00    2.2991999999999965E+01
             8.8129999999999846E+00    4.4339999999999948E+00    2.2991999999999965E+01
             5.8129999999999917E+00    4.4329999999999936E+00    2.2991999999999965E+01
             8.8129999999999846E+00    7.4339999999999886E+00    2.2991999999999965E+01
             1.4779999999999980E+00    1.4779999999999980E+00    2.5081999999999969E+01
             1.4779999999999980E+00    4.4329999999999936E+00    2.5081999999999969E+01
             1.4779999999999980E+00    7.3889999999999896E+00    2.5081999999999969E+01
             4.4339999999999948E+00    1.4779999999999980E+00    2.5081999999999969E+01
             4.4339999999999948E+00    4.4329999999999936E+00    2.5081999999999969E+01
             4.4339999999999948E+00    7.3889999999999896E+00    2.5081999999999969E+01
             7.1919999999999904E+00    1.4779999999999980E+00    2.5081999999999969E+01
             7.1919999999999904E+00    4.4329999999999936E+00    2.5081999999999969E+01
             7.1919999999999904E+00    7.3889999999999896E+00    2.5081999999999969E+01
             1.0147999999999985E+01    1.4779999999999980E+00    2.5081999999999969E+01
             1.0147999999999985E+01    4.4329999999999936E+00    2.5081999999999969E+01
             1.0147999999999985E+01    7.3889999999999896E+00    2.5081999999999969E+01
             1.3103999999999981E+01    1.4779999999999980E+00    2.5081999999999969E+01
             1.3103999999999981E+01    4.4329999999999936E+00    2.5081999999999969E+01
             1.3103999999999981E+01    7.3889999999999896E+00    2.5081999999999969E+01
             0.0000000000000000E+00    0.0000000000000000E+00    2.7171999999999965E+01
             0.0000000000000000E+00    2.9549999999999956E+00    2.7171999999999965E+01
             0.0000000000000000E+00    5.9109999999999898E+00    2.7171999999999965E+01
             2.9559999999999960E+00    0.0000000000000000E+00    2.7171999999999965E+01
             2.9559999999999960E+00    2.9549999999999956E+00    2.7171999999999965E+01
             2.9559999999999960E+00    5.9109999999999898E+00    2.7171999999999965E+01
             5.9119999999999919E+00    0.0000000000000000E+00    2.7171999999999965E+01
             5.9119999999999919E+00    2.9549999999999956E+00    2.7171999999999965E+01
             5.9119999999999919E+00    5.9109999999999898E+00    2.7171999999999965E+01
             8.6699999999999893E+00    0.0000000000000000E+00    2.7171999999999965E+01
             8.6699999999999893E+00    2.9549999999999956E+00    2.7171999999999965E+01
             8.6699999999999893E+00    5.9109999999999898E+00    2.7171999999999965E+01
             1.1625999999999983E+01    0.0000000000000000E+00    2.7171999999999965E+01
             1.1625999999999983E+01    2.9549999999999956E+00    2.7171999999999965E+01
             1.1625999999999983E+01    5.9109999999999898E+00    2.7171999999999965E+01
             1.4779999999999980E+00    1.4779999999999980E+00    2.9261999999999961E+01
             1.4779999999999980E+00    4.4329999999999936E+00    2.9261999999999961E+01
             1.4779999999999980E+00    7.3889999999999896E+00    2.9261999999999961E+01
             4.4339999999999948E+00    1.4779999999999980E+00    2.9261999999999961E+01
             4.4339999999999948E+00    4.4329999999999936E+00    2.9261999999999961E+01
             4.4339999999999948E+00    7.3889999999999896E+00    2.9261999999999961E+01
             7.1919999999999904E+00    1.4779999999999980E+00    2.9261999999999961E+01
             7.1919999999999904E+00    4.4329999999999936E+00    2.9261999999999961E+01
             7.1919999999999904E+00    7.3889999999999896E+00    2.9261999999999961E+01
             1.0147999999999985E+01    1.4779999999999980E+00    2.9261999999999961E+01
             1.0147999999999985E+01    4.4329999999999936E+00    2.9261999999999961E+01
             1.0147999999999985E+01    7.3889999999999896E+00    2.9261999999999961E+01
             1.3103999999999981E+01    1.4779999999999980E+00    2.9261999999999961E+01
             1.3103999999999981E+01    4.4329999999999936E+00    2.9261999999999961E+01
             1.3103999999999981E+01    7.3889999999999896E+00    2.9261999999999961E+01
             0.0000000000000000E+00    0.0000000000000000E+00    3.1351999999999954E+01
             0.0000000000000000E+00    2.9549999999999956E+00    3.1351999999999954E+01
             0.0000000000000000E+00    5.9109999999999898E+00    3.1351999999999954E+01
             2.9559999999999960E+00    0.0000000000000000E+00    3.1351999999999954E+01
             2.9559999999999960E+00    2.9549999999999956E+00    3.1351999999999954E+01
             2.9559999999999960E+00    5.9109999999999898E+00    3.1351999999999954E+01
             5.9119999999999919E+00    0.0000000000000000E+00    3.1351999999999954E+01
             5.9119999999999919E+00    2.9549999999999956E+00    3.1351999999999954E+01
             5.9119999999999919E+00    5.9109999999999898E+00    3.1351999999999954E+01
             8.6699999999999893E+00    0.0000000000000000E+00    3.1351999999999954E+01
             8.6699999999999893E+00    2.9549999999999956E+00    3.1351999999999954E+01
             8.6699999999999893E+00    5.9109999999999898E+00    3.1351999999999954E+01
             1.1625999999999983E+01    0.0000000000000000E+00    3.1351999999999954E+01
             1.1625999999999983E+01    2.9549999999999956E+00    3.1351999999999954E+01
             1.1625999999999983E+01    5.9109999999999898E+00    3.1351999999999954E+01
             1.4779999999999980E+00    1.4779999999999980E+00    3.3441999999999950E+01
             1.4779999999999980E+00    4.4329999999999936E+00    3.3441999999999950E+01
             1.4779999999999980E+00    7.3889999999999896E+00    3.3441999999999950E+01
             4.4339999999999948E+00    1.4779999999999980E+00    3.3441999999999950E+01
             4.4339999999999948E+00    4.4329999999999936E+00    3.3441999999999950E+01
             4.4339999999999948E+00    7.3889999999999896E+00    3.3441999999999950E+01
             7.1919999999999904E+00    1.4779999999999980E+00    3.3441999999999950E+01
             7.1919999999999904E+00    4.4329999999999936E+00    3.3441999999999950E+01
             7.1919999999999904E+00    7.3889999999999896E+00    3.3441999999999950E+01
             1.0147999999999985E+01    1.4779999999999980E+00    3.3441999999999950E+01
             1.0147999999999985E+01    4.4329999999999936E+00    3.3441999999999950E+01
             1.0147999999999985E+01    7.3889999999999896E+00    3.3441999999999950E+01
             1.3103999999999981E+01    1.4779999999999980E+00    3.3441999999999950E+01
             1.3103999999999981E+01    4.4329999999999936E+00    3.3441999999999950E+01
             1.3103999999999981E+01    7.3889999999999896E+00    3.3441999999999950E+01
       &END COORD
       &VELOCITY
             0.0000000000000000E+00    0.0000000000000000E+00    0.0000000000000000E+00
             0.0000000000000000E+00    0.0000000000000000E+00    0.0000000000000000E+00
             0.0000000000000000E+00    0.0000000000000000E+00    0.0000000000000000E+00
             0.0000000000000000E+00    0.0000000000000000E+00    0.0000000000000000E+00
             0.0000000000000000E+00    0.0000000000000000E+00    0.0000000000000000E+00
             0.0000000000000000E+00    0.0000000000000000E+00    0.0000000000000000E+00
             0.0000000000000000E+00    0.0000000000000000E+00    0.0000000000000000E+00
             0.0000000000000000E+00    0.0000000000000000E+00    0.0000000000000000E+00
             0.0000000000000000E+00    0.0000000000000000E+00    0.0000000000000000E+00
             0.0000000000000000E+00    0.0000000000000000E+00    0.0000000000000000E+00
             0.0000000000000000E+00    0.0000000000000000E+00    0.0000000000000000E+00
             0.0000000000000000E+00    0.0000000000000000E+00    0.0000000000000000E+00
             0.0000000000000000E+00    0.0000000000000000E+00    0.0000000000000000E+00
             0.0000000000000000E+00    0.0000000000000000E+00    0.0000000000000000E+00
             0.0000000000000000E+00    0.0000000000000000E+00    0.0000000000000000E+00
             0.0000000000000000E+00    0.0000000000000000E+00    0.0000000000000000E+00
             0.0000000000000000E+00    0.0000000000000000E+00    0.0000000000000000E+00
             0.0000000000000000E+00    0.0000000000000000E+00    0.0000000000000000E+00
             0.0000000000000000E+00    0.0000000000000000E+00    0.0000000000000000E+00
             0.0000000000000000E+00    0.0000000000000000E+00    0.0000000000000000E+00
             0.0000000000000000E+00    0.0000000000000000E+00    0.0000000000000000E+00
             0.0000000000000000E+00    0.0000000000000000E+00    0.0000000000000000E+00
             0.0000000000000000E+00    0.0000000000000000E+00    0.0000000000000000E+00
             0.0000000000000000E+00    0.0000000000000000E+00    0.0000000000000000E+00
             0.0000000000000000E+00    0.0000000000000000E+00    0.0000000000000000E+00
             0.0000000000000000E+00    0.0000000000000000E+00    0.0000000000000000E+00
             0.0000000000000000E+00    0.0000000000000000E+00    0.0000000000000000E+00
             0.0000000000000000E+00    0.0000000000000000E+00    0.0000000000000000E+00
             0.0000000000000000E+00    0.0000000000000000E+00    0.0000000000000000E+00
             0.0000000000000000E+00    0.0000000000000000E+00    0.0000000000000000E+00
             0.0000000000000000E+00    0.0000000000000000E+00    0.0000000000000000E+00
             0.0000000000000000E+00    0.0000000000000000E+00    0.0000000000000000E+00
             0.0000000000000000E+00    0.0000000000000000E+00    0.0000000000000000E+00
             0.0000000000000000E+00    0.0000000000000000E+00    0.0000000000000000E+00
             0.0000000000000000E+00    0.0000000000000000E+00    0.0000000000000000E+00
             0.0000000000000000E+00    0.0000000000000000E+00    0.0000000000000000E+00
             0.0000000000000000E+00    0.0000000000000000E+00    0.0000000000000000E+00
             0.0000000000000000E+00    0.0000000000000000E+00    0.0000000000000000E+00
             0.0000000000000000E+00    0.0000000000000000E+00    0.0000000000000000E+00
             0.0000000000000000E+00    0.0000000000000000E+00    0.0000000000000000E+00
             0.0000000000000000E+00    0.0000000000000000E+00    0.0000000000000000E+00
             0.0000000000000000E+00    0.0000000000000000E+00    0.0000000000000000E+00
             0.0000000000000000E+00    0.0000000000000000E+00    0.0000000000000000E+00
             0.0000000000000000E+00    0.0000000000000000E+00    0.0000000000000000E+00
             0.0000000000000000E+00    0.0000000000000000E+00    0.0000000000000000E+00
             0.0000000000000000E+00    0.0000000000000000E+00    0.0000000000000000E+00
             0.0000000000000000E+00    0.0000000000000000E+00    0.0000000000000000E+00
             0.0000000000000000E+00    0.0000000000000000E+00    0.0000000000000000E+00
             0.0000000000000000E+00    0.0000000000000000E+00    0.0000000000000000E+00
             0.0000000000000000E+00    0.0000000000000000E+00    0.0000000000000000E+00
             0.0000000000000000E+00    0.0000000000000000E+00    0.0000000000000000E+00
             0.0000000000000000E+00    0.0000000000000000E+00    0.0000000000000000E+00
             0.0000000000000000E+00    0.0000000000000000E+00    0.0000000000000000E+00
             0.0000000000000000E+00    0.0000000000000000E+00    0.0000000000000000E+00
             0.0000000000000000E+00    0.0000000000000000E+00    0.0000000000000000E+00
             0.0000000000000000E+00    0.0000000000000000E+00    0.0000000000000000E+00
             0.0000000000000000E+00    0.0000000000000000E+00    0.0000000000000000E+00
             0.0000000000000000E+00    0.0000000000000000E+00    0.0000000000000000E+00
             0.0000000000000000E+00    0.0000000000000000E+00    0.0000000000000000E+00
             0.0000000000000000E+00    0.0000000000000000E+00    0.0000000000000000E+00
             0.0000000000000000E+00    0.0000000000000000E+00    0.0000000000000000E+00
             0.0000000000000000E+00    0.0000000000000000E+00    0.0000000000000000E+00
             0.0000000000000000E+00    0.0000000000000000E+00    0.0000000000000000E+00
             0.0000000000000000E+00    0.0000000000000000E+00    0.0000000000000000E+00
             0.0000000000000000E+00    0.0000000000000000E+00    0.0000000000000000E+00
             0.0000000000000000E+00    0.0000000000000000E+00    0.0000000000000000E+00
             0.0000000000000000E+00    0.0000000000000000E+00    0.0000000000000000E+00
             0.0000000000000000E+00    0.0000000000000000E+00    0.0000000000000000E+00
             0.0000000000000000E+00    0.0000000000000000E+00    0.0000000000000000E+00
             0.0000000000000000E+00    0.0000000000000000E+00    0.0000000000000000E+00
             0.0000000000000000E+00    0.0000000000000000E+00    0.0000000000000000E+00
             0.0000000000000000E+00    0.0000000000000000E+00    0.0000000000000000E+00
             0.0000000000000000E+00    0.0000000000000000E+00    0.0000000000000000E+00
             0.0000000000000000E+00    0.0000000000000000E+00    0.0000000000000000E+00
             0.0000000000000000E+00    0.0000000000000000E+00    0.0000000000000000E+00
             0.0000000000000000E+00    0.0000000000000000E+00    0.0000000000000000E+00
             0.0000000000000000E+00    0.0000000000000000E+00    0.0000000000000000E+00
             0.0000000000000000E+00    0.0000000000000000E+00    0.0000000000000000E+00
             0.0000000000000000E+00    0.0000000000000000E+00    0.0000000000000000E+00
             0.0000000000000000E+00    0.0000000000000000E+00    0.0000000000000000E+00
             0.0000000000000000E+00    0.0000000000000000E+00    0.0000000000000000E+00
             0.0000000000000000E+00    0.0000000000000000E+00    0.0000000000000000E+00
             0.0000000000000000E+00    0.0000000000000000E+00    0.0000000000000000E+00
             0.0000000000000000E+00    0.0000000000000000E+00    0.0000000000000000E+00
             0.0000000000000000E+00    0.0000000000000000E+00    0.0000000000000000E+00
             0.0000000000000000E+00    0.0000000000000000E+00    0.0000000000000000E+00
             0.0000000000000000E+00    0.0000000000000000E+00    0.0000000000000000E+00
             0.0000000000000000E+00    0.0000000000000000E+00    0.0000000000000000E+00
             0.0000000000000000E+00    0.0000000000000000E+00    0.0000000000000000E+00
             0.0000000000000000E+00    0.0000000000000000E+00    0.0000000000000000E+00
             0.0000000000000000E+00    0.0000000000000000E+00    0.0000000000000000E+00
             0.0000000000000000E+00    0.0000000000000000E+00    0.0000000000000000E+00
             0.0000000000000000E+00    0.0000000000000000E+00    0.0000000000000000E+00
             0.0000000000000000E+00    0.0000000000000000E+00    0.0000000000000000E+00
             0.0000000000000000E+00    0.0000000000000000E+00    0.0000000000000000E+00
             0.0000000000000000E+00    0.0000000000000000E+00    0.0000000000000000E+00
             0.0000000000000000E+00    0.0000000000000000E+00    0.0000000000000000E+00
             0.0000000000000000E+00    0.0000000000000000E+00    0.0000000000000000E+00
             0.0000000000000000E+00    0.0000000000000000E+00    0.0000000000000000E+00
             0.0000000000000000E+00    0.0000000000000000E+00    0.0000000000000000E+00
             0.0000000000000000E+00    0.0000000000000000E+00    0.0000000000000000E+00
             0.0000000000000000E+00    0.0000000000000000E+00    0.0000000000000000E+00
             0.0000000000000000E+00    0.0000000000000000E+00    0.0000000000000000E+00
             0.0000000000000000E+00    0.0000000000000000E+00    0.0000000000000000E+00
             0.0000000000000000E+00    0.0000000000000000E+00    0.0000000000000000E+00
             0.0000000000000000E+00    0.0000000000000000E+00    0.0000000000000000E+00
             0.0000000000000000E+00    0.0000000000000000E+00    0.0000000000000000E+00
             0.0000000000000000E+00    0.0000000000000000E+00    0.0000000000000000E+00
             0.0000000000000000E+00    0.0000000000000000E+00    0.0000000000000000E+00
             0.0000000000000000E+00    0.0000000000000000E+00    0.0000000000000000E+00
             0.0000000000000000E+00    0.0000000000000000E+00    0.0000000000000000E+00
             0.0000000000000000E+00    0.0000000000000000E+00    0.0000000000000000E+00
             0.0000000000000000E+00    0.0000000000000000E+00    0.0000000000000000E+00
             0.0000000000000000E+00    0.0000000000000000E+00    0.0000000000000000E+00
             0.0000000000000000E+00    0.0000000000000000E+00    0.0000000000000000E+00
             0.0000000000000000E+00    0.0000000000000000E+00    0.0000000000000000E+00
             0.0000000000000000E+00    0.0000000000000000E+00    0.0000000000000000E+00
             0.0000000000000000E+00    0.0000000000000000E+00    0.0000000000000000E+00
             0.0000000000000000E+00    0.0000000000000000E+00    0.0000000000000000E+00
             0.0000000000000000E+00    0.0000000000000000E+00    0.0000000000000000E+00
             0.0000000000000000E+00    0.0000000000000000E+00    0.0000000000000000E+00
             0.0000000000000000E+00    0.0000000000000000E+00    0.0000000000000000E+00
             0.0000000000000000E+00    0.0000000000000000E+00    0.0000000000000000E+00
             0.0000000000000000E+00    0.0000000000000000E+00    0.0000000000000000E+00
             0.0000000000000000E+00    0.0000000000000000E+00    0.0000000000000000E+00
             0.0000000000000000E+00    0.0000000000000000E+00    0.0000000000000000E+00
             0.0000000000000000E+00    0.0000000000000000E+00    0.0000000000000000E+00
             0.0000000000000000E+00    0.0000000000000000E+00    0.0000000000000000E+00
             0.0000000000000000E+00    0.0000000000000000E+00    0.0000000000000000E+00
             0.0000000000000000E+00    0.0000000000000000E+00    0.0000000000000000E+00
             0.0000000000000000E+00    0.0000000000000000E+00    0.0000000000000000E+00
             0.0000000000000000E+00    0.0000000000000000E+00    0.0000000000000000E+00
             0.0000000000000000E+00    0.0000000000000000E+00    0.0000000000000000E+00
             0.0000000000000000E+00    0.0000000000000000E+00    0.0000000000000000E+00
             0.0000000000000000E+00    0.0000000000000000E+00    0.0000000000000000E+00
             0.0000000000000000E+00    0.0000000000000000E+00    0.0000000000000000E+00
             0.0000000000000000E+00    0.0000000000000000E+00    0.0000000000000000E+00
             0.0000000000000000E+00    0.0000000000000000E+00    0.0000000000000000E+00
             0.0000000000000000E+00    0.0000000000000000E+00    0.0000000000000000E+00
             0.0000000000000000E+00    0.0000000000000000E+00    0.0000000000000000E+00
             0.0000000000000000E+00    0.0000000000000000E+00    0.0000000000000000E+00
             0.0000000000000000E+00    0.0000000000000000E+00    0.0000000000000000E+00
             0.0000000000000000E+00    0.0000000000000000E+00    0.0000000000000000E+00
             0.0000000000000000E+00    0.0000000000000000E+00    0.0000000000000000E+00
             0.0000000000000000E+00    0.0000000000000000E+00    0.0000000000000000E+00