 # Version information for this restart file 
 # current date 2024-01-13 11:58:51.055
 # current working dir /gpfs/home/cahart/transport/melamine/au_from-h2/ci-neb/ts2-fixed/dft_leads-sz_tip-dzvp_surf-dzvp_kpoints-2-4-20_replicas-5
 # Program compiled at                              Thu 21 Sep 19:20:17 BST 2023
 # Program compiled on                                           hx1-c12-login-1
 # Program compiled for                                                    local
 # Source code revision number                                       git:5518aa6
 &GLOBAL
   EXTENDED_FFT_LENGTHS  T
   PRINT_LEVEL  MEDIUM
   PROJECT_NAME 2_dft_wfn-r-0
   OUTPUT_FILE_NAME 2_dft_wfn-r-0.out
   RUN_TYPE  BAND
 &END GLOBAL
 &MOTION
   &BAND
     NPROC_REP  64
     BAND_TYPE  CI-NEB
     NUMBER_OF_REPLICA  5
     K_SPRING     5.0000000000000003E-02
     &CI_NEB
       NSTEPS_IT  5
     &END CI_NEB
     &OPTIMIZE_BAND
       OPT_TYPE  DIIS
       &DIIS
         MAX_STEPS  1000
       &END DIIS
     &END OPTIMIZE_BAND
     &REPLICA
       &COORD
             0.0000000000000000E+00    0.0000000000000000E+00    0.0000000000000000E+00
             0.0000000000000000E+00    2.9549999999999832E+00    0.0000000000000000E+00
             0.0000000000000000E+00    5.9109999999999596E+00    0.0000000000000000E+00
             2.9559999999999742E+00    0.0000000000000000E+00    0.0000000000000000E+00
             2.9559999999999742E+00    2.9549999999999832E+00    0.0000000000000000E+00
             2.9559999999999742E+00    5.9109999999999596E+00    0.0000000000000000E+00
             5.9119999999999484E+00    0.0000000000000000E+00    0.0000000000000000E+00
             5.9119999999999484E+00    2.9549999999999832E+00    0.0000000000000000E+00
             5.9119999999999484E+00    5.9109999999999596E+00    0.0000000000000000E+00
             8.6699999999999324E+00    0.0000000000000000E+00    0.0000000000000000E+00
             8.6699999999999324E+00    2.9549999999999832E+00    0.0000000000000000E+00
             8.6699999999999324E+00    5.9109999999999596E+00    0.0000000000000000E+00
             1.1625999999999964E+01    0.0000000000000000E+00    0.0000000000000000E+00
             1.1625999999999964E+01    2.9549999999999832E+00    0.0000000000000000E+00
             1.1625999999999964E+01    5.9109999999999596E+00    0.0000000000000000E+00
             1.4779999999999871E+00    1.4779999999999871E+00    2.0899999999999808E+00
             1.4779999999999871E+00    4.4329999999999847E+00    2.0899999999999808E+00
             1.4779999999999871E+00    7.3889999999999381E+00    2.0899999999999808E+00
             4.4339999999999682E+00    1.4779999999999871E+00    2.0899999999999808E+00
             4.4339999999999682E+00    4.4329999999999847E+00    2.0899999999999808E+00
             4.4339999999999682E+00    7.3889999999999381E+00    2.0899999999999808E+00
             7.1919999999999256E+00    1.4779999999999871E+00    2.0899999999999808E+00
             7.1919999999999256E+00    4.4329999999999847E+00    2.0899999999999808E+00
             7.1919999999999256E+00    7.3889999999999381E+00    2.0899999999999808E+00
             1.0147999999999923E+01    1.4779999999999871E+00    2.0899999999999808E+00
             1.0147999999999923E+01    4.4329999999999847E+00    2.0899999999999808E+00
             1.0147999999999923E+01    7.3889999999999381E+00    2.0899999999999808E+00
             1.3103999999999910E+01    1.4779999999999871E+00    2.0899999999999808E+00
             1.3103999999999910E+01    4.4329999999999847E+00    2.0899999999999808E+00
             1.3103999999999910E+01    7.3889999999999381E+00    2.0899999999999808E+00
             0.0000000000000000E+00    0.0000000000000000E+00    4.1799999999999615E+00
             0.0000000000000000E+00    2.9549999999999832E+00    4.1799999999999615E+00
             0.0000000000000000E+00    5.9109999999999596E+00    4.1799999999999615E+00
             2.9559999999999742E+00    0.0000000000000000E+00    4.1799999999999615E+00
             2.9559999999999742E+00    2.9549999999999832E+00    4.1799999999999615E+00
             2.9559999999999742E+00    5.9109999999999596E+00    4.1799999999999615E+00
             5.9119999999999484E+00    0.0000000000000000E+00    4.1799999999999615E+00
             5.9119999999999484E+00    2.9549999999999832E+00    4.1799999999999615E+00
             5.9119999999999484E+00    5.9109999999999596E+00    4.1799999999999615E+00
             8.6699999999999324E+00    0.0000000000000000E+00    4.1799999999999615E+00
             8.6699999999999324E+00    2.9549999999999832E+00    4.1799999999999615E+00
             8.6699999999999324E+00    5.9109999999999596E+00    4.1799999999999615E+00
             1.1625999999999964E+01    0.0000000000000000E+00    4.1799999999999615E+00
             1.1625999999999964E+01    2.9549999999999832E+00    4.1799999999999615E+00
             1.1625999999999964E+01    5.9109999999999596E+00    4.1799999999999615E+00
             1.4779999999999871E+00    1.4779999999999871E+00    6.2699999999999463E+00
             1.4779999999999871E+00    4.4329999999999847E+00    6.2699999999999463E+00
             1.4779999999999871E+00    7.3889999999999381E+00    6.2699999999999463E+00
             4.4339999999999682E+00    1.4779999999999871E+00    6.2699999999999463E+00
             4.4339999999999682E+00    4.4329999999999847E+00    6.2699999999999463E+00
             4.4339999999999682E+00    7.3889999999999381E+00    6.2699999999999463E+00
             7.1919999999999256E+00    1.4779999999999871E+00    6.2699999999999463E+00
             7.1919999999999256E+00    4.4329999999999847E+00    6.2699999999999463E+00
             7.1919999999999256E+00    7.3889999999999381E+00    6.2699999999999463E+00
             1.0147999999999923E+01    1.4779999999999871E+00    6.2699999999999463E+00
             1.0147999999999923E+01    4.4329999999999847E+00    6.2699999999999463E+00
             1.0147999999999923E+01    7.3889999999999381E+00    6.2699999999999463E+00
             1.3103999999999910E+01    1.4779999999999871E+00    6.2699999999999463E+00
             1.3103999999999910E+01    4.4329999999999847E+00    6.2699999999999463E+00
             1.3103999999999910E+01    7.3889999999999381E+00    6.2699999999999463E+00
             0.0000000000000000E+00    0.0000000000000000E+00    8.3599999999999230E+00
             0.0000000000000000E+00    2.9549999999999832E+00    8.3599999999999230E+00
             0.0000000000000000E+00    5.9109999999999596E+00    8.3599999999999230E+00
             2.9559999999999742E+00    0.0000000000000000E+00    8.3599999999999230E+00
             2.9559999999999742E+00    2.9549999999999832E+00    8.3599999999999230E+00
             2.9559999999999742E+00    5.9109999999999596E+00    8.3599999999999230E+00
             5.9119999999999484E+00    0.0000000000000000E+00    8.3599999999999230E+00
             5.9119999999999484E+00    2.9549999999999832E+00    8.3599999999999230E+00
             5.9119999999999484E+00    5.9109999999999596E+00    8.3599999999999230E+00
             8.6699999999999324E+00    0.0000000000000000E+00    8.3599999999999230E+00
             8.6699999999999324E+00    2.9549999999999832E+00    8.3599999999999230E+00
             8.6699999999999324E+00    5.9109999999999596E+00    8.3599999999999230E+00
             1.1625999999999964E+01    0.0000000000000000E+00    8.3599999999999230E+00
             1.1625999999999964E+01    2.9549999999999832E+00    8.3599999999999230E+00
             1.1625999999999964E+01    5.9109999999999596E+00    8.3599999999999230E+00
             1.4779999999999871E+00    1.4779999999999871E+00    1.0449999999999946E+01
             1.4779999999999871E+00    4.4329999999999847E+00    1.0449999999999946E+01
             1.4779999999999871E+00    7.3889999999999381E+00    1.0449999999999946E+01
             4.4339999999999682E+00    1.4779999999999871E+00    1.0449999999999946E+01
             4.4339999999999682E+00    4.4329999999999847E+00    1.0449999999999946E+01
             4.4339999999999682E+00    7.3889999999999381E+00    1.0449999999999946E+01
             7.1919999999999256E+00    1.4779999999999871E+00    1.0449999999999946E+01
             7.1919999999999256E+00    4.4329999999999847E+00    1.0449999999999946E+01
             7.1919999999999256E+00    7.3889999999999381E+00    1.0449999999999946E+01
             1.0147999999999923E+01    1.4779999999999871E+00    1.0449999999999946E+01
             1.0147999999999923E+01    4.4329999999999847E+00    1.0449999999999946E+01
             1.0147999999999923E+01    7.3889999999999381E+00    1.0449999999999946E+01
             1.3103999999999910E+01    1.4779999999999871E+00    1.0449999999999946E+01
             1.3103999999999910E+01    4.4329999999999847E+00    1.0449999999999946E+01
             1.3103999999999910E+01    7.3889999999999381E+00    1.0449999999999946E+01
             4.8553999999999746E+00    5.9118999999999282E+00    1.2031799999999910E+01
             9.5279999999999134E+00    5.9136999999999516E+00    1.2033999999999908E+01
             7.1919999999999256E+00    5.9339999999999629E+00    1.2039999999999919E+01
             4.0673339927999885E+00    5.9059993219999596E+00    1.2687741368899916E+01
             1.0318905404799926E+01    5.9087793825999544E+00    1.2685747073199941E+01
             5.9989554221999413E+00    5.9152564165999726E+00    1.2792642411199877E+01
             8.3738707292999557E+00    5.9179777706999603E+00    1.2731457252199956E+01
             8.3227525761999086E+00    5.9051536094999646E+00    1.4080497642099894E+01
             5.9344285048999721E+00    5.8981604864999637E+00    1.4101749969599917E+01
             7.1039653576999484E+00    5.8899410688999403E+00    1.4828703219099873E+01
             7.2416021046999504E+00    5.8657702091999830E+00    1.6106466757299895E+01
             6.3118250322999430E+00    5.8547577070999681E+00    1.6539601306199891E+01
             9.1743570612999470E+00    5.8876302391999156E+00    1.4641017735299906E+01
             7.3119999999999532E+00    5.9339999999999629E+00    2.1042999999999910E+01
             5.8129999999999820E+00    7.4339999999999584E+00    2.2991999999999834E+01
             8.8129999999999544E+00    4.4339999999999682E+00    2.2991999999999834E+01
             5.8129999999999820E+00    4.4329999999999847E+00    2.2991999999999834E+01
             8.8129999999999544E+00    7.4339999999999584E+00    2.2991999999999834E+01
             1.4779999999999871E+00    1.4779999999999871E+00    2.5081999999999883E+01
             1.4779999999999871E+00    4.4329999999999847E+00    2.5081999999999883E+01
             1.4779999999999871E+00    7.3889999999999381E+00    2.5081999999999883E+01
             4.4339999999999682E+00    1.4779999999999871E+00    2.5081999999999883E+01
             4.4339999999999682E+00    4.4329999999999847E+00    2.5081999999999883E+01
             4.4339999999999682E+00    7.3889999999999381E+00    2.5081999999999883E+01
             7.1919999999999256E+00    1.4779999999999871E+00    2.5081999999999883E+01
             7.1919999999999256E+00    4.4329999999999847E+00    2.5081999999999883E+01
             7.1919999999999256E+00    7.3889999999999381E+00    2.5081999999999883E+01
             1.0147999999999923E+01    1.4779999999999871E+00    2.5081999999999883E+01
             1.0147999999999923E+01    4.4329999999999847E+00    2.5081999999999883E+01
             1.0147999999999923E+01    7.3889999999999381E+00    2.5081999999999883E+01
             1.3103999999999910E+01    1.4779999999999871E+00    2.5081999999999883E+01
             1.3103999999999910E+01    4.4329999999999847E+00    2.5081999999999883E+01
             1.3103999999999910E+01    7.3889999999999381E+00    2.5081999999999883E+01
             0.0000000000000000E+00    0.0000000000000000E+00    2.7171999999999816E+01
             0.0000000000000000E+00    2.9549999999999832E+00    2.7171999999999816E+01
             0.0000000000000000E+00    5.9109999999999596E+00    2.7171999999999816E+01
             2.9559999999999742E+00    0.0000000000000000E+00    2.7171999999999816E+01
             2.9559999999999742E+00    2.9549999999999832E+00    2.7171999999999816E+01
             2.9559999999999742E+00    5.9109999999999596E+00    2.7171999999999816E+01
             5.9119999999999484E+00    0.0000000000000000E+00    2.7171999999999816E+01
             5.9119999999999484E+00    2.9549999999999832E+00    2.7171999999999816E+01
             5.9119999999999484E+00    5.9109999999999596E+00    2.7171999999999816E+01
             8.6699999999999324E+00    0.0000000000000000E+00    2.7171999999999816E+01
             8.6699999999999324E+00    2.9549999999999832E+00    2.7171999999999816E+01
             8.6699999999999324E+00    5.9109999999999596E+00    2.7171999999999816E+01
             1.1625999999999964E+01    0.0000000000000000E+00    2.7171999999999816E+01
             1.1625999999999964E+01    2.9549999999999832E+00    2.7171999999999816E+01
             1.1625999999999964E+01    5.9109999999999596E+00    2.7171999999999816E+01
             1.4779999999999871E+00    1.4779999999999871E+00    2.9261999999999745E+01
             1.4779999999999871E+00    4.4329999999999847E+00    2.9261999999999745E+01
             1.4779999999999871E+00    7.3889999999999381E+00    2.9261999999999745E+01
             4.4339999999999682E+00    1.4779999999999871E+00    2.9261999999999745E+01
             4.4339999999999682E+00    4.4329999999999847E+00    2.9261999999999745E+01
             4.4339999999999682E+00    7.3889999999999381E+00    2.9261999999999745E+01
             7.1919999999999256E+00    1.4779999999999871E+00    2.9261999999999745E+01
             7.1919999999999256E+00    4.4329999999999847E+00    2.9261999999999745E+01
             7.1919999999999256E+00    7.3889999999999381E+00    2.9261999999999745E+01
             1.0147999999999923E+01    1.4779999999999871E+00    2.9261999999999745E+01
             1.0147999999999923E+01    4.4329999999999847E+00    2.9261999999999745E+01
             1.0147999999999923E+01    7.3889999999999381E+00    2.9261999999999745E+01
             1.3103999999999910E+01    1.4779999999999871E+00    2.9261999999999745E+01
             1.3103999999999910E+01    4.4329999999999847E+00    2.9261999999999745E+01
             1.3103999999999910E+01    7.3889999999999381E+00    2.9261999999999745E+01
             0.0000000000000000E+00    0.0000000000000000E+00    3.1351999999999730E+01
             0.0000000000000000E+00    2.9549999999999832E+00    3.1351999999999730E+01
             0.0000000000000000E+00    5.9109999999999596E+00    3.1351999999999730E+01
             2.9559999999999742E+00    0.0000000000000000E+00    3.1351999999999730E+01
             2.9559999999999742E+00    2.9549999999999832E+00    3.1351999999999730E+01
             2.9559999999999742E+00    5.9109999999999596E+00    3.1351999999999730E+01
             5.9119999999999484E+00    0.0000000000000000E+00    3.1351999999999730E+01
             5.9119999999999484E+00    2.9549999999999832E+00    3.1351999999999730E+01
             5.9119999999999484E+00    5.9109999999999596E+00    3.1351999999999730E+01
             8.6699999999999324E+00    0.0000000000000000E+00    3.1351999999999730E+01
             8.6699999999999324E+00    2.9549999999999832E+00    3.1351999999999730E+01
             8.6699999999999324E+00    5.9109999999999596E+00    3.1351999999999730E+01
             1.1625999999999964E+01    0.0000000000000000E+00    3.1351999999999730E+01
             1.1625999999999964E+01    2.9549999999999832E+00    3.1351999999999730E+01
             1.1625999999999964E+01    5.9109999999999596E+00    3.1351999999999730E+01
             1.4779999999999871E+00    1.4779999999999871E+00    3.3441999999999737E+01
             1.4779999999999871E+00    4.4329999999999847E+00    3.3441999999999737E+01
             1.4779999999999871E+00    7.3889999999999381E+00    3.3441999999999737E+01
             4.4339999999999682E+00    1.4779999999999871E+00    3.3441999999999737E+01
             4.4339999999999682E+00    4.4329999999999847E+00    3.3441999999999737E+01
             4.4339999999999682E+00    7.3889999999999381E+00    3.3441999999999737E+01
             7.1919999999999256E+00    1.4779999999999871E+00    3.3441999999999737E+01
             7.1919999999999256E+00    4.4329999999999847E+00    3.3441999999999737E+01
             7.1919999999999256E+00    7.3889999999999381E+00    3.3441999999999737E+01
             1.0147999999999923E+01    1.4779999999999871E+00    3.3441999999999737E+01
             1.0147999999999923E+01    4.4329999999999847E+00    3.3441999999999737E+01
             1.0147999999999923E+01    7.3889999999999381E+00    3.3441999999999737E+01
             1.3103999999999910E+01    1.4779999999999871E+00    3.3441999999999737E+01
             1.3103999999999910E+01    4.4329999999999847E+00    3.3441999999999737E+01
             1.3103999999999910E+01    7.3889999999999381E+00    3.3441999999999737E+01
       &END COORD
       &VELOCITY
             0.0000000000000000E+00    0.0000000000000000E+00    0.0000000000000000E+00
             0.0000000000000000E+00    0.0000000000000000E+00    0.0000000000000000E+00
             0.0000000000000000E+00    0.0000000000000000E+00    0.0000000000000000E+00
             0.0000000000000000E+00    0.0000000000000000E+00    0.0000000000000000E+00
             0.0000000000000000E+00    0.0000000000000000E+00    0.0000000000000000E+00
             0.0000000000000000E+00    0.0000000000000000E+00    0.0000000000000000E+00
             0.0000000000000000E+00    0.0000000000000000E+00    0.0000000000000000E+00
             0.0000000000000000E+00    0.0000000000000000E+00    0.0000000000000000E+00
             0.0000000000000000E+00    0.0000000000000000E+00    0.0000000000000000E+00
             0.0000000000000000E+00    0.0000000000000000E+00    0.0000000000000000E+00
             0.0000000000000000E+00    0.0000000000000000E+00    0.0000000000000000E+00
             0.0000000000000000E+00    0.0000000000000000E+00    0.0000000000000000E+00
             0.0000000000000000E+00    0.0000000000000000E+00    0.0000000000000000E+00
             0.0000000000000000E+00    0.0000000000000000E+00    0.0000000000000000E+00
             0.0000000000000000E+00    0.0000000000000000E+00    0.0000000000000000E+00
             0.0000000000000000E+00    0.0000000000000000E+00    0.0000000000000000E+00
             0.0000000000000000E+00    0.0000000000000000E+00    0.0000000000000000E+00
             0.0000000000000000E+00    0.0000000000000000E+00    0.0000000000000000E+00
             0.0000000000000000E+00    0.0000000000000000E+00    0.0000000000000000E+00
             0.0000000000000000E+00    0.0000000000000000E+00    0.0000000000000000E+00
             0.0000000000000000E+00    0.0000000000000000E+00    0.0000000000000000E+00
             0.0000000000000000E+00    0.0000000000000000E+00    0.0000000000000000E+00
             0.0000000000000000E+00    0.0000000000000000E+00    0.0000000000000000E+00
             0.0000000000000000E+00    0.0000000000000000E+00    0.0000000000000000E+00
             0.0000000000000000E+00    0.0000000000000000E+00    0.0000000000000000E+00
             0.0000000000000000E+00    0.0000000000000000E+00    0.0000000000000000E+00
             0.0000000000000000E+00    0.0000000000000000E+00    0.0000000000000000E+00
             0.0000000000000000E+00    0.0000000000000000E+00    0.0000000000000000E+00
             0.0000000000000000E+00    0.0000000000000000E+00    0.0000000000000000E+00
             0.0000000000000000E+00    0.0000000000000000E+00    0.0000000000000000E+00
             0.0000000000000000E+00    0.0000000000000000E+00    0.0000000000000000E+00
             0.0000000000000000E+00    0.0000000000000000E+00    0.0000000000000000E+00
             0.0000000000000000E+00    0.0000000000000000E+00    0.0000000000000000E+00
             0.0000000000000000E+00    0.0000000000000000E+00    0.0000000000000000E+00
             0.0000000000000000E+00    0.0000000000000000E+00    0.0000000000000000E+00
             0.0000000000000000E+00    0.0000000000000000E+00    0.0000000000000000E+00
             0.0000000000000000E+00    0.0000000000000000E+00    0.0000000000000000E+00
             0.0000000000000000E+00    0.0000000000000000E+00    0.0000000000000000E+00
             0.0000000000000000E+00    0.0000000000000000E+00    0.0000000000000000E+00
             0.0000000000000000E+00    0.0000000000000000E+00    0.0000000000000000E+00
             0.0000000000000000E+00    0.0000000000000000E+00    0.0000000000000000E+00
             0.0000000000000000E+00    0.0000000000000000E+00    0.0000000000000000E+00
             0.0000000000000000E+00    0.0000000000000000E+00    0.0000000000000000E+00
             0.0000000000000000E+00    0.0000000000000000E+00    0.0000000000000000E+00
             0.0000000000000000E+00    0.0000000000000000E+00    0.0000000000000000E+00
             0.0000000000000000E+00    0.0000000000000000E+00    0.0000000000000000E+00
             0.0000000000000000E+00    0.0000000000000000E+00    0.0000000000000000E+00
             0.0000000000000000E+00    0.0000000000000000E+00    0.0000000000000000E+00
             0.0000000000000000E+00    0.0000000000000000E+00    0.0000000000000000E+00
             0.0000000000000000E+00    0.0000000000000000E+00    0.0000000000000000E+00
             0.0000000000000000E+00    0.0000000000000000E+00    0.0000000000000000E+00
             0.0000000000000000E+00    0.0000000000000000E+00    0.0000000000000000E+00
             0.0000000000000000E+00    0.0000000000000000E+00    0.0000000000000000E+00
             0.0000000000000000E+00    0.0000000000000000E+00    0.0000000000000000E+00
             0.0000000000000000E+00    0.0000000000000000E+00    0.0000000000000000E+00
             0.0000000000000000E+00    0.0000000000000000E+00    0.0000000000000000E+00
             0.0000000000000000E+00    0.0000000000000000E+00    0.0000000000000000E+00
             0.0000000000000000E+00    0.0000000000000000E+00    0.0000000000000000E+00
             0.0000000000000000E+00    0.0000000000000000E+00    0.0000000000000000E+00
             0.0000000000000000E+00    0.0000000000000000E+00    0.0000000000000000E+00
             0.0000000000000000E+00    0.0000000000000000E+00    0.0000000000000000E+00
             0.0000000000000000E+00    0.0000000000000000E+00    0.0000000000000000E+00
             0.0000000000000000E+00    0.0000000000000000E+00    0.0000000000000000E+00
             0.0000000000000000E+00    0.0000000000000000E+00    0.0000000000000000E+00
             0.0000000000000000E+00    0.0000000000000000E+00    0.0000000000000000E+00
             0.0000000000000000E+00    0.0000000000000000E+00    0.0000000000000000E+00
             0.0000000000000000E+00    0.0000000000000000E+00    0.0000000000000000E+00
             0.0000000000000000E+00    0.0000000000000000E+00    0.0000000000000000E+00
             0.0000000000000000E+00    0.0000000000000000E+00    0.0000000000000000E+00
             0.0000000000000000E+00    0.0000000000000000E+00    0.0000000000000000E+00
             0.0000000000000000E+00    0.0000000000000000E+00    0.0000000000000000E+00
             0.0000000000000000E+00    0.0000000000000000E+00    0.0000000000000000E+00
             0.0000000000000000E+00    0.0000000000000000E+00    0.0000000000000000E+00
             0.0000000000000000E+00    0.0000000000000000E+00    0.0000000000000000E+00
             0.0000000000000000E+00    0.0000000000000000E+00    0.0000000000000000E+00
             0.0000000000000000E+00    0.0000000000000000E+00    0.0000000000000000E+00
             0.0000000000000000E+00    0.0000000000000000E+00    0.0000000000000000E+00
             0.0000000000000000E+00    0.0000000000000000E+00    0.0000000000000000E+00
             0.0000000000000000E+00    0.0000000000000000E+00    0.0000000000000000E+00
             0.0000000000000000E+00    0.0000000000000000E+00    0.0000000000000000E+00
             0.0000000000000000E+00    0.0000000000000000E+00    0.0000000000000000E+00
             0.0000000000000000E+00    0.0000000000000000E+00    0.0000000000000000E+00
             0.0000000000000000E+00    0.0000000000000000E+00    0.0000000000000000E+00
             0.0000000000000000E+00    0.0000000000000000E+00    0.0000000000000000E+00
             0.0000000000000000E+00    0.0000000000000000E+00    0.0000000000000000E+00
             0.0000000000000000E+00    0.0000000000000000E+00    0.0000000000000000E+00
             0.0000000000000000E+00    0.0000000000000000E+00    0.0000000000000000E+00
             0.0000000000000000E+00    0.0000000000000000E+00    0.0000000000000000E+00
             0.0000000000000000E+00    0.0000000000000000E+00    0.0000000000000000E+00
             0.0000000000000000E+00    0.0000000000000000E+00    0.0000000000000000E+00
             0.0000000000000000E+00    0.0000000000000000E+00    0.0000000000000000E+00
             0.0000000000000000E+00    0.0000000000000000E+00    0.0000000000000000E+00
             0.0000000000000000E+00    0.0000000000000000E+00    0.0000000000000000E+00
             0.0000000000000000E+00    0.0000000000000000E+00    0.0000000000000000E+00
             0.0000000000000000E+00    0.0000000000000000E+00    0.0000000000000000E+00
             0.0000000000000000E+00    0.0000000000000000E+00    0.0000000000000000E+00
             0.0000000000000000E+00    0.0000000000000000E+00    0.0000000000000000E+00
             0.0000000000000000E+00    0.0000000000000000E+00    0.0000000000000000E+00
             0.0000000000000000E+00    0.0000000000000000E+00    0.0000000000000000E+00
             0.0000000000000000E+00    0.0000000000000000E+00    0.0000000000000000E+00
             0.0000000000000000E+00    0.0000000000000000E+00    0.0000000000000000E+00
             0.0000000000000000E+00    0.0000000000000000E+00    0.0000000000000000E+00
             0.0000000000000000E+00    0.0000000000000000E+00    0.0000000000000000E+00
             0.0000000000000000E+00    0.0000000000000000E+00    0.0000000000000000E+00
             0.0000000000000000E+00    0.0000000000000000E+00    0.0000000000000000E+00
             0.0000000000000000E+00    0.0000000000000000E+00    0.0000000000000000E+00
             0.0000000000000000E+00    0.0000000000000000E+00    0.0000000000000000E+00
             0.0000000000000000E+00    0.0000000000000000E+00    0.0000000000000000E+00
             0.0000000000000000E+00    0.0000000000000000E+00    0.0000000000000000E+00
             0.0000000000000000E+00    0.0000000000000000E+00    0.0000000000000000E+00
             0.0000000000000000E+00    0.0000000000000000E+00    0.0000000000000000E+00
             0.0000000000000000E+00    0.0000000000000000E+00    0.0000000000000000E+00
             0.0000000000000000E+00    0.0000000000000000E+00    0.0000000000000000E+00
             0.0000000000000000E+00    0.0000000000000000E+00    0.0000000000000000E+00
             0.0000000000000000E+00    0.0000000000000000E+00    0.0000000000000000E+00
             0.0000000000000000E+00    0.0000000000000000E+00    0.0000000000000000E+00
             0.0000000000000000E+00    0.0000000000000000E+00    0.0000000000000000E+00
             0.0000000000000000E+00    0.0000000000000000E+00    0.0000000000000000E+00
             0.0000000000000000E+00    0.0000000000000000E+00    0.0000000000000000E+00
             0.0000000000000000E+00    0.0000000000000000E+00    0.0000000000000000E+00
             0.0000000000000000E+00    0.0000000000000000E+00    0.0000000000000000E+00
             0.0000000000000000E+00    0.0000000000000000E+00    0.0000000000000000E+00
             0.0000000000000000E+00    0.0000000000000000E+00    0.0000000000000000E+00
             0.0000000000000000E+00    0.0000000000000000E+00    0.0000000000000000E+00
             0.0000000000000000E+00    0.0000000000000000E+00    0.0000000000000000E+00
             0.0000000000000000E+00    0.0000000000000000E+00    0.0000000000000000E+00
             0.0000000000000000E+00    0.0000000000000000E+00    0.0000000000000000E+00
             0.0000000000000000E+00    0.0000000000000000E+00    0.0000000000000000E+00
             0.0000000000000000E+00    0.0000000000000000E+00    0.0000000000000000E+00
             0.0000000000000000E+00    0.0000000000000000E+00    0.0000000000000000E+00
             0.0000000000000000E+00    0.0000000000000000E+00    0.0000000000000000E+00
             0.0000000000000000E+00    0.0000000000000000E+00    0.0000000000000000E+00
             0.0000000000000000E+00    0.0000000000000000E+00    0.0000000000000000E+00
             0.0000000000000000E+00    0.0000000000000000E+00    0.0000000000000000E+00
             0.0000000000000000E+00    0.0000000000000000E+00    0.0000000000000000E+00
             0.0000000000000000E+00    0.0000000000000000E+00    0.0000000000000000E+00
             0.0000000000000000E+00    0.0000000000000000E+00    0.0000000000000000E+00
             0.0000000000000000E+00    0.0000000000000000E+00    0.0000000000000000E+00
             0.0000000000000000E+00    0.0000000000000000E+00    0.0000000000000000E+00
             0.0000000000000000E+00    0.0000000000000000E+00    0.0000000000000000E+00
             0.0000000000000000E+00    0.0000000000000000E+00    0.0000000000000000E+00
             0.0000000000000000E+00    0.0000000000000000E+00    0.0000000000000000E+00
             0.0000000000000000E+00    0.0000000000000000E+00    0.0000000000000000E+00
             0.0000000000000000E+00    0.0000000000000000E+00    0.0000000000000000E+00
             0.0000000000000000E+00    0.0000000000000000E+00    0.0000000000000000E+00