 # Version information for this restart file 
 # current date 2024-01-13 04:06:58.051
 # current working dir /gpfs/home/cahart/transport/melamine/au_from-h2/ci-neb/ts2-fixed/dft_leads-sz_tip-dzvp_surf-dzvp_kpoints-2-4-20_replicas-5
 # Program compiled at                              Thu 21 Sep 19:20:17 BST 2023
 # Program compiled on                                           hx1-c12-login-1
 # Program compiled for                                                    local
 # Source code revision number                                       git:5518aa6
 &GLOBAL
   EXTENDED_FFT_LENGTHS  T
   PRINT_LEVEL  MEDIUM
   PROJECT_NAME 2_dft_wfn-r-0
   OUTPUT_FILE_NAME 2_dft_wfn-r-0.out
   RUN_TYPE  BAND
 &END GLOBAL
 &MOTION
   &BAND
     NPROC_REP  64
     BAND_TYPE  CI-NEB
     NUMBER_OF_REPLICA  5
     K_SPRING     5.0000000000000003E-02
     &CI_NEB
       NSTEPS_IT  5
     &END CI_NEB
     &OPTIMIZE_BAND
       OPT_TYPE  DIIS
       &DIIS
         MAX_STEPS  1000
       &END DIIS
     &END OPTIMIZE_BAND
     &REPLICA
       &COORD
             0.0000000000000000E+00    0.0000000000000000E+00    0.0000000000000000E+00
             0.0000000000000000E+00    2.9549999999999801E+00    0.0000000000000000E+00
             0.0000000000000000E+00    5.9109999999999490E+00    0.0000000000000000E+00
             2.9559999999999724E+00    0.0000000000000000E+00    0.0000000000000000E+00
             2.9559999999999724E+00    2.9549999999999801E+00    0.0000000000000000E+00
             2.9559999999999724E+00    5.9109999999999490E+00    0.0000000000000000E+00
             5.9119999999999449E+00    0.0000000000000000E+00    0.0000000000000000E+00
             5.9119999999999449E+00    2.9549999999999801E+00    0.0000000000000000E+00
             5.9119999999999449E+00    5.9109999999999490E+00    0.0000000000000000E+00
             8.6699999999999289E+00    0.0000000000000000E+00    0.0000000000000000E+00
             8.6699999999999289E+00    2.9549999999999801E+00    0.0000000000000000E+00
             8.6699999999999289E+00    5.9109999999999490E+00    0.0000000000000000E+00
             1.1625999999999946E+01    0.0000000000000000E+00    0.0000000000000000E+00
             1.1625999999999946E+01    2.9549999999999801E+00    0.0000000000000000E+00
             1.1625999999999946E+01    5.9109999999999490E+00    0.0000000000000000E+00
             1.4779999999999862E+00    1.4779999999999862E+00    2.0899999999999785E+00
             1.4779999999999862E+00    4.4329999999999776E+00    2.0899999999999785E+00
             1.4779999999999862E+00    7.3889999999999318E+00    2.0899999999999785E+00
             4.4339999999999593E+00    1.4779999999999862E+00    2.0899999999999785E+00
             4.4339999999999593E+00    4.4329999999999776E+00    2.0899999999999785E+00
             4.4339999999999593E+00    7.3889999999999318E+00    2.0899999999999785E+00
             7.1919999999999167E+00    1.4779999999999862E+00    2.0899999999999785E+00
             7.1919999999999167E+00    4.4329999999999776E+00    2.0899999999999785E+00
             7.1919999999999167E+00    7.3889999999999318E+00    2.0899999999999785E+00
             1.0147999999999913E+01    1.4779999999999862E+00    2.0899999999999785E+00
             1.0147999999999913E+01    4.4329999999999776E+00    2.0899999999999785E+00
             1.0147999999999913E+01    7.3889999999999318E+00    2.0899999999999785E+00
             1.3103999999999912E+01    1.4779999999999862E+00    2.0899999999999785E+00
             1.3103999999999912E+01    4.4329999999999776E+00    2.0899999999999785E+00
             1.3103999999999912E+01    7.3889999999999318E+00    2.0899999999999785E+00
             0.0000000000000000E+00    0.0000000000000000E+00    4.1799999999999571E+00
             0.0000000000000000E+00    2.9549999999999801E+00    4.1799999999999571E+00
             0.0000000000000000E+00    5.9109999999999490E+00    4.1799999999999571E+00
             2.9559999999999724E+00    0.0000000000000000E+00    4.1799999999999571E+00
             2.9559999999999724E+00    2.9549999999999801E+00    4.1799999999999571E+00
             2.9559999999999724E+00    5.9109999999999490E+00    4.1799999999999571E+00
             5.9119999999999449E+00    0.0000000000000000E+00    4.1799999999999571E+00
             5.9119999999999449E+00    2.9549999999999801E+00    4.1799999999999571E+00
             5.9119999999999449E+00    5.9109999999999490E+00    4.1799999999999571E+00
             8.6699999999999289E+00    0.0000000000000000E+00    4.1799999999999571E+00
             8.6699999999999289E+00    2.9549999999999801E+00    4.1799999999999571E+00
             8.6699999999999289E+00    5.9109999999999490E+00    4.1799999999999571E+00
             1.1625999999999946E+01    0.0000000000000000E+00    4.1799999999999571E+00
             1.1625999999999946E+01    2.9549999999999801E+00    4.1799999999999571E+00
             1.1625999999999946E+01    5.9109999999999490E+00    4.1799999999999571E+00
             1.4779999999999862E+00    1.4779999999999862E+00    6.2699999999999356E+00
             1.4779999999999862E+00    4.4329999999999776E+00    6.2699999999999356E+00
             1.4779999999999862E+00    7.3889999999999318E+00    6.2699999999999356E+00
             4.4339999999999593E+00    1.4779999999999862E+00    6.2699999999999356E+00
             4.4339999999999593E+00    4.4329999999999776E+00    6.2699999999999356E+00
             4.4339999999999593E+00    7.3889999999999318E+00    6.2699999999999356E+00
             7.1919999999999167E+00    1.4779999999999862E+00    6.2699999999999356E+00
             7.1919999999999167E+00    4.4329999999999776E+00    6.2699999999999356E+00
             7.1919999999999167E+00    7.3889999999999318E+00    6.2699999999999356E+00
             1.0147999999999913E+01    1.4779999999999862E+00    6.2699999999999356E+00
             1.0147999999999913E+01    4.4329999999999776E+00    6.2699999999999356E+00
             1.0147999999999913E+01    7.3889999999999318E+00    6.2699999999999356E+00
             1.3103999999999912E+01    1.4779999999999862E+00    6.2699999999999356E+00
             1.3103999999999912E+01    4.4329999999999776E+00    6.2699999999999356E+00
             1.3103999999999912E+01    7.3889999999999318E+00    6.2699999999999356E+00
             0.0000000000000000E+00    0.0000000000000000E+00    8.3599999999999142E+00
             0.0000000000000000E+00    2.9549999999999801E+00    8.3599999999999142E+00
             0.0000000000000000E+00    5.9109999999999490E+00    8.3599999999999142E+00
             2.9559999999999724E+00    0.0000000000000000E+00    8.3599999999999142E+00
             2.9559999999999724E+00    2.9549999999999801E+00    8.3599999999999142E+00
             2.9559999999999724E+00    5.9109999999999490E+00    8.3599999999999142E+00
             5.9119999999999449E+00    0.0000000000000000E+00    8.3599999999999142E+00
             5.9119999999999449E+00    2.9549999999999801E+00    8.3599999999999142E+00
             5.9119999999999449E+00    5.9109999999999490E+00    8.3599999999999142E+00
             8.6699999999999289E+00    0.0000000000000000E+00    8.3599999999999142E+00
             8.6699999999999289E+00    2.9549999999999801E+00    8.3599999999999142E+00
             8.6699999999999289E+00    5.9109999999999490E+00    8.3599999999999142E+00
             1.1625999999999946E+01    0.0000000000000000E+00    8.3599999999999142E+00
             1.1625999999999946E+01    2.9549999999999801E+00    8.3599999999999142E+00
             1.1625999999999946E+01    5.9109999999999490E+00    8.3599999999999142E+00
             1.4779999999999862E+00    1.4779999999999862E+00    1.0449999999999923E+01
             1.4779999999999862E+00    4.4329999999999776E+00    1.0449999999999923E+01
             1.4779999999999862E+00    7.3889999999999318E+00    1.0449999999999923E+01
             4.4339999999999593E+00    1.4779999999999862E+00    1.0449999999999923E+01
             4.4339999999999593E+00    4.4329999999999776E+00    1.0449999999999923E+01
             4.4339999999999593E+00    7.3889999999999318E+00    1.0449999999999923E+01
             7.1919999999999167E+00    1.4779999999999862E+00    1.0449999999999923E+01
             7.1919999999999167E+00    4.4329999999999776E+00    1.0449999999999923E+01
             7.1919999999999167E+00    7.3889999999999318E+00    1.0449999999999923E+01
             1.0147999999999913E+01    1.4779999999999862E+00    1.0449999999999923E+01
             1.0147999999999913E+01    4.4329999999999776E+00    1.0449999999999923E+01
             1.0147999999999913E+01    7.3889999999999318E+00    1.0449999999999923E+01
             1.3103999999999912E+01    1.4779999999999862E+00    1.0449999999999923E+01
             1.3103999999999912E+01    4.4329999999999776E+00    1.0449999999999923E+01
             1.3103999999999912E+01    7.3889999999999318E+00    1.0449999999999923E+01
             4.8553999999999684E+00    5.9118999999999176E+00    1.2031799999999885E+01
             9.5279999999999081E+00    5.9136999999999507E+00    1.2033999999999899E+01
             7.1919999999999167E+00    5.9339999999999575E+00    1.2039999999999898E+01
             4.0673339927999779E+00    5.9059993219999534E+00    1.2687741368899896E+01
             1.0318905404799914E+01    5.9087793825999553E+00    1.2685747073199924E+01
             5.9989554221999404E+00    5.9152564165999655E+00    1.2792642411199871E+01
             8.3738707292999468E+00    5.9179777706999488E+00    1.2731457252199922E+01
             8.3227525761999033E+00    5.9051536094999584E+00    1.4080497642099877E+01
             5.9344285048999614E+00    5.8981604864999611E+00    1.4101749969599885E+01
             7.1039653576999413E+00    5.8899410688999305E+00    1.4828703219099863E+01
             7.2416021046999468E+00    5.8657702091999795E+00    1.6106466757299870E+01
             6.3118250322999438E+00    5.8547577070999628E+00    1.6539601306199856E+01
             9.1743570612999310E+00    5.8876302391999120E+00    1.4641017735299890E+01
             7.3119999999999434E+00    5.9339999999999575E+00    2.1042999999999864E+01
             5.8129999999999731E+00    7.4339999999999531E+00    2.2991999999999805E+01
             8.8129999999999544E+00    4.4339999999999593E+00    2.2991999999999805E+01
             5.8129999999999731E+00    4.4329999999999776E+00    2.2991999999999805E+01
             8.8129999999999544E+00    7.4339999999999531E+00    2.2991999999999805E+01
             1.4779999999999862E+00    1.4779999999999862E+00    2.5081999999999894E+01
             1.4779999999999862E+00    4.4329999999999776E+00    2.5081999999999894E+01
             1.4779999999999862E+00    7.3889999999999318E+00    2.5081999999999894E+01
             4.4339999999999593E+00    1.4779999999999862E+00    2.5081999999999894E+01
             4.4339999999999593E+00    4.4329999999999776E+00    2.5081999999999894E+01
             4.4339999999999593E+00    7.3889999999999318E+00    2.5081999999999894E+01
             7.1919999999999167E+00    1.4779999999999862E+00    2.5081999999999894E+01
             7.1919999999999167E+00    4.4329999999999776E+00    2.5081999999999894E+01
             7.1919999999999167E+00    7.3889999999999318E+00    2.5081999999999894E+01
             1.0147999999999913E+01    1.4779999999999862E+00    2.5081999999999894E+01
             1.0147999999999913E+01    4.4329999999999776E+00    2.5081999999999894E+01
             1.0147999999999913E+01    7.3889999999999318E+00    2.5081999999999894E+01
             1.3103999999999912E+01    1.4779999999999862E+00    2.5081999999999894E+01
             1.3103999999999912E+01    4.4329999999999776E+00    2.5081999999999894E+01
             1.3103999999999912E+01    7.3889999999999318E+00    2.5081999999999894E+01
             0.0000000000000000E+00    0.0000000000000000E+00    2.7171999999999748E+01
             0.0000000000000000E+00    2.9549999999999801E+00    2.7171999999999748E+01
             0.0000000000000000E+00    5.9109999999999490E+00    2.7171999999999748E+01
             2.9559999999999724E+00    0.0000000000000000E+00    2.7171999999999748E+01
             2.9559999999999724E+00    2.9549999999999801E+00    2.7171999999999748E+01
             2.9559999999999724E+00    5.9109999999999490E+00    2.7171999999999748E+01
             5.9119999999999449E+00    0.0000000000000000E+00    2.7171999999999748E+01
             5.9119999999999449E+00    2.9549999999999801E+00    2.7171999999999748E+01
             5.9119999999999449E+00    5.9109999999999490E+00    2.7171999999999748E+01
             8.6699999999999289E+00    0.0000000000000000E+00    2.7171999999999748E+01
             8.6699999999999289E+00    2.9549999999999801E+00    2.7171999999999748E+01
             8.6699999999999289E+00    5.9109999999999490E+00    2.7171999999999748E+01
             1.1625999999999946E+01    0.0000000000000000E+00    2.7171999999999748E+01
             1.1625999999999946E+01    2.9549999999999801E+00    2.7171999999999748E+01
             1.1625999999999946E+01    5.9109999999999490E+00    2.7171999999999748E+01
             1.4779999999999862E+00    1.4779999999999862E+00    2.9261999999999706E+01
             1.4779999999999862E+00    4.4329999999999776E+00    2.9261999999999706E+01
             1.4779999999999862E+00    7.3889999999999318E+00    2.9261999999999706E+01
             4.4339999999999593E+00    1.4779999999999862E+00    2.9261999999999706E+01
             4.4339999999999593E+00    4.4329999999999776E+00    2.9261999999999706E+01
             4.4339999999999593E+00    7.3889999999999318E+00    2.9261999999999706E+01
             7.1919999999999167E+00    1.4779999999999862E+00    2.9261999999999706E+01
             7.1919999999999167E+00    4.4329999999999776E+00    2.9261999999999706E+01
             7.1919999999999167E+00    7.3889999999999318E+00    2.9261999999999706E+01
             1.0147999999999913E+01    1.4779999999999862E+00    2.9261999999999706E+01
             1.0147999999999913E+01    4.4329999999999776E+00    2.9261999999999706E+01
             1.0147999999999913E+01    7.3889999999999318E+00    2.9261999999999706E+01
             1.3103999999999912E+01    1.4779999999999862E+00    2.9261999999999706E+01
             1.3103999999999912E+01    4.4329999999999776E+00    2.9261999999999706E+01
             1.3103999999999912E+01    7.3889999999999318E+00    2.9261999999999706E+01
             0.0000000000000000E+00    0.0000000000000000E+00    3.1351999999999666E+01
             0.0000000000000000E+00    2.9549999999999801E+00    3.1351999999999666E+01
             0.0000000000000000E+00    5.9109999999999490E+00    3.1351999999999666E+01
             2.9559999999999724E+00    0.0000000000000000E+00    3.1351999999999666E+01
             2.9559999999999724E+00    2.9549999999999801E+00    3.1351999999999666E+01
             2.9559999999999724E+00    5.9109999999999490E+00    3.1351999999999666E+01
             5.9119999999999449E+00    0.0000000000000000E+00    3.1351999999999666E+01
             5.9119999999999449E+00    2.9549999999999801E+00    3.1351999999999666E+01
             5.9119999999999449E+00    5.9109999999999490E+00    3.1351999999999666E+01
             8.6699999999999289E+00    0.0000000000000000E+00    3.1351999999999666E+01
             8.6699999999999289E+00    2.9549999999999801E+00    3.1351999999999666E+01
             8.6699999999999289E+00    5.9109999999999490E+00    3.1351999999999666E+01
             1.1625999999999946E+01    0.0000000000000000E+00    3.1351999999999666E+01
             1.1625999999999946E+01    2.9549999999999801E+00    3.1351999999999666E+01
             1.1625999999999946E+01    5.9109999999999490E+00    3.1351999999999666E+01
             1.4779999999999862E+00    1.4779999999999862E+00    3.3441999999999716E+01
             1.4779999999999862E+00    4.4329999999999776E+00    3.3441999999999716E+01
             1.4779999999999862E+00    7.3889999999999318E+00    3.3441999999999716E+01
             4.4339999999999593E+00    1.4779999999999862E+00    3.3441999999999716E+01
             4.4339999999999593E+00    4.4329999999999776E+00    3.3441999999999716E+01
             4.4339999999999593E+00    7.3889999999999318E+00    3.3441999999999716E+01
             7.1919999999999167E+00    1.4779999999999862E+00    3.3441999999999716E+01
             7.1919999999999167E+00    4.4329999999999776E+00    3.3441999999999716E+01
             7.1919999999999167E+00    7.3889999999999318E+00    3.3441999999999716E+01
             1.0147999999999913E+01    1.4779999999999862E+00    3.3441999999999716E+01
             1.0147999999999913E+01    4.4329999999999776E+00    3.3441999999999716E+01
             1.0147999999999913E+01    7.3889999999999318E+00    3.3441999999999716E+01
             1.3103999999999912E+01    1.4779999999999862E+00    3.3441999999999716E+01
             1.3103999999999912E+01    4.4329999999999776E+00    3.3441999999999716E+01
             1.3103999999999912E+01    7.3889999999999318E+00    3.3441999999999716E+01
       &END COORD
       &VELOCITY
             0.0000000000000000E+00    0.0000000000000000E+00    0.0000000000000000E+00
             0.0000000000000000E+00    0.0000000000000000E+00    0.0000000000000000E+00
             0.0000000000000000E+00    0.0000000000000000E+00    0.0000000000000000E+00
             0.0000000000000000E+00    0.0000000000000000E+00    0.0000000000000000E+00
             0.0000000000000000E+00    0.0000000000000000E+00    0.0000000000000000E+00
             0.0000000000000000E+00    0.0000000000000000E+00    0.0000000000000000E+00
             0.0000000000000000E+00    0.0000000000000000E+00    0.0000000000000000E+00
             0.0000000000000000E+00    0.0000000000000000E+00    0.0000000000000000E+00
             0.0000000000000000E+00    0.0000000000000000E+00    0.0000000000000000E+00
             0.0000000000000000E+00    0.0000000000000000E+00    0.0000000000000000E+00
             0.0000000000000000E+00    0.0000000000000000E+00    0.0000000000000000E+00
             0.0000000000000000E+00    0.0000000000000000E+00    0.0000000000000000E+00
             0.0000000000000000E+00    0.0000000000000000E+00    0.0000000000000000E+00
             0.0000000000000000E+00    0.0000000000000000E+00    0.0000000000000000E+00
             0.0000000000000000E+00    0.0000000000000000E+00    0.0000000000000000E+00
             0.0000000000000000E+00    0.0000000000000000E+00    0.0000000000000000E+00
             0.0000000000000000E+00    0.0000000000000000E+00    0.0000000000000000E+00
             0.0000000000000000E+00    0.0000000000000000E+00    0.0000000000000000E+00
             0.0000000000000000E+00    0.0000000000000000E+00    0.0000000000000000E+00
             0.0000000000000000E+00    0.0000000000000000E+00    0.0000000000000000E+00
             0.0000000000000000E+00    0.0000000000000000E+00    0.0000000000000000E+00
             0.0000000000000000E+00    0.0000000000000000E+00    0.0000000000000000E+00
             0.0000000000000000E+00    0.0000000000000000E+00    0.0000000000000000E+00
             0.0000000000000000E+00    0.0000000000000000E+00    0.0000000000000000E+00
             0.0000000000000000E+00    0.0000000000000000E+00    0.0000000000000000E+00
             0.0000000000000000E+00    0.0000000000000000E+00    0.0000000000000000E+00
             0.0000000000000000E+00    0.0000000000000000E+00    0.0000000000000000E+00
             0.0000000000000000E+00    0.0000000000000000E+00    0.0000000000000000E+00
             0.0000000000000000E+00    0.0000000000000000E+00    0.0000000000000000E+00
             0.0000000000000000E+00    0.0000000000000000E+00    0.0000000000000000E+00
             0.0000000000000000E+00    0.0000000000000000E+00    0.0000000000000000E+00
             0.0000000000000000E+00    0.0000000000000000E+00    0.0000000000000000E+00
             0.0000000000000000E+00    0.0000000000000000E+00    0.0000000000000000E+00
             0.0000000000000000E+00    0.0000000000000000E+00    0.0000000000000000E+00
             0.0000000000000000E+00    0.0000000000000000E+00    0.0000000000000000E+00
             0.0000000000000000E+00    0.0000000000000000E+00    0.0000000000000000E+00
             0.0000000000000000E+00    0.0000000000000000E+00    0.0000000000000000E+00
             0.0000000000000000E+00    0.0000000000000000E+00    0.0000000000000000E+00
             0.0000000000000000E+00    0.0000000000000000E+00    0.0000000000000000E+00
             0.0000000000000000E+00    0.0000000000000000E+00    0.0000000000000000E+00
             0.0000000000000000E+00    0.0000000000000000E+00    0.0000000000000000E+00
             0.0000000000000000E+00    0.0000000000000000E+00    0.0000000000000000E+00
             0.0000000000000000E+00    0.0000000000000000E+00    0.0000000000000000E+00
             0.0000000000000000E+00    0.0000000000000000E+00    0.0000000000000000E+00
             0.0000000000000000E+00    0.0000000000000000E+00    0.0000000000000000E+00
             0.0000000000000000E+00    0.0000000000000000E+00    0.0000000000000000E+00
             0.0000000000000000E+00    0.0000000000000000E+00    0.0000000000000000E+00
             0.0000000000000000E+00    0.0000000000000000E+00    0.0000000000000000E+00
             0.0000000000000000E+00    0.0000000000000000E+00    0.0000000000000000E+00
             0.0000000000000000E+00    0.0000000000000000E+00    0.0000000000000000E+00
             0.0000000000000000E+00    0.0000000000000000E+00    0.0000000000000000E+00
             0.0000000000000000E+00    0.0000000000000000E+00    0.0000000000000000E+00
             0.0000000000000000E+00    0.0000000000000000E+00    0.0000000000000000E+00
             0.0000000000000000E+00    0.0000000000000000E+00    0.0000000000000000E+00
             0.0000000000000000E+00    0.0000000000000000E+00    0.0000000000000000E+00
             0.0000000000000000E+00    0.0000000000000000E+00    0.0000000000000000E+00
             0.0000000000000000E+00    0.0000000000000000E+00    0.0000000000000000E+00
             0.0000000000000000E+00    0.0000000000000000E+00    0.0000000000000000E+00
             0.0000000000000000E+00    0.0000000000000000E+00    0.0000000000000000E+00
             0.0000000000000000E+00    0.0000000000000000E+00    0.0000000000000000E+00
             0.0000000000000000E+00    0.0000000000000000E+00    0.0000000000000000E+00
             0.0000000000000000E+00    0.0000000000000000E+00    0.0000000000000000E+00
             0.0000000000000000E+00    0.0000000000000000E+00    0.0000000000000000E+00
             0.0000000000000000E+00    0.0000000000000000E+00    0.0000000000000000E+00
             0.0000000000000000E+00    0.0000000000000000E+00    0.0000000000000000E+00
             0.0000000000000000E+00    0.0000000000000000E+00    0.0000000000000000E+00
             0.0000000000000000E+00    0.0000000000000000E+00    0.0000000000000000E+00
             0.0000000000000000E+00    0.0000000000000000E+00    0.0000000000000000E+00
             0.0000000000000000E+00    0.0000000000000000E+00    0.0000000000000000E+00
             0.0000000000000000E+00    0.0000000000000000E+00    0.0000000000000000E+00
             0.0000000000000000E+00    0.0000000000000000E+00    0.0000000000000000E+00
             0.0000000000000000E+00    0.0000000000000000E+00    0.0000000000000000E+00
             0.0000000000000000E+00    0.0000000000000000E+00    0.0000000000000000E+00
             0.0000000000000000E+00    0.0000000000000000E+00    0.0000000000000000E+00
             0.0000000000000000E+00    0.0000000000000000E+00    0.0000000000000000E+00
             0.0000000000000000E+00    0.0000000000000000E+00    0.0000000000000000E+00
             0.0000000000000000E+00    0.0000000000000000E+00    0.0000000000000000E+00
             0.0000000000000000E+00    0.0000000000000000E+00    0.0000000000000000E+00
             0.0000000000000000E+00    0.0000000000000000E+00    0.0000000000000000E+00
             0.0000000000000000E+00    0.0000000000000000E+00    0.0000000000000000E+00
             0.0000000000000000E+00    0.0000000000000000E+00    0.0000000000000000E+00
             0.0000000000000000E+00    0.0000000000000000E+00    0.0000000000000000E+00
             0.0000000000000000E+00    0.0000000000000000E+00    0.0000000000000000E+00
             0.0000000000000000E+00    0.0000000000000000E+00    0.0000000000000000E+00
             0.0000000000000000E+00    0.0000000000000000E+00    0.0000000000000000E+00
             0.0000000000000000E+00    0.0000000000000000E+00    0.0000000000000000E+00
             0.0000000000000000E+00    0.0000000000000000E+00    0.0000000000000000E+00
             0.0000000000000000E+00    0.0000000000000000E+00    0.0000000000000000E+00
             0.0000000000000000E+00    0.0000000000000000E+00    0.0000000000000000E+00
             0.0000000000000000E+00    0.0000000000000000E+00    0.0000000000000000E+00
             0.0000000000000000E+00    0.0000000000000000E+00    0.0000000000000000E+00
             0.0000000000000000E+00    0.0000000000000000E+00    0.0000000000000000E+00
             0.0000000000000000E+00    0.0000000000000000E+00    0.0000000000000000E+00
             0.0000000000000000E+00    0.0000000000000000E+00    0.0000000000000000E+00
             0.0000000000000000E+00    0.0000000000000000E+00    0.0000000000000000E+00
             0.0000000000000000E+00    0.0000000000000000E+00    0.0000000000000000E+00
             0.0000000000000000E+00    0.0000000000000000E+00    0.0000000000000000E+00
             0.0000000000000000E+00    0.0000000000000000E+00    0.0000000000000000E+00
             0.0000000000000000E+00    0.0000000000000000E+00    0.0000000000000000E+00
             0.0000000000000000E+00    0.0000000000000000E+00    0.0000000000000000E+00
             0.0000000000000000E+00    0.0000000000000000E+00    0.0000000000000000E+00
             0.0000000000000000E+00    0.0000000000000000E+00    0.0000000000000000E+00
             0.0000000000000000E+00    0.0000000000000000E+00    0.0000000000000000E+00
             0.0000000000000000E+00    0.0000000000000000E+00    0.0000000000000000E+00
             0.0000000000000000E+00    0.0000000000000000E+00    0.0000000000000000E+00
             0.0000000000000000E+00    0.0000000000000000E+00    0.0000000000000000E+00
             0.0000000000000000E+00    0.0000000000000000E+00    0.0000000000000000E+00
             0.0000000000000000E+00    0.0000000000000000E+00    0.0000000000000000E+00
             0.0000000000000000E+00    0.0000000000000000E+00    0.0000000000000000E+00
             0.0000000000000000E+00    0.0000000000000000E+00    0.0000000000000000E+00
             0.0000000000000000E+00    0.0000000000000000E+00    0.0000000000000000E+00
             0.0000000000000000E+00    0.0000000000000000E+00    0.0000000000000000E+00
             0.0000000000000000E+00    0.0000000000000000E+00    0.0000000000000000E+00
             0.0000000000000000E+00    0.0000000000000000E+00    0.0000000000000000E+00
             0.0000000000000000E+00    0.0000000000000000E+00    0.0000000000000000E+00
             0.0000000000000000E+00    0.0000000000000000E+00    0.0000000000000000E+00
             0.0000000000000000E+00    0.0000000000000000E+00    0.0000000000000000E+00
             0.0000000000000000E+00    0.0000000000000000E+00    0.0000000000000000E+00
             0.0000000000000000E+00    0.0000000000000000E+00    0.0000000000000000E+00
             0.0000000000000000E+00    0.0000000000000000E+00    0.0000000000000000E+00
             0.0000000000000000E+00    0.0000000000000000E+00    0.0000000000000000E+00
             0.0000000000000000E+00    0.0000000000000000E+00    0.0000000000000000E+00
             0.0000000000000000E+00    0.0000000000000000E+00    0.0000000000000000E+00
             0.0000000000000000E+00    0.0000000000000000E+00    0.0000000000000000E+00
             0.0000000000000000E+00    0.0000000000000000E+00    0.0000000000000000E+00
             0.0000000000000000E+00    0.0000000000000000E+00    0.0000000000000000E+00
             0.0000000000000000E+00    0.0000000000000000E+00    0.0000000000000000E+00
             0.0000000000000000E+00    0.0000000000000000E+00    0.0000000000000000E+00
             0.0000000000000000E+00    0.0000000000000000E+00    0.0000000000000000E+00
             0.0000000000000000E+00    0.0000000000000000E+00    0.0000000000000000E+00
             0.0000000000000000E+00    0.0000000000000000E+00    0.0000000000000000E+00
             0.0000000000000000E+00    0.0000000000000000E+00    0.0000000000000000E+00
             0.0000000000000000E+00    0.0000000000000000E+00    0.0000000000000000E+00
             0.0000000000000000E+00    0.0000000000000000E+00    0.0000000000000000E+00
             0.0000000000000000E+00    0.0000000000000000E+00    0.0000000000000000E+00
             0.0000000000000000E+00    0.0000000000000000E+00    0.0000000000000000E+00
             0.0000000000000000E+00    0.0000000000000000E+00    0.0000000000000000E+00
             0.0000000000000000E+00    0.0000000000000000E+00    0.0000000000000000E+00
             0.0000000000000000E+00    0.0000000000000000E+00    0.0000000000000000E+00
             0.0000000000000000E+00    0.0000000000000000E+00    0.0000000000000000E+00
             0.0000000000000000E+00    0.0000000000000000E+00    0.0000000000000000E+00
             0.0000000000000000E+00    0.0000000000000000E+00    0.0000000000000000E+00
             0.0000000000000000E+00    0.0000000000000000E+00    0.0000000000000000E+00
             0.0000000000000000E+00    0.0000000000000000E+00    0.0000000000000000E+00
             0.0000000000000000E+00    0.0000000000000000E+00    0.0000000000000000E+00