 # Version information for this restart file 
 # current date 2024-01-13 13:35:33.090
 # current working dir /gpfs/home/cahart/transport/melamine/au_from-h2/ci-neb/ts2-fixed/dft_leads-sz_tip-dzvp_surf-dzvp_kpoints-2-4-20_replicas-5
 # Program compiled at                              Thu 21 Sep 19:20:17 BST 2023
 # Program compiled on                                           hx1-c12-login-1
 # Program compiled for                                                    local
 # Source code revision number                                       git:5518aa6
 &GLOBAL
   EXTENDED_FFT_LENGTHS  T
   PRINT_LEVEL  MEDIUM
   PROJECT_NAME 2_dft_wfn-r-0
   OUTPUT_FILE_NAME 2_dft_wfn-r-0.out
   RUN_TYPE  BAND
 &END GLOBAL
 &MOTION
   &BAND
     NPROC_REP  64
     BAND_TYPE  CI-NEB
     NUMBER_OF_REPLICA  5
     K_SPRING     5.0000000000000003E-02
     &CI_NEB
       NSTEPS_IT  5
     &END CI_NEB
     &OPTIMIZE_BAND
       OPT_TYPE  DIIS
       &DIIS
         MAX_STEPS  1000
       &END DIIS
     &END OPTIMIZE_BAND
     &REPLICA
       &COORD
             0.0000000000000000E+00    0.0000000000000000E+00    0.0000000000000000E+00
             0.0000000000000000E+00    2.9549999999999850E+00    0.0000000000000000E+00
             0.0000000000000000E+00    5.9109999999999605E+00    0.0000000000000000E+00
             2.9559999999999755E+00    0.0000000000000000E+00    0.0000000000000000E+00
             2.9559999999999755E+00    2.9549999999999850E+00    0.0000000000000000E+00
             2.9559999999999755E+00    5.9109999999999605E+00    0.0000000000000000E+00
             5.9119999999999511E+00    0.0000000000000000E+00    0.0000000000000000E+00
             5.9119999999999511E+00    2.9549999999999850E+00    0.0000000000000000E+00
             5.9119999999999511E+00    5.9109999999999605E+00    0.0000000000000000E+00
             8.6699999999999307E+00    0.0000000000000000E+00    0.0000000000000000E+00
             8.6699999999999307E+00    2.9549999999999850E+00    0.0000000000000000E+00
             8.6699999999999307E+00    5.9109999999999605E+00    0.0000000000000000E+00
             1.1625999999999966E+01    0.0000000000000000E+00    0.0000000000000000E+00
             1.1625999999999966E+01    2.9549999999999850E+00    0.0000000000000000E+00
             1.1625999999999966E+01    5.9109999999999605E+00    0.0000000000000000E+00
             1.4779999999999878E+00    1.4779999999999878E+00    2.0899999999999812E+00
             1.4779999999999878E+00    4.4329999999999856E+00    2.0899999999999812E+00
             1.4779999999999878E+00    7.3889999999999390E+00    2.0899999999999812E+00
             4.4339999999999700E+00    1.4779999999999878E+00    2.0899999999999812E+00
             4.4339999999999700E+00    4.4329999999999856E+00    2.0899999999999812E+00
             4.4339999999999700E+00    7.3889999999999390E+00    2.0899999999999812E+00
             7.1919999999999291E+00    1.4779999999999878E+00    2.0899999999999812E+00
             7.1919999999999291E+00    4.4329999999999856E+00    2.0899999999999812E+00
             7.1919999999999291E+00    7.3889999999999390E+00    2.0899999999999812E+00
             1.0147999999999927E+01    1.4779999999999878E+00    2.0899999999999812E+00
             1.0147999999999927E+01    4.4329999999999856E+00    2.0899999999999812E+00
             1.0147999999999927E+01    7.3889999999999390E+00    2.0899999999999812E+00
             1.3103999999999912E+01    1.4779999999999878E+00    2.0899999999999812E+00
             1.3103999999999912E+01    4.4329999999999856E+00    2.0899999999999812E+00
             1.3103999999999912E+01    7.3889999999999390E+00    2.0899999999999812E+00
             0.0000000000000000E+00    0.0000000000000000E+00    4.1799999999999624E+00
             0.0000000000000000E+00    2.9549999999999850E+00    4.1799999999999624E+00
             0.0000000000000000E+00    5.9109999999999605E+00    4.1799999999999624E+00
             2.9559999999999755E+00    0.0000000000000000E+00    4.1799999999999624E+00
             2.9559999999999755E+00    2.9549999999999850E+00    4.1799999999999624E+00
             2.9559999999999755E+00    5.9109999999999605E+00    4.1799999999999624E+00
             5.9119999999999511E+00    0.0000000000000000E+00    4.1799999999999624E+00
             5.9119999999999511E+00    2.9549999999999850E+00    4.1799999999999624E+00
             5.9119999999999511E+00    5.9109999999999605E+00    4.1799999999999624E+00
             8.6699999999999307E+00    0.0000000000000000E+00    4.1799999999999624E+00
             8.6699999999999307E+00    2.9549999999999850E+00    4.1799999999999624E+00
             8.6699999999999307E+00    5.9109999999999605E+00    4.1799999999999624E+00
             1.1625999999999966E+01    0.0000000000000000E+00    4.1799999999999624E+00
             1.1625999999999966E+01    2.9549999999999850E+00    4.1799999999999624E+00
             1.1625999999999966E+01    5.9109999999999605E+00    4.1799999999999624E+00
             1.4779999999999878E+00    1.4779999999999878E+00    6.2699999999999498E+00
             1.4779999999999878E+00    4.4329999999999856E+00    6.2699999999999498E+00
             1.4779999999999878E+00    7.3889999999999390E+00    6.2699999999999498E+00
             4.4339999999999700E+00    1.4779999999999878E+00    6.2699999999999498E+00
             4.4339999999999700E+00    4.4329999999999856E+00    6.2699999999999498E+00
             4.4339999999999700E+00    7.3889999999999390E+00    6.2699999999999498E+00
             7.1919999999999291E+00    1.4779999999999878E+00    6.2699999999999498E+00
             7.1919999999999291E+00    4.4329999999999856E+00    6.2699999999999498E+00
             7.1919999999999291E+00    7.3889999999999390E+00    6.2699999999999498E+00
             1.0147999999999927E+01    1.4779999999999878E+00    6.2699999999999498E+00
             1.0147999999999927E+01    4.4329999999999856E+00    6.2699999999999498E+00
             1.0147999999999927E+01    7.3889999999999390E+00    6.2699999999999498E+00
             1.3103999999999912E+01    1.4779999999999878E+00    6.2699999999999498E+00
             1.3103999999999912E+01    4.4329999999999856E+00    6.2699999999999498E+00
             1.3103999999999912E+01    7.3889999999999390E+00    6.2699999999999498E+00
             0.0000000000000000E+00    0.0000000000000000E+00    8.3599999999999248E+00
             0.0000000000000000E+00    2.9549999999999850E+00    8.3599999999999248E+00
             0.0000000000000000E+00    5.9109999999999605E+00    8.3599999999999248E+00
             2.9559999999999755E+00    0.0000000000000000E+00    8.3599999999999248E+00
             2.9559999999999755E+00    2.9549999999999850E+00    8.3599999999999248E+00
             2.9559999999999755E+00    5.9109999999999605E+00    8.3599999999999248E+00
             5.9119999999999511E+00    0.0000000000000000E+00    8.3599999999999248E+00
             5.9119999999999511E+00    2.9549999999999850E+00    8.3599999999999248E+00
             5.9119999999999511E+00    5.9109999999999605E+00    8.3599999999999248E+00
             8.6699999999999307E+00    0.0000000000000000E+00    8.3599999999999248E+00
             8.6699999999999307E+00    2.9549999999999850E+00    8.3599999999999248E+00
             8.6699999999999307E+00    5.9109999999999605E+00    8.3599999999999248E+00
             1.1625999999999966E+01    0.0000000000000000E+00    8.3599999999999248E+00
             1.1625999999999966E+01    2.9549999999999850E+00    8.3599999999999248E+00
             1.1625999999999966E+01    5.9109999999999605E+00    8.3599999999999248E+00
             1.4779999999999878E+00    1.4779999999999878E+00    1.0449999999999948E+01
             1.4779999999999878E+00    4.4329999999999856E+00    1.0449999999999948E+01
             1.4779999999999878E+00    7.3889999999999390E+00    1.0449999999999948E+01
             4.4339999999999700E+00    1.4779999999999878E+00    1.0449999999999948E+01
             4.4339999999999700E+00    4.4329999999999856E+00    1.0449999999999948E+01
             4.4339999999999700E+00    7.3889999999999390E+00    1.0449999999999948E+01
             7.1919999999999291E+00    1.4779999999999878E+00    1.0449999999999948E+01
             7.1919999999999291E+00    4.4329999999999856E+00    1.0449999999999948E+01
             7.1919999999999291E+00    7.3889999999999390E+00    1.0449999999999948E+01
             1.0147999999999927E+01    1.4779999999999878E+00    1.0449999999999948E+01
             1.0147999999999927E+01    4.4329999999999856E+00    1.0449999999999948E+01
             1.0147999999999927E+01    7.3889999999999390E+00    1.0449999999999948E+01
             1.3103999999999912E+01    1.4779999999999878E+00    1.0449999999999948E+01
             1.3103999999999912E+01    4.4329999999999856E+00    1.0449999999999948E+01
             1.3103999999999912E+01    7.3889999999999390E+00    1.0449999999999948E+01
             4.8553999999999737E+00    5.9118999999999300E+00    1.2031799999999912E+01
             9.5279999999999152E+00    5.9136999999999533E+00    1.2033999999999908E+01
             7.1919999999999291E+00    5.9339999999999646E+00    1.2039999999999923E+01
             4.0673339927999894E+00    5.9059993219999631E+00    1.2687741368899919E+01
             1.0318905404799931E+01    5.9087793825999579E+00    1.2685747073199945E+01
             5.9989554221999430E+00    5.9152564165999744E+00    1.2792642411199880E+01
             8.3738707292999557E+00    5.9179777706999630E+00    1.2731457252199961E+01
             8.3227525761999104E+00    5.9051536094999664E+00    1.4080497642099900E+01
             5.9344285048999739E+00    5.8981604864999664E+00    1.4101749969599924E+01
             7.1039653576999493E+00    5.8899410688999421E+00    1.4828703219099880E+01
             7.2416021046999504E+00    5.8657702091999857E+00    1.6106466757299899E+01
             6.3118250322999438E+00    5.8547577070999699E+00    1.6539601306199895E+01
             9.1743570612999452E+00    5.8876302391999191E+00    1.4641017735299910E+01
             7.3119999999999541E+00    5.9339999999999646E+00    2.1042999999999921E+01
             5.8129999999999828E+00    7.4339999999999611E+00    2.2991999999999841E+01
             8.8129999999999544E+00    4.4339999999999700E+00    2.2991999999999841E+01
             5.8129999999999828E+00    4.4329999999999856E+00    2.2991999999999841E+01
             8.8129999999999544E+00    7.4339999999999611E+00    2.2991999999999841E+01
             1.4779999999999878E+00    1.4779999999999878E+00    2.5081999999999891E+01
             1.4779999999999878E+00    4.4329999999999856E+00    2.5081999999999891E+01
             1.4779999999999878E+00    7.3889999999999390E+00    2.5081999999999891E+01
             4.4339999999999700E+00    1.4779999999999878E+00    2.5081999999999891E+01
             4.4339999999999700E+00    4.4329999999999856E+00    2.5081999999999891E+01
             4.4339999999999700E+00    7.3889999999999390E+00    2.5081999999999891E+01
             7.1919999999999291E+00    1.4779999999999878E+00    2.5081999999999891E+01
             7.1919999999999291E+00    4.4329999999999856E+00    2.5081999999999891E+01
             7.1919999999999291E+00    7.3889999999999390E+00    2.5081999999999891E+01
             1.0147999999999927E+01    1.4779999999999878E+00    2.5081999999999891E+01
             1.0147999999999927E+01    4.4329999999999856E+00    2.5081999999999891E+01
             1.0147999999999927E+01    7.3889999999999390E+00    2.5081999999999891E+01
             1.3103999999999912E+01    1.4779999999999878E+00    2.5081999999999891E+01
             1.3103999999999912E+01    4.4329999999999856E+00    2.5081999999999891E+01
             1.3103999999999912E+01    7.3889999999999390E+00    2.5081999999999891E+01
             0.0000000000000000E+00    0.0000000000000000E+00    2.7171999999999819E+01
             0.0000000000000000E+00    2.9549999999999850E+00    2.7171999999999819E+01
             0.0000000000000000E+00    5.9109999999999605E+00    2.7171999999999819E+01
             2.9559999999999755E+00    0.0000000000000000E+00    2.7171999999999819E+01
             2.9559999999999755E+00    2.9549999999999850E+00    2.7171999999999819E+01
             2.9559999999999755E+00    5.9109999999999605E+00    2.7171999999999819E+01
             5.9119999999999511E+00    0.0000000000000000E+00    2.7171999999999819E+01
             5.9119999999999511E+00    2.9549999999999850E+00    2.7171999999999819E+01
             5.9119999999999511E+00    5.9109999999999605E+00    2.7171999999999819E+01
             8.6699999999999307E+00    0.0000000000000000E+00    2.7171999999999819E+01
             8.6699999999999307E+00    2.9549999999999850E+00    2.7171999999999819E+01
             8.6699999999999307E+00    5.9109999999999605E+00    2.7171999999999819E+01
             1.1625999999999966E+01    0.0000000000000000E+00    2.7171999999999819E+01
             1.1625999999999966E+01    2.9549999999999850E+00    2.7171999999999819E+01
             1.1625999999999966E+01    5.9109999999999605E+00    2.7171999999999819E+01
             1.4779999999999878E+00    1.4779999999999878E+00    2.9261999999999759E+01
             1.4779999999999878E+00    4.4329999999999856E+00    2.9261999999999759E+01
             1.4779999999999878E+00    7.3889999999999390E+00    2.9261999999999759E+01
             4.4339999999999700E+00    1.4779999999999878E+00    2.9261999999999759E+01
             4.4339999999999700E+00    4.4329999999999856E+00    2.9261999999999759E+01
             4.4339999999999700E+00    7.3889999999999390E+00    2.9261999999999759E+01
             7.1919999999999291E+00    1.4779999999999878E+00    2.9261999999999759E+01
             7.1919999999999291E+00    4.4329999999999856E+00    2.9261999999999759E+01
             7.1919999999999291E+00    7.3889999999999390E+00    2.9261999999999759E+01
             1.0147999999999927E+01    1.4779999999999878E+00    2.9261999999999759E+01
             1.0147999999999927E+01    4.4329999999999856E+00    2.9261999999999759E+01
             1.0147999999999927E+01    7.3889999999999390E+00    2.9261999999999759E+01
             1.3103999999999912E+01    1.4779999999999878E+00    2.9261999999999759E+01
             1.3103999999999912E+01    4.4329999999999856E+00    2.9261999999999759E+01
             1.3103999999999912E+01    7.3889999999999390E+00    2.9261999999999759E+01
             0.0000000000000000E+00    0.0000000000000000E+00    3.1351999999999734E+01
             0.0000000000000000E+00    2.9549999999999850E+00    3.1351999999999734E+01
             0.0000000000000000E+00    5.9109999999999605E+00    3.1351999999999734E+01
             2.9559999999999755E+00    0.0000000000000000E+00    3.1351999999999734E+01
             2.9559999999999755E+00    2.9549999999999850E+00    3.1351999999999734E+01
             2.9559999999999755E+00    5.9109999999999605E+00    3.1351999999999734E+01
             5.9119999999999511E+00    0.0000000000000000E+00    3.1351999999999734E+01
             5.9119999999999511E+00    2.9549999999999850E+00    3.1351999999999734E+01
             5.9119999999999511E+00    5.9109999999999605E+00    3.1351999999999734E+01
             8.6699999999999307E+00    0.0000000000000000E+00    3.1351999999999734E+01
             8.6699999999999307E+00    2.9549999999999850E+00    3.1351999999999734E+01
             8.6699999999999307E+00    5.9109999999999605E+00    3.1351999999999734E+01
             1.1625999999999966E+01    0.0000000000000000E+00    3.1351999999999734E+01
             1.1625999999999966E+01    2.9549999999999850E+00    3.1351999999999734E+01
             1.1625999999999966E+01    5.9109999999999605E+00    3.1351999999999734E+01
             1.4779999999999878E+00    1.4779999999999878E+00    3.3441999999999744E+01
             1.4779999999999878E+00    4.4329999999999856E+00    3.3441999999999744E+01
             1.4779999999999878E+00    7.3889999999999390E+00    3.3441999999999744E+01
             4.4339999999999700E+00    1.4779999999999878E+00    3.3441999999999744E+01
             4.4339999999999700E+00    4.4329999999999856E+00    3.3441999999999744E+01
             4.4339999999999700E+00    7.3889999999999390E+00    3.3441999999999744E+01
             7.1919999999999291E+00    1.4779999999999878E+00    3.3441999999999744E+01
             7.1919999999999291E+00    4.4329999999999856E+00    3.3441999999999744E+01
             7.1919999999999291E+00    7.3889999999999390E+00    3.3441999999999744E+01
             1.0147999999999927E+01    1.4779999999999878E+00    3.3441999999999744E+01
             1.0147999999999927E+01    4.4329999999999856E+00    3.3441999999999744E+01
             1.0147999999999927E+01    7.3889999999999390E+00    3.3441999999999744E+01
             1.3103999999999912E+01    1.4779999999999878E+00    3.3441999999999744E+01
             1.3103999999999912E+01    4.4329999999999856E+00    3.3441999999999744E+01
             1.3103999999999912E+01    7.3889999999999390E+00    3.3441999999999744E+01
       &END COORD
       &VELOCITY
             0.0000000000000000E+00    0.0000000000000000E+00    0.0000000000000000E+00
             0.0000000000000000E+00    0.0000000000000000E+00    0.0000000000000000E+00
             0.0000000000000000E+00    0.0000000000000000E+00    0.0000000000000000E+00
             0.0000000000000000E+00    0.0000000000000000E+00    0.0000000000000000E+00
             0.0000000000000000E+00    0.0000000000000000E+00    0.0000000000000000E+00
             0.0000000000000000E+00    0.0000000000000000E+00    0.0000000000000000E+00
             0.0000000000000000E+00    0.0000000000000000E+00    0.0000000000000000E+00
             0.0000000000000000E+00    0.0000000000000000E+00    0.0000000000000000E+00
             0.0000000000000000E+00    0.0000000000000000E+00    0.0000000000000000E+00
             0.0000000000000000E+00    0.0000000000000000E+00    0.0000000000000000E+00
             0.0000000000000000E+00    0.0000000000000000E+00    0.0000000000000000E+00
             0.0000000000000000E+00    0.0000000000000000E+00    0.0000000000000000E+00
             0.0000000000000000E+00    0.0000000000000000E+00    0.0000000000000000E+00
             0.0000000000000000E+00    0.0000000000000000E+00    0.0000000000000000E+00
             0.0000000000000000E+00    0.0000000000000000E+00    0.0000000000000000E+00
             0.0000000000000000E+00    0.0000000000000000E+00    0.0000000000000000E+00
             0.0000000000000000E+00    0.0000000000000000E+00    0.0000000000000000E+00
             0.0000000000000000E+00    0.0000000000000000E+00    0.0000000000000000E+00
             0.0000000000000000E+00    0.0000000000000000E+00    0.0000000000000000E+00
             0.0000000000000000E+00    0.0000000000000000E+00    0.0000000000000000E+00
             0.0000000000000000E+00    0.0000000000000000E+00    0.0000000000000000E+00
             0.0000000000000000E+00    0.0000000000000000E+00    0.0000000000000000E+00
             0.0000000000000000E+00    0.0000000000000000E+00    0.0000000000000000E+00
             0.0000000000000000E+00    0.0000000000000000E+00    0.0000000000000000E+00
             0.0000000000000000E+00    0.0000000000000000E+00    0.0000000000000000E+00
             0.0000000000000000E+00    0.0000000000000000E+00    0.0000000000000000E+00
             0.0000000000000000E+00    0.0000000000000000E+00    0.0000000000000000E+00
             0.0000000000000000E+00    0.0000000000000000E+00    0.0000000000000000E+00
             0.0000000000000000E+00    0.0000000000000000E+00    0.0000000000000000E+00
             0.0000000000000000E+00    0.0000000000000000E+00    0.0000000000000000E+00
             0.0000000000000000E+00    0.0000000000000000E+00    0.0000000000000000E+00
             0.0000000000000000E+00    0.0000000000000000E+00    0.0000000000000000E+00
             0.0000000000000000E+00    0.0000000000000000E+00    0.0000000000000000E+00
             0.0000000000000000E+00    0.0000000000000000E+00    0.0000000000000000E+00
             0.0000000000000000E+00    0.0000000000000000E+00    0.0000000000000000E+00
             0.0000000000000000E+00    0.0000000000000000E+00    0.0000000000000000E+00
             0.0000000000000000E+00    0.0000000000000000E+00    0.0000000000000000E+00
             0.0000000000000000E+00    0.0000000000000000E+00    0.0000000000000000E+00
             0.0000000000000000E+00    0.0000000000000000E+00    0.0000000000000000E+00
             0.0000000000000000E+00    0.0000000000000000E+00    0.0000000000000000E+00
             0.0000000000000000E+00    0.0000000000000000E+00    0.0000000000000000E+00
             0.0000000000000000E+00    0.0000000000000000E+00    0.0000000000000000E+00
             0.0000000000000000E+00    0.0000000000000000E+00    0.0000000000000000E+00
             0.0000000000000000E+00    0.0000000000000000E+00    0.0000000000000000E+00
             0.0000000000000000E+00    0.0000000000000000E+00    0.0000000000000000E+00
             0.0000000000000000E+00    0.0000000000000000E+00    0.0000000000000000E+00
             0.0000000000000000E+00    0.0000000000000000E+00    0.0000000000000000E+00
             0.0000000000000000E+00    0.0000000000000000E+00    0.0000000000000000E+00
             0.0000000000000000E+00    0.0000000000000000E+00    0.0000000000000000E+00
             0.0000000000000000E+00    0.0000000000000000E+00    0.0000000000000000E+00
             0.0000000000000000E+00    0.0000000000000000E+00    0.0000000000000000E+00
             0.0000000000000000E+00    0.0000000000000000E+00    0.0000000000000000E+00
             0.0000000000000000E+00    0.0000000000000000E+00    0.0000000000000000E+00
             0.0000000000000000E+00    0.0000000000000000E+00    0.0000000000000000E+00
             0.0000000000000000E+00    0.0000000000000000E+00    0.0000000000000000E+00
             0.0000000000000000E+00    0.0000000000000000E+00    0.0000000000000000E+00
             0.0000000000000000E+00    0.0000000000000000E+00    0.0000000000000000E+00
             0.0000000000000000E+00    0.0000000000000000E+00    0.0000000000000000E+00
             0.0000000000000000E+00    0.0000000000000000E+00    0.0000000000000000E+00
             0.0000000000000000E+00    0.0000000000000000E+00    0.0000000000000000E+00
             0.0000000000000000E+00    0.0000000000000000E+00    0.0000000000000000E+00
             0.0000000000000000E+00    0.0000000000000000E+00    0.0000000000000000E+00
             0.0000000000000000E+00    0.0000000000000000E+00    0.0000000000000000E+00
             0.0000000000000000E+00    0.0000000000000000E+00    0.0000000000000000E+00
             0.0000000000000000E+00    0.0000000000000000E+00    0.0000000000000000E+00
             0.0000000000000000E+00    0.0000000000000000E+00    0.0000000000000000E+00
             0.0000000000000000E+00    0.0000000000000000E+00    0.0000000000000000E+00
             0.0000000000000000E+00    0.0000000000000000E+00    0.0000000000000000E+00
             0.0000000000000000E+00    0.0000000000000000E+00    0.0000000000000000E+00
             0.0000000000000000E+00    0.0000000000000000E+00    0.0000000000000000E+00
             0.0000000000000000E+00    0.0000000000000000E+00    0.0000000000000000E+00
             0.0000000000000000E+00    0.0000000000000000E+00    0.0000000000000000E+00
             0.0000000000000000E+00    0.0000000000000000E+00    0.0000000000000000E+00
             0.0000000000000000E+00    0.0000000000000000E+00    0.0000000000000000E+00
             0.0000000000000000E+00    0.0000000000000000E+00    0.0000000000000000E+00
             0.0000000000000000E+00    0.0000000000000000E+00    0.0000000000000000E+00
             0.0000000000000000E+00    0.0000000000000000E+00    0.0000000000000000E+00
             0.0000000000000000E+00    0.0000000000000000E+00    0.0000000000000000E+00
             0.0000000000000000E+00    0.0000000000000000E+00    0.0000000000000000E+00
             0.0000000000000000E+00    0.0000000000000000E+00    0.0000000000000000E+00
             0.0000000000000000E+00    0.0000000000000000E+00    0.0000000000000000E+00
             0.0000000000000000E+00    0.0000000000000000E+00    0.0000000000000000E+00
             0.0000000000000000E+00    0.0000000000000000E+00    0.0000000000000000E+00
             0.0000000000000000E+00    0.0000000000000000E+00    0.0000000000000000E+00
             0.0000000000000000E+00    0.0000000000000000E+00    0.0000000000000000E+00
             0.0000000000000000E+00    0.0000000000000000E+00    0.0000000000000000E+00
             0.0000000000000000E+00    0.0000000000000000E+00    0.0000000000000000E+00
             0.0000000000000000E+00    0.0000000000000000E+00    0.0000000000000000E+00
             0.0000000000000000E+00    0.0000000000000000E+00    0.0000000000000000E+00
             0.0000000000000000E+00    0.0000000000000000E+00    0.0000000000000000E+00
             0.0000000000000000E+00    0.0000000000000000E+00    0.0000000000000000E+00
             0.0000000000000000E+00    0.0000000000000000E+00    0.0000000000000000E+00
             0.0000000000000000E+00    0.0000000000000000E+00    0.0000000000000000E+00
             0.0000000000000000E+00    0.0000000000000000E+00    0.0000000000000000E+00
             0.0000000000000000E+00    0.0000000000000000E+00    0.0000000000000000E+00
             0.0000000000000000E+00    0.0000000000000000E+00    0.0000000000000000E+00
             0.0000000000000000E+00    0.0000000000000000E+00    0.0000000000000000E+00
             0.0000000000000000E+00    0.0000000000000000E+00    0.0000000000000000E+00
             0.0000000000000000E+00    0.0000000000000000E+00    0.0000000000000000E+00
             0.0000000000000000E+00    0.0000000000000000E+00    0.0000000000000000E+00
             0.0000000000000000E+00    0.0000000000000000E+00    0.0000000000000000E+00
             0.0000000000000000E+00    0.0000000000000000E+00    0.0000000000000000E+00
             0.0000000000000000E+00    0.0000000000000000E+00    0.0000000000000000E+00
             0.0000000000000000E+00    0.0000000000000000E+00    0.0000000000000000E+00
             0.0000000000000000E+00    0.0000000000000000E+00    0.0000000000000000E+00
             0.0000000000000000E+00    0.0000000000000000E+00    0.0000000000000000E+00
             0.0000000000000000E+00    0.0000000000000000E+00    0.0000000000000000E+00
             0.0000000000000000E+00    0.0000000000000000E+00    0.0000000000000000E+00
             0.0000000000000000E+00    0.0000000000000000E+00    0.0000000000000000E+00
             0.0000000000000000E+00    0.0000000000000000E+00    0.0000000000000000E+00
             0.0000000000000000E+00    0.0000000000000000E+00    0.0000000000000000E+00
             0.0000000000000000E+00    0.0000000000000000E+00    0.0000000000000000E+00
             0.0000000000000000E+00    0.0000000000000000E+00    0.0000000000000000E+00
             0.0000000000000000E+00    0.0000000000000000E+00    0.0000000000000000E+00
             0.0000000000000000E+00    0.0000000000000000E+00    0.0000000000000000E+00
             0.0000000000000000E+00    0.0000000000000000E+00    0.0000000000000000E+00
             0.0000000000000000E+00    0.0000000000000000E+00    0.0000000000000000E+00
             0.0000000000000000E+00    0.0000000000000000E+00    0.0000000000000000E+00
             0.0000000000000000E+00    0.0000000000000000E+00    0.0000000000000000E+00
             0.0000000000000000E+00    0.0000000000000000E+00    0.0000000000000000E+00
             0.0000000000000000E+00    0.0000000000000000E+00    0.0000000000000000E+00
             0.0000000000000000E+00    0.0000000000000000E+00    0.0000000000000000E+00
             0.0000000000000000E+00    0.0000000000000000E+00    0.0000000000000000E+00
             0.0000000000000000E+00    0.0000000000000000E+00    0.0000000000000000E+00
             0.0000000000000000E+00    0.0000000000000000E+00    0.0000000000000000E+00
             0.0000000000000000E+00    0.0000000000000000E+00    0.0000000000000000E+00
             0.0000000000000000E+00    0.0000000000000000E+00    0.0000000000000000E+00
             0.0000000000000000E+00    0.0000000000000000E+00    0.0000000000000000E+00
             0.0000000000000000E+00    0.0000000000000000E+00    0.0000000000000000E+00
             0.0000000000000000E+00    0.0000000000000000E+00    0.0000000000000000E+00
             0.0000000000000000E+00    0.0000000000000000E+00    0.0000000000000000E+00
             0.0000000000000000E+00    0.0000000000000000E+00    0.0000000000000000E+00
             0.0000000000000000E+00    0.0000000000000000E+00    0.0000000000000000E+00
             0.0000000000000000E+00    0.0000000000000000E+00    0.0000000000000000E+00
             0.0000000000000000E+00    0.0000000000000000E+00    0.0000000000000000E+00
             0.0000000000000000E+00    0.0000000000000000E+00    0.0000000000000000E+00
             0.0000000000000000E+00    0.0000000000000000E+00    0.0000000000000000E+00
             0.0000000000000000E+00    0.0000000000000000E+00    0.0000000000000000E+00
             0.0000000000000000E+00    0.0000000000000000E+00    0.0000000000000000E+00
             0.0000000000000000E+00    0.0000000000000000E+00    0.0000000000000000E+00
             0.0000000000000000E+00    0.0000000000000000E+00    0.0000000000000000E+00
             0.0000000000000000E+00    0.0000000000000000E+00    0.0000000000000000E+00
             0.0000000000000000E+00    0.0000000000000000E+00    0.0000000000000000E+00
             0.0000000000000000E+00    0.0000000000000000E+00    0.0000000000000000E+00
             0.0000000000000000E+00    0.0000000000000000E+00    0.0000000000000000E+00