 # Version information for this restart file 
 # current date 2024-01-13 03:36:10.250
 # current working dir /gpfs/home/cahart/transport/melamine/au_from-h2/ci-neb/ts2-fixed/dft_leads-sz_tip-dzvp_surf-dzvp_kpoints-2-4-20_replicas-5
 # Program compiled at                              Thu 21 Sep 19:20:17 BST 2023
 # Program compiled on                                           hx1-c12-login-1
 # Program compiled for                                                    local
 # Source code revision number                                       git:5518aa6
 &GLOBAL
   EXTENDED_FFT_LENGTHS  T
   PRINT_LEVEL  MEDIUM
   PROJECT_NAME 2_dft_wfn-r-0
   OUTPUT_FILE_NAME 2_dft_wfn-r-0.out
   RUN_TYPE  BAND
 &END GLOBAL
 &MOTION
   &BAND
     NPROC_REP  64
     BAND_TYPE  CI-NEB
     NUMBER_OF_REPLICA  5
     K_SPRING     5.0000000000000003E-02
     &CI_NEB
       NSTEPS_IT  5
     &END CI_NEB
     &OPTIMIZE_BAND
       OPT_TYPE  DIIS
       &DIIS
         MAX_STEPS  1000
       &END DIIS
     &END OPTIMIZE_BAND
     &REPLICA
       &COORD
             0.0000000000000000E+00    0.0000000000000000E+00    0.0000000000000000E+00
             0.0000000000000000E+00    2.9549999999999788E+00    0.0000000000000000E+00
             0.0000000000000000E+00    5.9109999999999463E+00    0.0000000000000000E+00
             2.9559999999999711E+00    0.0000000000000000E+00    0.0000000000000000E+00
             2.9559999999999711E+00    2.9549999999999788E+00    0.0000000000000000E+00
             2.9559999999999711E+00    5.9109999999999463E+00    0.0000000000000000E+00
             5.9119999999999422E+00    0.0000000000000000E+00    0.0000000000000000E+00
             5.9119999999999422E+00    2.9549999999999788E+00    0.0000000000000000E+00
             5.9119999999999422E+00    5.9109999999999463E+00    0.0000000000000000E+00
             8.6699999999999253E+00    0.0000000000000000E+00    0.0000000000000000E+00
             8.6699999999999253E+00    2.9549999999999788E+00    0.0000000000000000E+00
             8.6699999999999253E+00    5.9109999999999463E+00    0.0000000000000000E+00
             1.1625999999999941E+01    0.0000000000000000E+00    0.0000000000000000E+00
             1.1625999999999941E+01    2.9549999999999788E+00    0.0000000000000000E+00
             1.1625999999999941E+01    5.9109999999999463E+00    0.0000000000000000E+00
             1.4779999999999855E+00    1.4779999999999855E+00    2.0899999999999777E+00
             1.4779999999999855E+00    4.4329999999999758E+00    2.0899999999999777E+00
             1.4779999999999855E+00    7.3889999999999283E+00    2.0899999999999777E+00
             4.4339999999999575E+00    1.4779999999999855E+00    2.0899999999999777E+00
             4.4339999999999575E+00    4.4329999999999758E+00    2.0899999999999777E+00
             4.4339999999999575E+00    7.3889999999999283E+00    2.0899999999999777E+00
             7.1919999999999131E+00    1.4779999999999855E+00    2.0899999999999777E+00
             7.1919999999999131E+00    4.4329999999999758E+00    2.0899999999999777E+00
             7.1919999999999131E+00    7.3889999999999283E+00    2.0899999999999777E+00
             1.0147999999999909E+01    1.4779999999999855E+00    2.0899999999999777E+00
             1.0147999999999909E+01    4.4329999999999758E+00    2.0899999999999777E+00
             1.0147999999999909E+01    7.3889999999999283E+00    2.0899999999999777E+00
             1.3103999999999907E+01    1.4779999999999855E+00    2.0899999999999777E+00
             1.3103999999999907E+01    4.4329999999999758E+00    2.0899999999999777E+00
             1.3103999999999907E+01    7.3889999999999283E+00    2.0899999999999777E+00
             0.0000000000000000E+00    0.0000000000000000E+00    4.1799999999999553E+00
             0.0000000000000000E+00    2.9549999999999788E+00    4.1799999999999553E+00
             0.0000000000000000E+00    5.9109999999999463E+00    4.1799999999999553E+00
             2.9559999999999711E+00    0.0000000000000000E+00    4.1799999999999553E+00
             2.9559999999999711E+00    2.9549999999999788E+00    4.1799999999999553E+00
             2.9559999999999711E+00    5.9109999999999463E+00    4.1799999999999553E+00
             5.9119999999999422E+00    0.0000000000000000E+00    4.1799999999999553E+00
             5.9119999999999422E+00    2.9549999999999788E+00    4.1799999999999553E+00
             5.9119999999999422E+00    5.9109999999999463E+00    4.1799999999999553E+00
             8.6699999999999253E+00    0.0000000000000000E+00    4.1799999999999553E+00
             8.6699999999999253E+00    2.9549999999999788E+00    4.1799999999999553E+00
             8.6699999999999253E+00    5.9109999999999463E+00    4.1799999999999553E+00
             1.1625999999999941E+01    0.0000000000000000E+00    4.1799999999999553E+00
             1.1625999999999941E+01    2.9549999999999788E+00    4.1799999999999553E+00
             1.1625999999999941E+01    5.9109999999999463E+00    4.1799999999999553E+00
             1.4779999999999855E+00    1.4779999999999855E+00    6.2699999999999330E+00
             1.4779999999999855E+00    4.4329999999999758E+00    6.2699999999999330E+00
             1.4779999999999855E+00    7.3889999999999283E+00    6.2699999999999330E+00
             4.4339999999999575E+00    1.4779999999999855E+00    6.2699999999999330E+00
             4.4339999999999575E+00    4.4329999999999758E+00    6.2699999999999330E+00
             4.4339999999999575E+00    7.3889999999999283E+00    6.2699999999999330E+00
             7.1919999999999131E+00    1.4779999999999855E+00    6.2699999999999330E+00
             7.1919999999999131E+00    4.4329999999999758E+00    6.2699999999999330E+00
             7.1919999999999131E+00    7.3889999999999283E+00    6.2699999999999330E+00
             1.0147999999999909E+01    1.4779999999999855E+00    6.2699999999999330E+00
             1.0147999999999909E+01    4.4329999999999758E+00    6.2699999999999330E+00
             1.0147999999999909E+01    7.3889999999999283E+00    6.2699999999999330E+00
             1.3103999999999907E+01    1.4779999999999855E+00    6.2699999999999330E+00
             1.3103999999999907E+01    4.4329999999999758E+00    6.2699999999999330E+00
             1.3103999999999907E+01    7.3889999999999283E+00    6.2699999999999330E+00
             0.0000000000000000E+00    0.0000000000000000E+00    8.3599999999999106E+00
             0.0000000000000000E+00    2.9549999999999788E+00    8.3599999999999106E+00
             0.0000000000000000E+00    5.9109999999999463E+00    8.3599999999999106E+00
             2.9559999999999711E+00    0.0000000000000000E+00    8.3599999999999106E+00
             2.9559999999999711E+00    2.9549999999999788E+00    8.3599999999999106E+00
             2.9559999999999711E+00    5.9109999999999463E+00    8.3599999999999106E+00
             5.9119999999999422E+00    0.0000000000000000E+00    8.3599999999999106E+00
             5.9119999999999422E+00    2.9549999999999788E+00    8.3599999999999106E+00
             5.9119999999999422E+00    5.9109999999999463E+00    8.3599999999999106E+00
             8.6699999999999253E+00    0.0000000000000000E+00    8.3599999999999106E+00
             8.6699999999999253E+00    2.9549999999999788E+00    8.3599999999999106E+00
             8.6699999999999253E+00    5.9109999999999463E+00    8.3599999999999106E+00
             1.1625999999999941E+01    0.0000000000000000E+00    8.3599999999999106E+00
             1.1625999999999941E+01    2.9549999999999788E+00    8.3599999999999106E+00
             1.1625999999999941E+01    5.9109999999999463E+00    8.3599999999999106E+00
             1.4779999999999855E+00    1.4779999999999855E+00    1.0449999999999918E+01
             1.4779999999999855E+00    4.4329999999999758E+00    1.0449999999999918E+01
             1.4779999999999855E+00    7.3889999999999283E+00    1.0449999999999918E+01
             4.4339999999999575E+00    1.4779999999999855E+00    1.0449999999999918E+01
             4.4339999999999575E+00    4.4329999999999758E+00    1.0449999999999918E+01
             4.4339999999999575E+00    7.3889999999999283E+00    1.0449999999999918E+01
             7.1919999999999131E+00    1.4779999999999855E+00    1.0449999999999918E+01
             7.1919999999999131E+00    4.4329999999999758E+00    1.0449999999999918E+01
             7.1919999999999131E+00    7.3889999999999283E+00    1.0449999999999918E+01
             1.0147999999999909E+01    1.4779999999999855E+00    1.0449999999999918E+01
             1.0147999999999909E+01    4.4329999999999758E+00    1.0449999999999918E+01
             1.0147999999999909E+01    7.3889999999999283E+00    1.0449999999999918E+01
             1.3103999999999907E+01    1.4779999999999855E+00    1.0449999999999918E+01
             1.3103999999999907E+01    4.4329999999999758E+00    1.0449999999999918E+01
             1.3103999999999907E+01    7.3889999999999283E+00    1.0449999999999918E+01
             4.8553999999999657E+00    5.9118999999999149E+00    1.2031799999999878E+01
             9.5279999999999045E+00    5.9136999999999480E+00    1.2033999999999894E+01
             7.1919999999999131E+00    5.9339999999999540E+00    1.2039999999999893E+01
             4.0673339927999761E+00    5.9059993219999507E+00    1.2687741368899889E+01
             1.0318905404799910E+01    5.9087793825999526E+00    1.2685747073199918E+01
             5.9989554221999377E+00    5.9152564165999619E+00    1.2792642411199866E+01
             8.3738707292999432E+00    5.9179777706999461E+00    1.2731457252199917E+01
             8.3227525761998997E+00    5.9051536094999548E+00    1.4080497642099871E+01
             5.9344285048999579E+00    5.8981604864999575E+00    1.4101749969599876E+01
             7.1039653576999369E+00    5.8899410688999279E+00    1.4828703219099857E+01
             7.2416021046999433E+00    5.8657702091999768E+00    1.6106466757299863E+01
             6.3118250322999412E+00    5.8547577070999601E+00    1.6539601306199849E+01
             9.1743570612999275E+00    5.8876302391999094E+00    1.4641017735299885E+01
             7.3119999999999399E+00    5.9339999999999540E+00    2.1042999999999854E+01
             5.8129999999999704E+00    7.4339999999999495E+00    2.2991999999999795E+01
             8.8129999999999509E+00    4.4339999999999575E+00    2.2991999999999795E+01
             5.8129999999999704E+00    4.4329999999999758E+00    2.2991999999999795E+01
             8.8129999999999509E+00    7.4339999999999495E+00    2.2991999999999795E+01
             1.4779999999999855E+00    1.4779999999999855E+00    2.5081999999999883E+01
             1.4779999999999855E+00    4.4329999999999758E+00    2.5081999999999883E+01
             1.4779999999999855E+00    7.3889999999999283E+00    2.5081999999999883E+01
             4.4339999999999575E+00    1.4779999999999855E+00    2.5081999999999883E+01
             4.4339999999999575E+00    4.4329999999999758E+00    2.5081999999999883E+01
             4.4339999999999575E+00    7.3889999999999283E+00    2.5081999999999883E+01
             7.1919999999999131E+00    1.4779999999999855E+00    2.5081999999999883E+01
             7.1919999999999131E+00    4.4329999999999758E+00    2.5081999999999883E+01
             7.1919999999999131E+00    7.3889999999999283E+00    2.5081999999999883E+01
             1.0147999999999909E+01    1.4779999999999855E+00    2.5081999999999883E+01
             1.0147999999999909E+01    4.4329999999999758E+00    2.5081999999999883E+01
             1.0147999999999909E+01    7.3889999999999283E+00    2.5081999999999883E+01
             1.3103999999999907E+01    1.4779999999999855E+00    2.5081999999999883E+01
             1.3103999999999907E+01    4.4329999999999758E+00    2.5081999999999883E+01
             1.3103999999999907E+01    7.3889999999999283E+00    2.5081999999999883E+01
             0.0000000000000000E+00    0.0000000000000000E+00    2.7171999999999738E+01
             0.0000000000000000E+00    2.9549999999999788E+00    2.7171999999999738E+01
             0.0000000000000000E+00    5.9109999999999463E+00    2.7171999999999738E+01
             2.9559999999999711E+00    0.0000000000000000E+00    2.7171999999999738E+01
             2.9559999999999711E+00    2.9549999999999788E+00    2.7171999999999738E+01
             2.9559999999999711E+00    5.9109999999999463E+00    2.7171999999999738E+01
             5.9119999999999422E+00    0.0000000000000000E+00    2.7171999999999738E+01
             5.9119999999999422E+00    2.9549999999999788E+00    2.7171999999999738E+01
             5.9119999999999422E+00    5.9109999999999463E+00    2.7171999999999738E+01
             8.6699999999999253E+00    0.0000000000000000E+00    2.7171999999999738E+01
             8.6699999999999253E+00    2.9549999999999788E+00    2.7171999999999738E+01
             8.6699999999999253E+00    5.9109999999999463E+00    2.7171999999999738E+01
             1.1625999999999941E+01    0.0000000000000000E+00    2.7171999999999738E+01
             1.1625999999999941E+01    2.9549999999999788E+00    2.7171999999999738E+01
             1.1625999999999941E+01    5.9109999999999463E+00    2.7171999999999738E+01
             1.4779999999999855E+00    1.4779999999999855E+00    2.9261999999999695E+01
             1.4779999999999855E+00    4.4329999999999758E+00    2.9261999999999695E+01
             1.4779999999999855E+00    7.3889999999999283E+00    2.9261999999999695E+01
             4.4339999999999575E+00    1.4779999999999855E+00    2.9261999999999695E+01
             4.4339999999999575E+00    4.4329999999999758E+00    2.9261999999999695E+01
             4.4339999999999575E+00    7.3889999999999283E+00    2.9261999999999695E+01
             7.1919999999999131E+00    1.4779999999999855E+00    2.9261999999999695E+01
             7.1919999999999131E+00    4.4329999999999758E+00    2.9261999999999695E+01
             7.1919999999999131E+00    7.3889999999999283E+00    2.9261999999999695E+01
             1.0147999999999909E+01    1.4779999999999855E+00    2.9261999999999695E+01
             1.0147999999999909E+01    4.4329999999999758E+00    2.9261999999999695E+01
             1.0147999999999909E+01    7.3889999999999283E+00    2.9261999999999695E+01
             1.3103999999999907E+01    1.4779999999999855E+00    2.9261999999999695E+01
             1.3103999999999907E+01    4.4329999999999758E+00    2.9261999999999695E+01
             1.3103999999999907E+01    7.3889999999999283E+00    2.9261999999999695E+01
             0.0000000000000000E+00    0.0000000000000000E+00    3.1351999999999649E+01
             0.0000000000000000E+00    2.9549999999999788E+00    3.1351999999999649E+01
             0.0000000000000000E+00    5.9109999999999463E+00    3.1351999999999649E+01
             2.9559999999999711E+00    0.0000000000000000E+00    3.1351999999999649E+01
             2.9559999999999711E+00    2.9549999999999788E+00    3.1351999999999649E+01
             2.9559999999999711E+00    5.9109999999999463E+00    3.1351999999999649E+01
             5.9119999999999422E+00    0.0000000000000000E+00    3.1351999999999649E+01
             5.9119999999999422E+00    2.9549999999999788E+00    3.1351999999999649E+01
             5.9119999999999422E+00    5.9109999999999463E+00    3.1351999999999649E+01
             8.6699999999999253E+00    0.0000000000000000E+00    3.1351999999999649E+01
             8.6699999999999253E+00    2.9549999999999788E+00    3.1351999999999649E+01
             8.6699999999999253E+00    5.9109999999999463E+00    3.1351999999999649E+01
             1.1625999999999941E+01    0.0000000000000000E+00    3.1351999999999649E+01
             1.1625999999999941E+01    2.9549999999999788E+00    3.1351999999999649E+01
             1.1625999999999941E+01    5.9109999999999463E+00    3.1351999999999649E+01
             1.4779999999999855E+00    1.4779999999999855E+00    3.3441999999999702E+01
             1.4779999999999855E+00    4.4329999999999758E+00    3.3441999999999702E+01
             1.4779999999999855E+00    7.3889999999999283E+00    3.3441999999999702E+01
             4.4339999999999575E+00    1.4779999999999855E+00    3.3441999999999702E+01
             4.4339999999999575E+00    4.4329999999999758E+00    3.3441999999999702E+01
             4.4339999999999575E+00    7.3889999999999283E+00    3.3441999999999702E+01
             7.1919999999999131E+00    1.4779999999999855E+00    3.3441999999999702E+01
             7.1919999999999131E+00    4.4329999999999758E+00    3.3441999999999702E+01
             7.1919999999999131E+00    7.3889999999999283E+00    3.3441999999999702E+01
             1.0147999999999909E+01    1.4779999999999855E+00    3.3441999999999702E+01
             1.0147999999999909E+01    4.4329999999999758E+00    3.3441999999999702E+01
             1.0147999999999909E+01    7.3889999999999283E+00    3.3441999999999702E+01
             1.3103999999999907E+01    1.4779999999999855E+00    3.3441999999999702E+01
             1.3103999999999907E+01    4.4329999999999758E+00    3.3441999999999702E+01
             1.3103999999999907E+01    7.3889999999999283E+00    3.3441999999999702E+01
       &END COORD
       &VELOCITY
             0.0000000000000000E+00    0.0000000000000000E+00    0.0000000000000000E+00
             0.0000000000000000E+00    0.0000000000000000E+00    0.0000000000000000E+00
             0.0000000000000000E+00    0.0000000000000000E+00    0.0000000000000000E+00
             0.0000000000000000E+00    0.0000000000000000E+00    0.0000000000000000E+00
             0.0000000000000000E+00    0.0000000000000000E+00    0.0000000000000000E+00
             0.0000000000000000E+00    0.0000000000000000E+00    0.0000000000000000E+00
             0.0000000000000000E+00    0.0000000000000000E+00    0.0000000000000000E+00
             0.0000000000000000E+00    0.0000000000000000E+00    0.0000000000000000E+00
             0.0000000000000000E+00    0.0000000000000000E+00    0.0000000000000000E+00
             0.0000000000000000E+00    0.0000000000000000E+00    0.0000000000000000E+00
             0.0000000000000000E+00    0.0000000000000000E+00    0.0000000000000000E+00
             0.0000000000000000E+00    0.0000000000000000E+00    0.0000000000000000E+00
             0.0000000000000000E+00    0.0000000000000000E+00    0.0000000000000000E+00
             0.0000000000000000E+00    0.0000000000000000E+00    0.0000000000000000E+00
             0.0000000000000000E+00    0.0000000000000000E+00    0.0000000000000000E+00
             0.0000000000000000E+00    0.0000000000000000E+00    0.0000000000000000E+00
             0.0000000000000000E+00    0.0000000000000000E+00    0.0000000000000000E+00
             0.0000000000000000E+00    0.0000000000000000E+00    0.0000000000000000E+00
             0.0000000000000000E+00    0.0000000000000000E+00    0.0000000000000000E+00
             0.0000000000000000E+00    0.0000000000000000E+00    0.0000000000000000E+00
             0.0000000000000000E+00    0.0000000000000000E+00    0.0000000000000000E+00
             0.0000000000000000E+00    0.0000000000000000E+00    0.0000000000000000E+00
             0.0000000000000000E+00    0.0000000000000000E+00    0.0000000000000000E+00
             0.0000000000000000E+00    0.0000000000000000E+00    0.0000000000000000E+00
             0.0000000000000000E+00    0.0000000000000000E+00    0.0000000000000000E+00
             0.0000000000000000E+00    0.0000000000000000E+00    0.0000000000000000E+00
             0.0000000000000000E+00    0.0000000000000000E+00    0.0000000000000000E+00
             0.0000000000000000E+00    0.0000000000000000E+00    0.0000000000000000E+00
             0.0000000000000000E+00    0.0000000000000000E+00    0.0000000000000000E+00
             0.0000000000000000E+00    0.0000000000000000E+00    0.0000000000000000E+00
             0.0000000000000000E+00    0.0000000000000000E+00    0.0000000000000000E+00
             0.0000000000000000E+00    0.0000000000000000E+00    0.0000000000000000E+00
             0.0000000000000000E+00    0.0000000000000000E+00    0.0000000000000000E+00
             0.0000000000000000E+00    0.0000000000000000E+00    0.0000000000000000E+00
             0.0000000000000000E+00    0.0000000000000000E+00    0.0000000000000000E+00
             0.0000000000000000E+00    0.0000000000000000E+00    0.0000000000000000E+00
             0.0000000000000000E+00    0.0000000000000000E+00    0.0000000000000000E+00
             0.0000000000000000E+00    0.0000000000000000E+00    0.0000000000000000E+00
             0.0000000000000000E+00    0.0000000000000000E+00    0.0000000000000000E+00
             0.0000000000000000E+00    0.0000000000000000E+00    0.0000000000000000E+00
             0.0000000000000000E+00    0.0000000000000000E+00    0.0000000000000000E+00
             0.0000000000000000E+00    0.0000000000000000E+00    0.0000000000000000E+00
             0.0000000000000000E+00    0.0000000000000000E+00    0.0000000000000000E+00
             0.0000000000000000E+00    0.0000000000000000E+00    0.0000000000000000E+00
             0.0000000000000000E+00    0.0000000000000000E+00    0.0000000000000000E+00
             0.0000000000000000E+00    0.0000000000000000E+00    0.0000000000000000E+00
             0.0000000000000000E+00    0.0000000000000000E+00    0.0000000000000000E+00
             0.0000000000000000E+00    0.0000000000000000E+00    0.0000000000000000E+00
             0.0000000000000000E+00    0.0000000000000000E+00    0.0000000000000000E+00
             0.0000000000000000E+00    0.0000000000000000E+00    0.0000000000000000E+00
             0.0000000000000000E+00    0.0000000000000000E+00    0.0000000000000000E+00
             0.0000000000000000E+00    0.0000000000000000E+00    0.0000000000000000E+00
             0.0000000000000000E+00    0.0000000000000000E+00    0.0000000000000000E+00
             0.0000000000000000E+00    0.0000000000000000E+00    0.0000000000000000E+00
             0.0000000000000000E+00    0.0000000000000000E+00    0.0000000000000000E+00
             0.0000000000000000E+00    0.0000000000000000E+00    0.0000000000000000E+00
             0.0000000000000000E+00    0.0000000000000000E+00    0.0000000000000000E+00
             0.0000000000000000E+00    0.0000000000000000E+00    0.0000000000000000E+00
             0.0000000000000000E+00    0.0000000000000000E+00    0.0000000000000000E+00
             0.0000000000000000E+00    0.0000000000000000E+00    0.0000000000000000E+00
             0.0000000000000000E+00    0.0000000000000000E+00    0.0000000000000000E+00
             0.0000000000000000E+00    0.0000000000000000E+00    0.0000000000000000E+00
             0.0000000000000000E+00    0.0000000000000000E+00    0.0000000000000000E+00
             0.0000000000000000E+00    0.0000000000000000E+00    0.0000000000000000E+00
             0.0000000000000000E+00    0.0000000000000000E+00    0.0000000000000000E+00
             0.0000000000000000E+00    0.0000000000000000E+00    0.0000000000000000E+00
             0.0000000000000000E+00    0.0000000000000000E+00    0.0000000000000000E+00
             0.0000000000000000E+00    0.0000000000000000E+00    0.0000000000000000E+00
             0.0000000000000000E+00    0.0000000000000000E+00    0.0000000000000000E+00
             0.0000000000000000E+00    0.0000000000000000E+00    0.0000000000000000E+00
             0.0000000000000000E+00    0.0000000000000000E+00    0.0000000000000000E+00
             0.0000000000000000E+00    0.0000000000000000E+00    0.0000000000000000E+00
             0.0000000000000000E+00    0.0000000000000000E+00    0.0000000000000000E+00
             0.0000000000000000E+00    0.0000000000000000E+00    0.0000000000000000E+00
             0.0000000000000000E+00    0.0000000000000000E+00    0.0000000000000000E+00
             0.0000000000000000E+00    0.0000000000000000E+00    0.0000000000000000E+00
             0.0000000000000000E+00    0.0000000000000000E+00    0.0000000000000000E+00
             0.0000000000000000E+00    0.0000000000000000E+00    0.0000000000000000E+00
             0.0000000000000000E+00    0.0000000000000000E+00    0.0000000000000000E+00
             0.0000000000000000E+00    0.0000000000000000E+00    0.0000000000000000E+00
             0.0000000000000000E+00    0.0000000000000000E+00    0.0000000000000000E+00
             0.0000000000000000E+00    0.0000000000000000E+00    0.0000000000000000E+00
             0.0000000000000000E+00    0.0000000000000000E+00    0.0000000000000000E+00
             0.0000000000000000E+00    0.0000000000000000E+00    0.0000000000000000E+00
             0.0000000000000000E+00    0.0000000000000000E+00    0.0000000000000000E+00
             0.0000000000000000E+00    0.0000000000000000E+00    0.0000000000000000E+00
             0.0000000000000000E+00    0.0000000000000000E+00    0.0000000000000000E+00
             0.0000000000000000E+00    0.0000000000000000E+00    0.0000000000000000E+00
             0.0000000000000000E+00    0.0000000000000000E+00    0.0000000000000000E+00
             0.0000000000000000E+00    0.0000000000000000E+00    0.0000000000000000E+00
             0.0000000000000000E+00    0.0000000000000000E+00    0.0000000000000000E+00
             0.0000000000000000E+00    0.0000000000000000E+00    0.0000000000000000E+00
             0.0000000000000000E+00    0.0000000000000000E+00    0.0000000000000000E+00
             0.0000000000000000E+00    0.0000000000000000E+00    0.0000000000000000E+00
             0.0000000000000000E+00    0.0000000000000000E+00    0.0000000000000000E+00
             0.0000000000000000E+00    0.0000000000000000E+00    0.0000000000000000E+00
             0.0000000000000000E+00    0.0000000000000000E+00    0.0000000000000000E+00
             0.0000000000000000E+00    0.0000000000000000E+00    0.0000000000000000E+00
             0.0000000000000000E+00    0.0000000000000000E+00    0.0000000000000000E+00
             0.0000000000000000E+00    0.0000000000000000E+00    0.0000000000000000E+00
             0.0000000000000000E+00    0.0000000000000000E+00    0.0000000000000000E+00
             0.0000000000000000E+00    0.0000000000000000E+00    0.0000000000000000E+00
             0.0000000000000000E+00    0.0000000000000000E+00    0.0000000000000000E+00
             0.0000000000000000E+00    0.0000000000000000E+00    0.0000000000000000E+00
             0.0000000000000000E+00    0.0000000000000000E+00    0.0000000000000000E+00
             0.0000000000000000E+00    0.0000000000000000E+00    0.0000000000000000E+00
             0.0000000000000000E+00    0.0000000000000000E+00    0.0000000000000000E+00
             0.0000000000000000E+00    0.0000000000000000E+00    0.0000000000000000E+00
             0.0000000000000000E+00    0.0000000000000000E+00    0.0000000000000000E+00
             0.0000000000000000E+00    0.0000000000000000E+00    0.0000000000000000E+00
             0.0000000000000000E+00    0.0000000000000000E+00    0.0000000000000000E+00
             0.0000000000000000E+00    0.0000000000000000E+00    0.0000000000000000E+00
             0.0000000000000000E+00    0.0000000000000000E+00    0.0000000000000000E+00
             0.0000000000000000E+00    0.0000000000000000E+00    0.0000000000000000E+00
             0.0000000000000000E+00    0.0000000000000000E+00    0.0000000000000000E+00
             0.0000000000000000E+00    0.0000000000000000E+00    0.0000000000000000E+00
             0.0000000000000000E+00    0.0000000000000000E+00    0.0000000000000000E+00
             0.0000000000000000E+00    0.0000000000000000E+00    0.0000000000000000E+00
             0.0000000000000000E+00    0.0000000000000000E+00    0.0000000000000000E+00
             0.0000000000000000E+00    0.0000000000000000E+00    0.0000000000000000E+00
             0.0000000000000000E+00    0.0000000000000000E+00    0.0000000000000000E+00
             0.0000000000000000E+00    0.0000000000000000E+00    0.0000000000000000E+00
             0.0000000000000000E+00    0.0000000000000000E+00    0.0000000000000000E+00
             0.0000000000000000E+00    0.0000000000000000E+00    0.0000000000000000E+00
             0.0000000000000000E+00    0.0000000000000000E+00    0.0000000000000000E+00
             0.0000000000000000E+00    0.0000000000000000E+00    0.0000000000000000E+00
             0.0000000000000000E+00    0.0000000000000000E+00    0.0000000000000000E+00
             0.0000000000000000E+00    0.0000000000000000E+00    0.0000000000000000E+00
             0.0000000000000000E+00    0.0000000000000000E+00    0.0000000000000000E+00
             0.0000000000000000E+00    0.0000000000000000E+00    0.0000000000000000E+00
             0.0000000000000000E+00    0.0000000000000000E+00    0.0000000000000000E+00
             0.0000000000000000E+00    0.0000000000000000E+00    0.0000000000000000E+00
             0.0000000000000000E+00    0.0000000000000000E+00    0.0000000000000000E+00
             0.0000000000000000E+00    0.0000000000000000E+00    0.0000000000000000E+00
             0.0000000000000000E+00    0.0000000000000000E+00    0.0000000000000000E+00
             0.0000000000000000E+00    0.0000000000000000E+00    0.0000000000000000E+00
             0.0000000000000000E+00    0.0000000000000000E+00    0.0000000000000000E+00
             0.0000000000000000E+00    0.0000000000000000E+00    0.0000000000000000E+00
             0.0000000000000000E+00    0.0000000000000000E+00    0.0000000000000000E+00
             0.0000000000000000E+00    0.0000000000000000E+00    0.0000000000000000E+00
             0.0000000000000000E+00    0.0000000000000000E+00    0.0000000000000000E+00
             0.0000000000000000E+00    0.0000000000000000E+00    0.0000000000000000E+00
             0.0000000000000000E+00    0.0000000000000000E+00    0.0000000000000000E+00
             0.0000000000000000E+00    0.0000000000000000E+00    0.0000000000000000E+00
             0.0000000000000000E+00    0.0000000000000000E+00    0.0000000000000000E+00