ATOMS
H             0.00000000      0.00000000     -0.00998254             0.70710517      0.00150719      0.00008720
H             0.00000000      0.00000000      0.73998166            -0.70710517     -0.00150719     -0.00008720
