ATOMS
H             0.00000000      0.00000000     -0.00998254             0.00000038     -0.46661735      0.53128923
H             0.00000000      0.00000000      0.73998166             0.00000038     -0.46661735      0.53128923
