ATOMS
H             0.00000000      0.00000000     -0.00998254             0.00000087     -0.53128923     -0.46661735
H             0.00000000      0.00000000      0.73998166             0.00000087     -0.53128923     -0.46661735
