 DBCSR| CPU Multiplication driver                                           XSMM
 DBCSR| Multrec recursion limit                                              512
 DBCSR| Multiplication stack size                                           1000
 DBCSR| Maximum elements for images                                    UNLIMITED
 DBCSR| Multiplicative factor virtual images                                   1
 DBCSR| Use multiplication densification                                       T
 DBCSR| Multiplication size stacks                                             3
 DBCSR| Use memory pool for CPU allocation                                     F
 DBCSR| Number of 3D layers                                               SINGLE
 DBCSR| Use MPI memory allocation                                              F
 DBCSR| Use RMA algorithm                                                      F
 DBCSR| Use Communication thread                                               T
 DBCSR| Communication thread load                                             87
 DBCSR| MPI: My node id                                                        0
 DBCSR| MPI: Number of nodes                                                 240
 DBCSR| OMP: Current number of threads                                         1
 DBCSR| OMP: Max number of threads                                             1
 DBCSR| Split modifier for TAS multiplication algorithm                  1.0E+00


  **** **** ******  **  PROGRAM STARTED AT               2023-03-14 03:05:14.616
 ***** ** ***  *** **   PROGRAM STARTED ON                 cn1002.scarf.rl.ac.uk
 **    ****   ******    PROGRAM STARTED BY                             scarf1157
 ***** **    ** ** **   PROGRAM PROCESS ID                                 34460
  **** **  *******  **  PROGRAM STARTED IN /work4/scd/scarf1157/work/testing/cp2
                                           k-smeagol/bdt/cp2k/hollow-site/transp
                                           ort-cp2k/5-4/geometry-ordered/3x3-4/s
                                           z/bulk_layers-4/transmission/exp/dzvp
                                           /sergey/kpoints_bulk-4-4-100_em-4-4-1
                                           _hlb-t-auto

 CP2K| version string:                 CP2K version 2022.1 (Development Version)
 CP2K| source code revision number:                                  git:e136ce5
 CP2K| cp2kflags: omp fftw3 libxc parallel mpi3 scalapack xsmm spglib           
 CP2K| is freely available from                            https://www.cp2k.org/
 CP2K| Program compiled at                          Thu  9 Mar 17:17:16 GMT 2023
 CP2K| Program compiled on                                 cn1108.scarf.rl.ac.uk
 CP2K| Program compiled for                                                local
 CP2K| Data directory path    /home/vol07/scarf1157/code/smeagol/cp2k-smeagol/sc
 CP2K| Input file name                                                  3_0V.inp

 GLOBAL| Force Environment number                                              1
 GLOBAL| Basis set file name                                        BASIS_MOLOPT
 GLOBAL| Potential file name                                      GTH_POTENTIALS
 GLOBAL| MM Potential file name                                     MM_POTENTIAL
 GLOBAL| Coordinate file name                                             em.xyz
 GLOBAL| Method name                                                        CP2K
 GLOBAL| Project name                                                         0V
 GLOBAL| Run type                                                         ENERGY
 GLOBAL| FFT library                                                       FFTW3
 GLOBAL| Diagonalization library                                       ScaLAPACK
 GLOBAL| Orthonormality check for eigenvectors                          DISABLED
 GLOBAL| Matrix multiplication library                                 ScaLAPACK
 GLOBAL| All-to-all communication in single precision                          F
 GLOBAL| FFTs using library dependent lengths                                  T
 GLOBAL| Grid backend                                                       AUTO
 GLOBAL| Global print level                                               MEDIUM
 GLOBAL| MPI I/O enabled                                                       T
 GLOBAL| Total number of message passing processes                           240
 GLOBAL| Number of threads for this process                                    1
 GLOBAL| This output is from process                                           0
 GLOBAL| Stack size for threads created by OpenMP (OMP_STACKSIZE)        default
 GLOBAL| CPU model name                         AMD EPYC 7502P 32-Core Processor
 GLOBAL| CPUID                                                              1002

 MEMORY| system memory details [Kb]
 MEMORY|                        rank 0           min           max       average
 MEMORY| MemTotal            263896980     263896980     263896984     263896983
 MEMORY| MemFree             187700540     114205480     196849188     152054296
 MEMORY| Buffers                  2564          2488          2872          2586
 MEMORY| Cached               65094044      51444320     134254148      98007359
 MEMORY| Slab                  1247128       1247120       1567076       1380187
 MEMORY| SReclaimable           699072        699072       1010492        837096
 MEMORY| MemLikelyFree       253496220     249026828     254260392     250901339


 *** Fundamental physical constants (SI units) ***

 *** Literature: B. J. Mohr and B. N. Taylor,
 ***             CODATA recommended values of the fundamental physical
 ***             constants: 2006, Web Version 5.1
 ***             http://physics.nist.gov/constants

 Speed of light in vacuum [m/s]                             2.99792458000000E+08
 Magnetic constant or permeability of vacuum [N/A**2]       1.25663706143592E-06
 Electric constant or permittivity of vacuum [F/m]          8.85418781762039E-12
 Planck constant (h) [J*s]                                  6.62606896000000E-34
 Planck constant (h-bar) [J*s]                              1.05457162825177E-34
 Elementary charge [C]                                      1.60217648700000E-19
 Electron mass [kg]                                         9.10938215000000E-31
 Electron g factor [ ]                                     -2.00231930436220E+00
 Proton mass [kg]                                           1.67262163700000E-27
 Fine-structure constant                                    7.29735253760000E-03
 Rydberg constant [1/m]                                     1.09737315685270E+07
 Avogadro constant [1/mol]                                  6.02214179000000E+23
 Boltzmann constant [J/K]                                   1.38065040000000E-23
 Atomic mass unit [kg]                                      1.66053878200000E-27
 Bohr radius [m]                                            5.29177208590000E-11

 *** Conversion factors ***

 [u] -> [a.u.]                                              1.82288848426455E+03
 [Angstrom] -> [Bohr] = [a.u.]                              1.88972613288564E+00
 [a.u.] = [Bohr] -> [Angstrom]                              5.29177208590000E-01
 [a.u.] -> [s]                                              2.41888432650478E-17
 [a.u.] -> [fs]                                             2.41888432650478E-02
 [a.u.] -> [J]                                              4.35974393937059E-18
 [a.u.] -> [N]                                              8.23872205491840E-08
 [a.u.] -> [K]                                              3.15774647902944E+05
 [a.u.] -> [kJ/mol]                                         2.62549961709828E+03
 [a.u.] -> [kcal/mol]                                       6.27509468713739E+02
 [a.u.] -> [Pa]                                             2.94210107994716E+13
 [a.u.] -> [bar]                                            2.94210107994716E+08
 [a.u.] -> [atm]                                            2.90362800883016E+08
 [a.u.] -> [eV]                                             2.72113838565563E+01
 [a.u.] -> [Hz]                                             6.57968392072181E+15
 [a.u.] -> [1/cm] (wave numbers)                            2.19474631370540E+05
 [a.u./Bohr**2] -> [1/cm]                                   5.14048714338585E+03
 

 CELL_TOP| Volume [angstrom^3]:                                      2357.480286
 CELL_TOP| Vector a [angstrom     8.336     0.000     0.000   |a| =     8.336000
 CELL_TOP| Vector b [angstrom     0.000     8.336     0.000   |b| =     8.336000
 CELL_TOP| Vector c [angstrom     0.000     0.000    33.926   |c| =    33.926000
 CELL_TOP| Angle (b,c), alpha [degree]:                                90.000000
 CELL_TOP| Angle (a,c), beta  [degree]:                                90.000000
 CELL_TOP| Angle (a,b), gamma [degree]:                                90.000000
 CELL_TOP| Numerically orthorhombic:                                         YES
 CELL_TOP| Periodicity                                                       XYZ

 GENERATE|  Preliminary Number of Bonds generated:                             0
 GENERATE|  Achieved consistency in connectivity generation.

 CELL| Volume [angstrom^3]:                                          2357.480286
 CELL| Vector a [angstrom]:       8.336     0.000     0.000   |a| =     8.336000
 CELL| Vector b [angstrom]:       0.000     8.336     0.000   |b| =     8.336000
 CELL| Vector c [angstrom]:       0.000     0.000    33.926   |c| =    33.926000
 CELL| Angle (b,c), alpha [degree]:                                    90.000000
 CELL| Angle (a,c), beta  [degree]:                                    90.000000
 CELL| Angle (a,b), gamma [degree]:                                    90.000000
 CELL| Numerically orthorhombic:                                             YES
 CELL| Periodicity                                                           XYZ

 CELL_REF| Volume [angstrom^3]:                                      2357.480286
 CELL_REF| Vector a [angstrom     8.336     0.000     0.000   |a| =     8.336000
 CELL_REF| Vector b [angstrom     0.000     8.336     0.000   |b| =     8.336000
 CELL_REF| Vector c [angstrom     0.000     0.000    33.926   |c| =    33.926000
 CELL_REF| Angle (b,c), alpha [degree]:                                90.000000
 CELL_REF| Angle (a,c), beta  [degree]:                                90.000000
 CELL_REF| Angle (a,b), gamma [degree]:                                90.000000
 CELL_REF| Numerically orthorhombic:                                         YES
 CELL_REF| Periodicity                                                       XYZ

 *******************************************************************************
                                    Kpoints
 *******************************************************************************
 BRILLOUIN| K-point scheme                                        Monkhorst-Pack
 BRILLOUIN| K-Point grid                                             4    4    1
 BRILLOUIN| Accuracy in Symmetry determination                      0.100000E-07
 BRILLOUIN| K-Point point group symmetrization                               OFF
 BRILLOUIN| Wavefunction type                                            COMPLEX
 BRILLOUIN| Use full k-point grid     
 BRILLOUIN| List of Kpoints [2 Pi/Bohr]                                       16
 BRILLOUIN| Number           Weight            X              Y              Z
 BRILLOUIN|     1           0.06250       -0.37500       -0.37500        0.00000
 BRILLOUIN|     2           0.06250       -0.37500       -0.12500        0.00000
 BRILLOUIN|     3           0.06250       -0.37500        0.12500        0.00000
 BRILLOUIN|     4           0.06250       -0.37500        0.37500        0.00000
 BRILLOUIN|     5           0.06250       -0.12500       -0.37500        0.00000
 BRILLOUIN|     6           0.06250       -0.12500       -0.12500        0.00000
 BRILLOUIN|     7           0.06250       -0.12500        0.12500        0.00000
 BRILLOUIN|     8           0.06250       -0.12500        0.37500        0.00000
 BRILLOUIN|     9           0.06250        0.12500       -0.37500        0.00000
 BRILLOUIN|    10           0.06250        0.12500       -0.12500        0.00000
 BRILLOUIN|    11           0.06250        0.12500        0.12500        0.00000
 BRILLOUIN|    12           0.06250        0.12500        0.37500        0.00000
 BRILLOUIN|    13           0.06250        0.37500       -0.37500        0.00000
 BRILLOUIN|    14           0.06250        0.37500       -0.12500        0.00000
 BRILLOUIN|    15           0.06250        0.37500        0.12500        0.00000
 BRILLOUIN|    16           0.06250        0.37500        0.37500        0.00000
 *******************************************************************************

 *******************************************************************************
 *******************************************************************************
 **                                                                           **
 **     #####                         ##              ##                      **
 **    ##   ##            ##          ##              ##                      **
 **   ##     ##                       ##            ######                    **
 **   ##     ##  ##   ##  ##   #####  ##  ##   ####   ##    #####    #####    **
 **   ##     ##  ##   ##  ##  ##      ## ##   ##      ##   ##   ##  ##   ##   **
 **   ##  ## ##  ##   ##  ##  ##      ####     ###    ##   ######   ######    **
 **    ##  ###   ##   ##  ##  ##      ## ##      ##   ##   ##       ##        **
 **     #######   #####   ##   #####  ##  ##  ####    ##    #####   ##        **
 **           ##                                                    ##        **
 **                                                                           **
 **                                                ... make the atoms dance   **
 **                                                                           **
 **            Copyright (C) by CP2K developers group (2000-2022)             **
 **                      J. Chem. Phys. 152, 194103 (2020)                    **
 **                                                                           **
 *******************************************************************************

 DFT| Spin restricted Kohn-Sham (RKS) calculation                            RKS
 DFT| Multiplicity                                                             1
 DFT| Number of spin states                                                    1
 DFT| Charge                                                                   0
 DFT| Self-interaction correction (SIC)                                       NO
 DFT| Cutoffs: density                                              1.000000E-10
 DFT|          gradient                                             1.000000E-10
 DFT|          tau                                                  1.000000E-10
 DFT|          cutoff_smoothing_range                               0.000000E+00
 DFT| XC density smoothing                                                  NONE
 DFT| XC derivatives                                                          PW

 FUNCTIONAL| PADE:
 FUNCTIONAL| S. Goedecker, M. Teter and J. Hutter, Phys. Rev. B 54, 1703 (1996) 


 QS| Method:                                                                 GPW
 QS| Density plane wave grid type                        NON-SPHERICAL FULLSPACE
 QS| Number of grid levels:                                                    4
 QS| Density cutoff [a.u.]:                                                200.0
 QS| Multi grid cutoff [a.u.]: 1) grid level                               200.0
 QS|                           2) grid level                                66.7
 QS|                           3) grid level                                22.2
 QS|                           4) grid level                                 7.4
 QS| Grid level progression factor:                                          3.0
 QS| Relative density cutoff [a.u.]:                                        20.0
 QS| Interaction thresholds: eps_pgf_orb:                                1.0E-05
 QS|                         eps_filter_matrix:                          0.0E+00
 QS|                         eps_core_charge:                            1.0E-12
 QS|                         eps_rho_gspace:                             1.0E-10
 QS|                         eps_rho_rspace:                             1.0E-10
 QS|                         eps_gvg_rspace:                             1.0E-05
 QS|                         eps_ppl:                                    1.0E-02
 QS|                         eps_ppnl:                                   1.0E-07


 ATOMIC KIND INFORMATION

  1. Atomic kind: Au                                    Number of atoms:     104

     Orbital Basis Set                                         SZV-MOLOPT-SR-GTH

       Number of orbital shell sets:                                           1
       Number of orbital shells:                                               3
       Number of primitive Cartesian functions:                                5
       Number of Cartesian basis functions:                                   10
       Number of spherical basis functions:                                    9
       Norm type:                                                              2

       Normalised Cartesian orbitals:

                        Set   Shell   Orbital            Exponent    Coefficient

                          1       1    2s                2.950008       0.074626
                                                         1.563057      -0.007898
                                                         0.666664      -0.297688
                                                         0.251083       0.136809
                                                         0.081714       0.088198

                          1       2    3px               2.950008       0.148824
                                                         1.563057       0.025430
                                                         0.666664      -0.123003
                                                         0.251083       0.033648
                                                         0.081714       0.059008
                          1       2    3py               2.950008       0.148824
                                                         1.563057       0.025430
                                                         0.666664      -0.123003
                                                         0.251083       0.033648
                                                         0.081714       0.059008
                          1       2    3pz               2.950008       0.148824
                                                         1.563057       0.025430
                                                         0.666664      -0.123003
                                                         0.251083       0.033648
                                                         0.081714       0.059008

                          1       3    4dx2              2.950008      -0.139595
                                                         1.563057       1.319655
                                                         0.666664       0.377081
                                                         0.251083       0.046872
                                                         0.081714       0.001393
                          1       3    4dxy              2.950008      -0.241786
                                                         1.563057       2.285709
                                                         0.666664       0.653124
                                                         0.251083       0.081185
                                                         0.081714       0.002412
                          1       3    4dxz              2.950008      -0.241786
                                                         1.563057       2.285709
                                                         0.666664       0.653124
                                                         0.251083       0.081185
                                                         0.081714       0.002412
                          1       3    4dy2              2.950008      -0.139595
                                                         1.563057       1.319655
                                                         0.666664       0.377081
                                                         0.251083       0.046872
                                                         0.081714       0.001393
                          1       3    4dyz              2.950008      -0.241786
                                                         1.563057       2.285709
                                                         0.666664       0.653124
                                                         0.251083       0.081185
                                                         0.081714       0.002412
                          1       3    4dz2              2.950008      -0.139595
                                                         1.563057       1.319655
                                                         0.666664       0.377081
                                                         0.251083       0.046872
                                                         0.081714       0.001393

       Atomic covalent radius [Angstrom]:                                  1.340

       Atomic van der Waals radius [Angstrom]:                             1.660

     GTH Potential information for                                  GTH-PADE-q11

       Description:                       Goedecker-Teter-Hutter pseudopotential
                                           Goedecker et al., PRB 54, 1703 (1996)
                                          Hartwigsen et al., PRB 58, 3641 (1998)
                                                      Krack, TCA 114, 145 (2005)

       Gaussian exponent of the core charge distribution:               1.436369
       Electronic configuration (s p d ...):                           1   0  10

       Parameters of the local part of the GTH pseudopotential:

                          rloc        C1          C2          C3          C4
                        0.590000   11.604428

       Parameters of the non-local part of the GTH pseudopotential:

                   l      r(l)      h(i,j,l)

                   0    0.521180    2.538614   -1.046137
                                   -1.046137    2.701113
                   1    0.630613    0.394853   -0.869592
                                   -0.869592    2.057831
                   2    0.440706   -4.719070    0.727771
                                    0.727771   -1.650429

  2. Atomic kind: S                                     Number of atoms:       2

     Orbital Basis Set                                        DZVP-MOLOPT-SR-GTH

       Number of orbital shell sets:                                           1
       Number of orbital shells:                                               5
       Number of primitive Cartesian functions:                                4
       Number of Cartesian basis functions:                                   14
       Number of spherical basis functions:                                   13
       Norm type:                                                              2

       Normalised Cartesian orbitals:

                        Set   Shell   Orbital            Exponent    Coefficient

                          1       1    2s                2.215855       0.308496
                                                         1.131471       0.138505
                                                         0.410168      -0.373736
                                                         0.140587      -0.040370

                          1       2    3s                2.215855      -0.329528
                                                         1.131471      -0.517509
                                                         0.410168       0.787368
                                                         0.140587      -0.322786

                          1       3    3px               2.215855       0.420434
                                                         1.131471      -0.319283
                                                         0.410168      -0.335323
                                                         0.140587      -0.030976
                          1       3    3py               2.215855       0.420434
                                                         1.131471      -0.319283
                                                         0.410168      -0.335323
                                                         0.140587      -0.030976
                          1       3    3pz               2.215855       0.420434
                                                         1.131471      -0.319283
                                                         0.410168      -0.335323
                                                         0.140587      -0.030976

                          1       4    4px               2.215855       0.241296
                                                         1.131471      -0.170582
                                                         0.410168      -0.186977
                                                         0.140587       0.153509
                          1       4    4py               2.215855       0.241296
                                                         1.131471      -0.170582
                                                         0.410168      -0.186977
                                                         0.140587       0.153509
                          1       4    4pz               2.215855       0.241296
                                                         1.131471      -0.170582
                                                         0.410168      -0.186977
                                                         0.140587       0.153509

                          1       5    4dx2              2.215855       0.573559
                                                         1.131471       0.544926
                                                         0.410168       0.228284
                                                         0.140587       0.008811
                          1       5    4dxy              2.215855       0.993434
                                                         1.131471       0.943840
                                                         0.410168       0.395400
                                                         0.140587       0.015260
                          1       5    4dxz              2.215855       0.993434
                                                         1.131471       0.943840
                                                         0.410168       0.395400
                                                         0.140587       0.015260
                          1       5    4dy2              2.215855       0.573559
                                                         1.131471       0.544926
                                                         0.410168       0.228284
                                                         0.140587       0.008811
                          1       5    4dyz              2.215855       0.993434
                                                         1.131471       0.943840
                                                         0.410168       0.395400
                                                         0.140587       0.015260
                          1       5    4dz2              2.215855       0.573559
                                                         1.131471       0.544926
                                                         0.410168       0.228284
                                                         0.140587       0.008811

       Atomic covalent radius [Angstrom]:                                  1.020

       Atomic van der Waals radius [Angstrom]:                             1.800

     GTH Potential information for                                   GTH-PADE-q6

       Description:                       Goedecker-Teter-Hutter pseudopotential
                                           Goedecker et al., PRB 54, 1703 (1996)
                                          Hartwigsen et al., PRB 58, 3641 (1998)
                                                      Krack, TCA 114, 145 (2005)

       Gaussian exponent of the core charge distribution:               2.834467
       Electronic configuration (s p d ...):                               2   4

       Parameters of the local part of the GTH pseudopotential:

                          rloc        C1          C2          C3          C4
                        0.420000   -6.554492

       Parameters of the non-local part of the GTH pseudopotential:

                   l      r(l)      h(i,j,l)

                   0    0.361757    7.905303   -1.731881
                                   -1.731881    4.471698
                   1    0.405285    3.866579

  3. Atomic kind: C                                     Number of atoms:       6

     Orbital Basis Set                                        DZVP-MOLOPT-SR-GTH

       Number of orbital shell sets:                                           1
       Number of orbital shells:                                               5
       Number of primitive Cartesian functions:                                5
       Number of Cartesian basis functions:                                   14
       Number of spherical basis functions:                                   13
       Norm type:                                                              2

       Normalised Cartesian orbitals:

                        Set   Shell   Orbital            Exponent    Coefficient

                          1       1    2s                5.605331       0.322515
                                                         2.113016       0.213043
                                                         0.769911      -0.209686
                                                         0.348157      -0.219794
                                                         0.128212      -0.022789

                          1       2    3s                5.605331       0.552234
                                                         2.113016       0.082072
                                                         0.769911       0.007843
                                                         0.348157       0.136893
                                                         0.128212       0.074283

                          1       3    3px               5.605331      -0.703879
                                                         2.113016      -0.642521
                                                         0.769911      -0.374851
                                                         0.348157      -0.139743
                                                         0.128212      -0.027849
                          1       3    3py               5.605331      -0.703879
                                                         2.113016      -0.642521
                                                         0.769911      -0.374851
                                                         0.348157      -0.139743
                                                         0.128212      -0.027849
                          1       3    3pz               5.605331      -0.703879
                                                         2.113016      -0.642521
                                                         0.769911      -0.374851
                                                         0.348157      -0.139743
                                                         0.128212      -0.027849

                          1       4    4px               5.605331      -0.480376
                                                         2.113016      -0.552894
                                                         0.769911      -0.316145
                                                         0.348157       0.210505
                                                         0.128212       0.076095
                          1       4    4py               5.605331      -0.480376
                                                         2.113016      -0.552894
                                                         0.769911      -0.316145
                                                         0.348157       0.210505
                                                         0.128212       0.076095
                          1       4    4pz               5.605331      -0.480376
                                                         2.113016      -0.552894
                                                         0.769911      -0.316145
                                                         0.348157       0.210505
                                                         0.128212       0.076095

                          1       5    4dx2              5.605331       0.640026
                                                         2.113016       0.274300
                                                         0.769911       0.446711
                                                         0.348157       0.028674
                                                         0.128212       0.029790
                          1       5    4dxy              5.605331       1.108557
                                                         2.113016       0.475102
                                                         0.769911       0.773726
                                                         0.348157       0.049666
                                                         0.128212       0.051599
                          1       5    4dxz              5.605331       1.108557
                                                         2.113016       0.475102
                                                         0.769911       0.773726
                                                         0.348157       0.049666
                                                         0.128212       0.051599
                          1       5    4dy2              5.605331       0.640026
                                                         2.113016       0.274300
                                                         0.769911       0.446711
                                                         0.348157       0.028674
                                                         0.128212       0.029790
                          1       5    4dyz              5.605331       1.108557
                                                         2.113016       0.475102
                                                         0.769911       0.773726
                                                         0.348157       0.049666
                                                         0.128212       0.051599
                          1       5    4dz2              5.605331       0.640026
                                                         2.113016       0.274300
                                                         0.769911       0.446711
                                                         0.348157       0.028674
                                                         0.128212       0.029790

       Atomic covalent radius [Angstrom]:                                  0.770

       Atomic van der Waals radius [Angstrom]:                             1.700

     GTH Potential information for                                   GTH-PADE-q4

       Description:                       Goedecker-Teter-Hutter pseudopotential
                                           Goedecker et al., PRB 54, 1703 (1996)
                                          Hartwigsen et al., PRB 58, 3641 (1998)
                                                      Krack, TCA 114, 145 (2005)

       Gaussian exponent of the core charge distribution:               4.109048
       Electronic configuration (s p d ...):                               2   2

       Parameters of the local part of the GTH pseudopotential:

                          rloc        C1          C2          C3          C4
                        0.348830   -8.513771    1.228432

       Parameters of the non-local part of the GTH pseudopotential:

                   l      r(l)      h(i,j,l)

                   0    0.304553    9.522842
                   1    0.232677

  4. Atomic kind: H                                     Number of atoms:       4

     Orbital Basis Set                                        DZVP-MOLOPT-SR-GTH

       Number of orbital shell sets:                                           1
       Number of orbital shells:                                               3
       Number of primitive Cartesian functions:                                5
       Number of Cartesian basis functions:                                    5
       Number of spherical basis functions:                                    5
       Norm type:                                                              2

       Normalised Cartesian orbitals:

                        Set   Shell   Orbital            Exponent    Coefficient

                          1       1    2s               10.068468      -0.133023
                                                         2.680223      -0.177618
                                                         0.791502      -0.258419
                                                         0.239116      -0.107525
                                                         0.082193      -0.014019

                          1       2    3s               10.068468       0.344673
                                                         2.680223       1.819821
                                                         0.791502      -0.999069
                                                         0.239116       0.017430
                                                         0.082193       0.082660

                          1       3    3px              10.068468       0.155326
                                                         2.680223       0.367157
                                                         0.791502       0.311480
                                                         0.239116       0.080105
                                                         0.082193       0.033440
                          1       3    3py              10.068468       0.155326
                                                         2.680223       0.367157
                                                         0.791502       0.311480
                                                         0.239116       0.080105
                                                         0.082193       0.033440
                          1       3    3pz              10.068468       0.155326
                                                         2.680223       0.367157
                                                         0.791502       0.311480
                                                         0.239116       0.080105
                                                         0.082193       0.033440

       Atomic covalent radius [Angstrom]:                                  0.320

       Atomic van der Waals radius [Angstrom]:                             1.090

     GTH Potential information for                                   GTH-PADE-q1

       Description:                       Goedecker-Teter-Hutter pseudopotential
                                           Goedecker et al., PRB 54, 1703 (1996)
                                          Hartwigsen et al., PRB 58, 3641 (1998)
                                                      Krack, TCA 114, 145 (2005)

       Gaussian exponent of the core charge distribution:              12.500000
       Electronic configuration (s p d ...):                                   1

       Parameters of the local part of the GTH pseudopotential:

                          rloc        C1          C2          C3          C4
                        0.200000   -4.180237    0.725075


 MOLECULE KIND INFORMATION


 All atoms are their own molecule, skipping detailed information


 TOTAL NUMBERS AND MAXIMUM NUMBERS

  Total number of            - Atomic kinds:                                   4
                             - Atoms:                                        116
                             - Shell sets:                                   116
                             - Shells:                                       364
                             - Primitive Cartesian functions:                578
                             - Cartesian basis functions:                   1172
                             - Spherical basis functions:                   1060

  Maximum angular momentum of- Orbital basis functions:                        2
                             - Local part of the GTH pseudopotential:          2
                             - Non-local part of the GTH pseudopotential:      4


 MODULE QUICKSTEP: ATOMIC COORDINATES IN ANGSTROM

   Atom Kind Element         X             Y             Z       Z(eff)     Mass
      1    1 Au   79      0.000000      0.000000      0.000000  11.0000 196.9666
      2    1 Au   79      0.000000      4.168000      0.000000  11.0000 196.9666
      3    1 Au   79      2.084000      2.084000      0.000000  11.0000 196.9666
      4    1 Au   79      2.084000      6.252000      0.000000  11.0000 196.9666
      5    1 Au   79      4.168000      0.000000      0.000000  11.0000 196.9666
      6    1 Au   79      4.168000      4.168000      0.000000  11.0000 196.9666
      7    1 Au   79      6.252000      2.084000      0.000000  11.0000 196.9666
      8    1 Au   79      6.252000      6.252000      0.000000  11.0000 196.9666
      9    1 Au   79      0.000000      2.084000      2.084000  11.0000 196.9666
     10    1 Au   79      0.000000      6.252000      2.084000  11.0000 196.9666
     11    1 Au   79      2.084000      0.000000      2.084000  11.0000 196.9666
     12    1 Au   79      2.084000      4.168000      2.084000  11.0000 196.9666
     13    1 Au   79      4.168000      2.084000      2.084000  11.0000 196.9666
     14    1 Au   79      4.168000      6.252000      2.084000  11.0000 196.9666
     15    1 Au   79      6.252000      0.000000      2.084000  11.0000 196.9666
     16    1 Au   79      6.252000      4.168000      2.084000  11.0000 196.9666
     17    1 Au   79      0.000000      0.000000      4.168000  11.0000 196.9666
     18    1 Au   79      0.000000      4.168000      4.168000  11.0000 196.9666
     19    1 Au   79      2.084000      2.084000      4.168000  11.0000 196.9666
     20    1 Au   79      2.084000      6.252000      4.168000  11.0000 196.9666
     21    1 Au   79      4.168000      0.000000      4.168000  11.0000 196.9666
     22    1 Au   79      4.168000      4.168000      4.168000  11.0000 196.9666
     23    1 Au   79      6.252000      2.084000      4.168000  11.0000 196.9666
     24    1 Au   79      6.252000      6.252000      4.168000  11.0000 196.9666
     25    1 Au   79      0.000000      2.084000      6.252000  11.0000 196.9666
     26    1 Au   79      0.000000      6.252000      6.252000  11.0000 196.9666
     27    1 Au   79      2.084000      0.000000      6.252000  11.0000 196.9666
     28    1 Au   79      2.084000      4.168000      6.252000  11.0000 196.9666
     29    1 Au   79      4.168000      2.084000      6.252000  11.0000 196.9666
     30    1 Au   79      4.168000      6.252000      6.252000  11.0000 196.9666
     31    1 Au   79      6.252000      0.000000      6.252000  11.0000 196.9666
     32    1 Au   79      6.252000      4.168000      6.252000  11.0000 196.9666
     33    1 Au   79      0.000000      0.000000      8.336000  11.0000 196.9666
     34    1 Au   79      0.000000      4.168000      8.336000  11.0000 196.9666
     35    1 Au   79      2.084000      2.084000      8.336000  11.0000 196.9666
     36    1 Au   79      2.084000      6.252000      8.336000  11.0000 196.9666
     37    1 Au   79      4.168000      0.000000      8.336000  11.0000 196.9666
     38    1 Au   79      4.168000      4.168000      8.336000  11.0000 196.9666
     39    1 Au   79      6.252000      2.084000      8.336000  11.0000 196.9666
     40    1 Au   79      6.252000      6.252000      8.336000  11.0000 196.9666
     41    1 Au   79      0.000000      2.084000     10.420000  11.0000 196.9666
     42    1 Au   79      0.000000      6.252000     10.420000  11.0000 196.9666
     43    1 Au   79      2.084000      0.000000     10.420000  11.0000 196.9666
     44    1 Au   79      2.084000      4.168000     10.420000  11.0000 196.9666
     45    1 Au   79      4.168000      2.084000     10.420000  11.0000 196.9666
     46    1 Au   79      4.168000      6.252000     10.420000  11.0000 196.9666
     47    1 Au   79      6.252000      0.000000     10.420000  11.0000 196.9666
     48    1 Au   79      6.252000      4.168000     10.420000  11.0000 196.9666
     49    1 Au   79      0.000000      0.000000     12.504000  11.0000 196.9666
     50    1 Au   79      0.000000      4.168000     12.504000  11.0000 196.9666
     51    1 Au   79      2.084000      2.084000     12.504000  11.0000 196.9666
     52    1 Au   79      2.084000      6.252000     12.504000  11.0000 196.9666
     53    1 Au   79      4.168000      0.000000     12.504000  11.0000 196.9666
     54    1 Au   79      4.168000      4.168000     12.504000  11.0000 196.9666
     55    1 Au   79      6.252000      2.084000     12.504000  11.0000 196.9666
     56    1 Au   79      6.252000      6.252000     12.504000  11.0000 196.9666
     57    2 S    16      4.171000      2.086000     13.790000   6.0000  32.0650
     58    3 C     6      4.175000      2.089000     15.551000   4.0000  12.0107
     59    4 H     1      2.073000      2.116000     15.734000   1.0000   1.0079
     60    4 H     1      6.269000      2.116000     15.740000   1.0000   1.0079
     61    3 C     6      2.965000      2.095000     16.251000   4.0000  12.0107
     62    3 C     6      5.373000      2.095000     16.251000   4.0000  12.0107
     63    3 C     6      2.959000      2.074000     17.674000   4.0000  12.0107
     64    3 C     6      5.367000      2.074000     17.674000   4.0000  12.0107
     65    4 H     1      2.063000      2.053000     18.186000   1.0000   1.0079
     66    4 H     1      6.259000      2.053000     18.192000   1.0000   1.0079
     67    3 C     6      4.157000      2.080000     18.375000   4.0000  12.0107
     68    2 S    16      4.171000      2.086000     20.136000   6.0000  32.0650
     69    1 Au   79      0.000000      0.000000     21.422000  11.0000 196.9666
     70    1 Au   79      0.000000      4.168000     21.422000  11.0000 196.9666
     71    1 Au   79      2.084000      2.084000     21.422000  11.0000 196.9666
     72    1 Au   79      2.084000      6.252000     21.422000  11.0000 196.9666
     73    1 Au   79      4.168000      0.000000     21.422000  11.0000 196.9666
     74    1 Au   79      4.168000      4.168000     21.422000  11.0000 196.9666
     75    1 Au   79      6.252000      2.084000     21.422000  11.0000 196.9666
     76    1 Au   79      6.252000      6.252000     21.422000  11.0000 196.9666
     77    1 Au   79      0.000000      2.084000     23.506000  11.0000 196.9666
     78    1 Au   79      0.000000      6.252000     23.506000  11.0000 196.9666
     79    1 Au   79      2.084000      0.000000     23.506000  11.0000 196.9666
     80    1 Au   79      2.084000      4.168000     23.506000  11.0000 196.9666
     81    1 Au   79      4.168000      2.084000     23.506000  11.0000 196.9666
     82    1 Au   79      4.168000      6.252000     23.506000  11.0000 196.9666
     83    1 Au   79      6.252000      0.000000     23.506000  11.0000 196.9666
     84    1 Au   79      6.252000      4.168000     23.506000  11.0000 196.9666
     85    1 Au   79      0.000000      0.000000     25.590000  11.0000 196.9666
     86    1 Au   79      0.000000      4.168000     25.590000  11.0000 196.9666
     87    1 Au   79      2.084000      2.084000     25.590000  11.0000 196.9666
     88    1 Au   79      2.084000      6.252000     25.590000  11.0000 196.9666
     89    1 Au   79      4.168000      0.000000     25.590000  11.0000 196.9666
     90    1 Au   79      4.168000      4.168000     25.590000  11.0000 196.9666
     91    1 Au   79      6.252000      2.084000     25.590000  11.0000 196.9666
     92    1 Au   79      6.252000      6.252000     25.590000  11.0000 196.9666
     93    1 Au   79      0.000000      2.084000     27.674000  11.0000 196.9666
     94    1 Au   79      0.000000      6.252000     27.674000  11.0000 196.9666
     95    1 Au   79      2.084000      0.000000     27.674000  11.0000 196.9666
     96    1 Au   79      2.084000      4.168000     27.674000  11.0000 196.9666
     97    1 Au   79      4.168000      2.084000     27.674000  11.0000 196.9666
     98    1 Au   79      4.168000      6.252000     27.674000  11.0000 196.9666
     99    1 Au   79      6.252000      0.000000     27.674000  11.0000 196.9666
    100    1 Au   79      6.252000      4.168000     27.674000  11.0000 196.9666
    101    1 Au   79      0.000000      0.000000     29.758000  11.0000 196.9666
    102    1 Au   79      0.000000      4.168000     29.758000  11.0000 196.9666
    103    1 Au   79      2.084000      2.084000     29.758000  11.0000 196.9666
    104    1 Au   79      2.084000      6.252000     29.758000  11.0000 196.9666
    105    1 Au   79      4.168000      0.000000     29.758000  11.0000 196.9666
    106    1 Au   79      4.168000      4.168000     29.758000  11.0000 196.9666
    107    1 Au   79      6.252000      2.084000     29.758000  11.0000 196.9666
    108    1 Au   79      6.252000      6.252000     29.758000  11.0000 196.9666
    109    1 Au   79      0.000000      2.084000     31.842000  11.0000 196.9666
    110    1 Au   79      0.000000      6.252000     31.842000  11.0000 196.9666
    111    1 Au   79      2.084000      0.000000     31.842000  11.0000 196.9666
    112    1 Au   79      2.084000      4.168000     31.842000  11.0000 196.9666
    113    1 Au   79      4.168000      2.084000     31.842000  11.0000 196.9666
    114    1 Au   79      4.168000      6.252000     31.842000  11.0000 196.9666
    115    1 Au   79      6.252000      0.000000     31.842000  11.0000 196.9666
    116    1 Au   79      6.252000      4.168000     31.842000  11.0000 196.9666



 SCF PARAMETERS         Density guess:                                   RESTART
                        --------------------------------------------------------
                        max_scf:                                             500
                        max_scf_history:                                       0
                        max_diis:                                              4
                        --------------------------------------------------------
                        eps_scf:                                        1.00E-07
                        eps_scf_history:                                0.00E+00
                        eps_diis:                                       1.00E-01
                        eps_eigval:                                     1.00E-05
                        --------------------------------------------------------
                        level_shift [a.u.]:                             0.000000
                        added MOs                                       100    0
                        --------------------------------------------------------
                        Mixing method:                            BROYDEN_MIXING
                                                charge density mixing in g-space
                        --------------------------------------------------------
                        Smear method:                                FERMI_DIRAC
                        Electronic temperature [K]:                        293.0
                        Electronic temperature [a.u.]:                  9.28E-04
                        Accuracy threshold:                             1.00E-10
                        --------------------------------------------------------
                        No outer SCF

 PW_GRID| Information for grid number                                          1
 PW_GRID| Grid distributed over                                   240 processors
 PW_GRID| Real space group dimensions                                    12   20
 PW_GRID| the grid is blocked:                                               YES
 PW_GRID| Cutoff [a.u.]                                                    200.0
 PW_GRID| spherical cutoff:                                                   NO
 PW_GRID|   Bounds   1            -52      52                Points:         105
 PW_GRID|   Bounds   2            -52      52                Points:         105
 PW_GRID|   Bounds   3           -210     209                Points:         420
 PW_GRID| Volume element (a.u.^3)  0.3436E-02     Volume (a.u.^3)     15909.0657
 PW_GRID| Grid span                                                    FULLSPACE
 PW_GRID|   Distribution                         Average         Max         Min
 PW_GRID|   G-Vectors                            19293.8       19845       17640
 PW_GRID|   G-Rays                                 183.8         189         168
 PW_GRID|   Real Space Points                    19293.8       19845       17640

 PW_GRID| Information for grid number                                          2
 PW_GRID| Number of the reference grid                                         1
 PW_GRID| Grid distributed over                                   240 processors
 PW_GRID| Real space group dimensions                                    12   20
 PW_GRID| the grid is blocked:                                                NO
 PW_GRID| Cutoff [a.u.]                                                     66.7
 PW_GRID| spherical cutoff:                                                   NO
 PW_GRID|   Bounds   1            -30      29                Points:          60
 PW_GRID|   Bounds   2            -30      29                Points:          60
 PW_GRID|   Bounds   3           -120     119                Points:         240
 PW_GRID| Volume element (a.u.^3)  0.1841E-01     Volume (a.u.^3)     15909.0657
 PW_GRID| Grid span                                                    FULLSPACE
 PW_GRID|   Distribution                         Average         Max         Min
 PW_GRID|   G-Vectors                             3600.0       11340           0
 PW_GRID|   G-Rays                                  60.0         189           0
 PW_GRID|   Real Space Points                     3600.0        3600        3600

 PW_GRID| Information for grid number                                          3
 PW_GRID| Number of the reference grid                                         1
 PW_GRID| Grid distributed over                                   240 processors
 PW_GRID| Real space group dimensions                                    12   20
 PW_GRID| the grid is blocked:                                                NO
 PW_GRID| Cutoff [a.u.]                                                     22.2
 PW_GRID| spherical cutoff:                                                   NO
 PW_GRID|   Bounds   1            -16      16                Points:          33
 PW_GRID|   Bounds   2            -16      16                Points:          33
 PW_GRID|   Bounds   3            -70      69                Points:         140
 PW_GRID| Volume element (a.u.^3)  0.1043         Volume (a.u.^3)     15909.0657
 PW_GRID| Grid span                                                    FULLSPACE
 PW_GRID|   Distribution                         Average         Max         Min
 PW_GRID|   G-Vectors                              635.2        6237           0
 PW_GRID|   G-Rays                                  19.2         189           0
 PW_GRID|   Real Space Points                      635.2         840         280

 PW_GRID| Information for grid number                                          4
 PW_GRID| Number of the reference grid                                         1
 PW_GRID| Grid distributed over                                   240 processors
 PW_GRID| Real space group dimensions                                    12   20
 PW_GRID| the grid is blocked:                                                NO
 PW_GRID| Cutoff [a.u.]                                                      7.4
 PW_GRID| spherical cutoff:                                                   NO
 PW_GRID|   Bounds   1            -10       9                Points:          20
 PW_GRID|   Bounds   2            -10       9                Points:          20
 PW_GRID|   Bounds   3            -40      39                Points:          80
 PW_GRID| Volume element (a.u.^3)  0.4972         Volume (a.u.^3)     15909.0657
 PW_GRID| Grid span                                                    FULLSPACE
 PW_GRID|   Distribution                         Average         Max         Min
 PW_GRID|   G-Vectors                              133.3        3780           0
 PW_GRID|   G-Rays                                   6.7         189           0
 PW_GRID|   Real Space Points                      133.3         160          80

 POISSON| Solver                                                        PERIODIC
 POISSON| Periodicity                                                        XYZ

 RS_GRID| Information for grid number                                          1
 RS_GRID|   Bounds   1            -52      52                Points:         105
 RS_GRID|   Bounds   2            -52      52                Points:         105
 RS_GRID|   Bounds   3           -210     209                Points:         420
 RS_GRID| Real space distribution over                                  8 groups
 RS_GRID| Real space distribution along direction                              2
 RS_GRID| Border size                                                         30
 RS_GRID| Real space distribution over                                 30 groups
 RS_GRID| Real space distribution along direction                              3
 RS_GRID| Border size                                                         30
 RS_GRID|   Distribution                         Average         Max         Min
 RS_GRID|   Planes                                  73.1          74          73
 RS_GRID|   Distribution                         Average         Max         Min
 RS_GRID|   Planes                                  74.0          74          74

 RS_GRID| Information for grid number                                          2
 RS_GRID|   Bounds   1            -30      29                Points:          60
 RS_GRID|   Bounds   2            -30      29                Points:          60
 RS_GRID|   Bounds   3           -120     119                Points:         240
 RS_GRID| Real space distribution over                                  8 groups
 RS_GRID| Real space distribution along direction                              2
 RS_GRID| Border size                                                         22
 RS_GRID| Real space distribution over                                 30 groups
 RS_GRID| Real space distribution along direction                              3
 RS_GRID| Border size                                                         22
 RS_GRID|   Distribution                         Average         Max         Min
 RS_GRID|   Planes                                  51.5          52          51
 RS_GRID|   Distribution                         Average         Max         Min
 RS_GRID|   Planes                                  52.0          52          52

 RS_GRID| Information for grid number                                          3
 RS_GRID|   Bounds   1            -16      16                Points:          33
 RS_GRID|   Bounds   2            -16      16                Points:          33
 RS_GRID|   Bounds   3            -70      69                Points:         140
 RS_GRID| Real space fully replicated
 RS_GRID| Group size                                                           1

 RS_GRID| Information for grid number                                          4
 RS_GRID|   Bounds   1            -10       9                Points:          20
 RS_GRID|   Bounds   2            -10       9                Points:          20
 RS_GRID|   Bounds   3            -40      39                Points:          80
 RS_GRID| Real space fully replicated
 RS_GRID| Group size                                                           1

 KPOINTS| Number of kpoint groups                                              1
 KPOINTS| Size of each kpoint group                                          240
 KPOINTS| Number of kpoints per group                                         16

 Number of electrons:                                                       1184
 Number of occupied orbitals:                                                592
 Number of molecular orbitals:                                               692

 Number of orbital functions:                                               1060
 Number of independent orbital functions:                                   1060

 Extrapolation method: initial_guess


 SCF WAVEFUNCTION OPTIMIZATION

  Step     Update method      Time    Convergence         Total energy    Change
  ------------------------------------------------------------------------------
 SMEAGOL DEBUG| Number of electrons in the unit cell =      1183.9999999951
     1 NoMix/SMGL  0.30E+00  117.7     0.53268514     -3518.3696020738 -3.52E+03
 SMEAGOL DEBUG| Number of electrons in the unit cell =      1184.4593960096
     2 Broy./SMGL  0.30E+00   77.4     0.03181590     -3517.0616772266  1.31E+00
 SMEAGOL DEBUG| Number of electrons in the unit cell =      1184.1617270932
     3 Broy./SMGL  0.30E+00   76.7     0.02658146     -3520.3743381270 -3.31E+00
 SMEAGOL DEBUG| Number of electrons in the unit cell =      1184.1259483230
     4 Broy./SMGL  0.30E+00   76.7     0.00959189     -3518.8919335423  1.48E+00
 SMEAGOL DEBUG| Number of electrons in the unit cell =      1184.1062481135
     5 Broy./SMGL  0.30E+00   76.6     0.00531876     -3518.5405891800  3.51E-01
 SMEAGOL DEBUG| Number of electrons in the unit cell =      1184.0714929628
     6 Broy./SMGL  0.30E+00   76.5     0.00471420     -3518.3538862393  1.87E-01
 SMEAGOL DEBUG| Number of electrons in the unit cell =      1184.0334480036
     7 Broy./SMGL  0.30E+00   76.7     0.00163970     -3518.4141133442 -6.02E-02
 SMEAGOL DEBUG| Number of electrons in the unit cell =      1184.0223108283
     8 Broy./SMGL  0.30E+00   76.8     0.00154435     -3518.3615627613  5.26E-02
 SMEAGOL DEBUG| Number of electrons in the unit cell =      1184.0153266051
     9 Broy./SMGL  0.30E+00   77.0     0.00137470     -3518.3480998402  1.35E-02
 SMEAGOL DEBUG| Number of electrons in the unit cell =      1184.0120503366
    10 Broy./SMGL  0.30E+00   76.4     0.00132670     -3518.3415284049  6.57E-03
 SMEAGOL DEBUG| Number of electrons in the unit cell =      1184.0097145288
    11 Broy./SMGL  0.30E+00   76.7     0.00163742     -3518.3396673039  1.86E-03
 SMEAGOL DEBUG| Number of electrons in the unit cell =      1184.0086907440
    12 Broy./SMGL  0.30E+00   77.5     0.00139082     -3518.3389305622  7.37E-04
 SMEAGOL DEBUG| Number of electrons in the unit cell =      1184.0081132980
    13 Broy./SMGL  0.30E+00   77.3     0.00062871     -3518.3385853277  3.45E-04
 SMEAGOL DEBUG| Number of electrons in the unit cell =      1184.0077088677
    14 Broy./SMGL  0.30E+00   76.7     0.00135974     -3518.3380791823  5.06E-04
 SMEAGOL DEBUG| Number of electrons in the unit cell =      1184.0074400604
    15 Broy./SMGL  0.30E+00   77.0     0.00143456     -3518.3377912788  2.88E-04
 SMEAGOL DEBUG| Number of electrons in the unit cell =      1184.0075330360
    16 Broy./SMGL  0.30E+00   78.6     0.00126834     -3518.3374831803  3.08E-04
 SMEAGOL DEBUG| Number of electrons in the unit cell =      1184.0077273480
    17 Broy./SMGL  0.30E+00   76.9     0.00061341     -3518.3374255258  5.77E-05
 SMEAGOL DEBUG| Number of electrons in the unit cell =      1184.0078791754
    18 Broy./SMGL  0.30E+00   78.0     0.00061342     -3518.3376178129 -1.92E-04
 SMEAGOL DEBUG| Number of electrons in the unit cell =      1184.0079311622
    19 Broy./SMGL  0.30E+00   80.0     0.00069276     -3518.3377375233 -1.20E-04
 SMEAGOL DEBUG| Number of electrons in the unit cell =      1184.0081498228
    20 Broy./SMGL  0.30E+00   76.9     0.00069278     -3518.3375045289  2.33E-04
 SMEAGOL DEBUG| Number of electrons in the unit cell =      1184.0081296424
    21 Broy./SMGL  0.30E+00   77.2     0.00053633     -3518.3377400014 -2.35E-04
 SMEAGOL DEBUG| Number of electrons in the unit cell =      1184.0081207607
    22 Broy./SMGL  0.30E+00   76.7     0.00053634     -3518.3377374133  2.59E-06
 SMEAGOL DEBUG| Number of electrons in the unit cell =      1184.0081383747
    23 Broy./SMGL  0.30E+00   77.9     0.00004354     -3518.3377210280  1.64E-05
 SMEAGOL DEBUG| Number of electrons in the unit cell =      1184.0081892487
    24 Broy./SMGL  0.30E+00   76.6     0.00034488     -3518.3376604577  6.06E-05
 SMEAGOL DEBUG| Number of electrons in the unit cell =      1184.0082061206
    25 Broy./SMGL  0.30E+00   77.2     0.00034940     -3518.3376098909  5.06E-05
 SMEAGOL DEBUG| Number of electrons in the unit cell =      1184.0081925435
    26 Broy./SMGL  0.30E+00   78.1     0.00011743     -3518.3376229006 -1.30E-05
 SMEAGOL DEBUG| Number of electrons in the unit cell =      1184.0082014203
    27 Broy./SMGL  0.30E+00   77.4     0.00065215     -3518.3376137620  9.14E-06
 SMEAGOL DEBUG| Number of electrons in the unit cell =      1184.0081916747
    28 Broy./SMGL  0.30E+00   76.8     0.00065211     -3518.3376006070  1.32E-05
 SMEAGOL DEBUG| Number of electrons in the unit cell =      1184.0081864396
    29 Broy./SMGL  0.30E+00   76.9     0.00007053     -3518.3375933045  7.30E-06
 SMEAGOL DEBUG| Number of electrons in the unit cell =      1184.0081789310
    30 Broy./SMGL  0.30E+00   77.6     0.00007053     -3518.3376233534 -3.00E-05
 SMEAGOL DEBUG| Number of electrons in the unit cell =      1184.0081659400
    31 Broy./SMGL  0.30E+00   77.6     0.00034939     -3518.3376203977  2.96E-06
 SMEAGOL DEBUG| Number of electrons in the unit cell =      1184.0081694175
    32 Broy./SMGL  0.30E+00   76.7     0.00034940     -3518.3376101081  1.03E-05
 SMEAGOL DEBUG| Number of electrons in the unit cell =      1184.0081635316
    33 Broy./SMGL  0.30E+00   76.8     0.00000842     -3518.3376280074 -1.79E-05
 SMEAGOL DEBUG| Number of electrons in the unit cell =      1184.0081638261
    34 Broy./SMGL  0.30E+00   77.2     0.00022507     -3518.3376148691  1.31E-05
 SMEAGOL DEBUG| Number of electrons in the unit cell =      1184.0081638664
    35 Broy./SMGL  0.30E+00   77.2     0.00022511     -3518.3376121566  2.71E-06
 SMEAGOL DEBUG| Number of electrons in the unit cell =      1184.0081635880
    36 Broy./SMGL  0.30E+00   76.7     0.00052614     -3518.3376124544 -2.98E-07
 SMEAGOL DEBUG| Number of electrons in the unit cell =      1184.0081666001
    37 Broy./SMGL  0.30E+00   77.9     0.00052615     -3518.3376201622 -7.71E-06
 SMEAGOL DEBUG| Number of electrons in the unit cell =      1184.0081656273
    38 Broy./SMGL  0.30E+00   77.6     0.00061343     -3518.3376135740  6.59E-06
 SMEAGOL DEBUG| Number of electrons in the unit cell =      1184.0081631323
    39 Broy./SMGL  0.30E+00   76.7     0.00061343     -3518.3376116443  1.93E-06
 SMEAGOL DEBUG| Number of electrons in the unit cell =      1184.0081635146
    40 Broy./SMGL  0.30E+00   76.8     0.00057562     -3518.3376157351 -4.09E-06
 SMEAGOL DEBUG| Number of electrons in the unit cell =      1184.0081628662
    41 Broy./SMGL  0.30E+00   77.4     0.00004354     -3518.3376165741 -8.39E-07
 SMEAGOL DEBUG| Number of electrons in the unit cell =      1184.0081632050
    42 Broy./SMGL  0.30E+00   77.5     0.00023446     -3518.3376158165  7.58E-07
 SMEAGOL DEBUG| Number of electrons in the unit cell =      1184.0081632776
    43 Broy./SMGL  0.30E+00   77.0     0.00000512     -3518.3376161571 -3.41E-07
 SMEAGOL DEBUG| Number of electrons in the unit cell =      1184.0081632404
    44 Broy./SMGL  0.30E+00   77.4     0.00000521     -3518.3376156796  4.78E-07
 SMEAGOL DEBUG| Number of electrons in the unit cell =      1184.0081631168
    45 Broy./SMGL  0.30E+00   76.5     0.00004087     -3518.3376154110  2.69E-07
 SMEAGOL DEBUG| Number of electrons in the unit cell =      1184.0081618623
    46 Broy./SMGL  0.30E+00   77.0     0.00023446     -3518.3376146340  7.77E-07
 SMEAGOL DEBUG| Number of electrons in the unit cell =      1184.0081641070
    47 Broy./SMGL  0.30E+00   76.1     0.00023446     -3518.3376163688 -1.73E-06
 SMEAGOL DEBUG| Number of electrons in the unit cell =      1184.0081637209
    48 Broy./SMGL  0.30E+00   77.1     0.00011891     -3518.3376173734 -1.00E-06
 SMEAGOL DEBUG| Number of electrons in the unit cell =      1184.0081635927
    49 Broy./SMGL  0.30E+00   76.5     0.00002151     -3518.3376158613  1.51E-06
 SMEAGOL DEBUG| Number of electrons in the unit cell =      1184.0081632715
    50 Broy./SMGL  0.30E+00   77.7     0.00052614     -3518.3376136977  2.16E-06
 SMEAGOL DEBUG| Number of electrons in the unit cell =      1184.0081838675
    51 Broy./SMGL  0.30E+00   77.6     0.00066358     -3518.3376354708 -2.18E-05
 SMEAGOL DEBUG| Number of electrons in the unit cell =      1184.0081745371
    52 Broy./SMGL  0.30E+00   76.7     0.00066358     -3518.3376252470  1.02E-05
 SMEAGOL DEBUG| Number of electrons in the unit cell =      1184.0081735757
    53 Broy./SMGL  0.30E+00   76.3     0.00010011     -3518.3376243148  9.32E-07
 SMEAGOL DEBUG| Number of electrons in the unit cell =      1184.0081621606
    54 Broy./SMGL  0.30E+00   77.3     0.00009790     -3518.3376134754  1.08E-05
 SMEAGOL DEBUG| Number of electrons in the unit cell =      1184.0081611593
    55 Broy./SMGL  0.30E+00   77.3     0.00001604     -3518.3376074161  6.06E-06
 SMEAGOL DEBUG| Number of electrons in the unit cell =      1184.0081599071
    56 Broy./SMGL  0.30E+00   76.8     0.00753183     -3518.3376166027 -9.19E-06
 SMEAGOL DEBUG| Number of electrons in the unit cell =      1184.0081598144
    57 Broy./SMGL  0.30E+00   76.9     0.00753536     -3518.3376100455  6.56E-06
 SMEAGOL DEBUG| Number of electrons in the unit cell =      1184.0081600935
    58 Broy./SMGL  0.30E+00   76.6     0.00047497     -3518.3376223019 -1.23E-05
 SMEAGOL DEBUG| Number of electrons in the unit cell =      1184.0081582003
    59 Broy./SMGL  0.30E+00   77.3     0.00010090     -3518.3376112302  1.11E-05
 SMEAGOL DEBUG| Number of electrons in the unit cell =      1184.0081551167
    60 Broy./SMGL  0.30E+00   76.3     0.00023446     -3518.3376081104  3.12E-06
 SMEAGOL DEBUG| Number of electrons in the unit cell =      1184.0081582222
    61 Broy./SMGL  0.30E+00   78.1     0.00057994     -3518.3376144092 -6.30E-06
 SMEAGOL DEBUG| Number of electrons in the unit cell =      1184.0081585547
    62 Broy./SMGL  0.30E+00   78.9     0.00057999     -3518.3376152826 -8.73E-07
 SMEAGOL DEBUG| Number of electrons in the unit cell =      1184.0081586132
    63 Broy./SMGL  0.30E+00   76.6     0.00161374     -3518.3376197839 -4.50E-06
 SMEAGOL DEBUG| Number of electrons in the unit cell =      1184.0081564785
    64 Broy./SMGL  0.30E+00   77.0     0.00161393     -3518.3376102732  9.51E-06
 SMEAGOL DEBUG| Number of electrons in the unit cell =      1184.0081625464
    65 Broy./SMGL  0.30E+00   78.1     0.00001563     -3518.3376057668  4.51E-06
 SMEAGOL DEBUG| Number of electrons in the unit cell =      1184.0081596149
    66 Broy./SMGL  0.30E+00   77.4     0.00000617     -3518.3376377468 -3.20E-05
 SMEAGOL DEBUG| Number of electrons in the unit cell =      1184.0081567788
    67 Broy./SMGL  0.30E+00   76.3     0.00017546     -3518.3376164851  2.13E-05
 SMEAGOL DEBUG| Number of electrons in the unit cell =      1184.0081624862
    68 Broy./SMGL  0.30E+00   76.4     0.00017546     -3518.3376065237  9.96E-06
 SMEAGOL DEBUG| Number of electrons in the unit cell =      1184.0081602419
    69 Broy./SMGL  0.30E+00   78.7     0.00001563     -3518.3376196213 -1.31E-05
 SMEAGOL DEBUG| Number of electrons in the unit cell =      1184.0081608774
    70 Broy./SMGL  0.30E+00   76.5     0.00001604     -3518.3376141044  5.52E-06
 SMEAGOL DEBUG| Number of electrons in the unit cell =      1184.0081617228
    71 Broy./SMGL  0.30E+00   76.5     0.00053630     -3518.3376110134  3.09E-06
 SMEAGOL DEBUG| Number of electrons in the unit cell =      1184.0081703457
    72 Broy./SMGL  0.30E+00   77.3     0.00053636     -3518.3376206683 -9.65E-06
 SMEAGOL DEBUG| Number of electrons in the unit cell =      1184.0081637543
    73 Broy./SMGL  0.30E+00   78.0     0.00009836     -3518.3376289316 -8.26E-06
 SMEAGOL DEBUG| Number of electrons in the unit cell =      1184.0081635064
    74 Broy./SMGL  0.30E+00   76.5     0.00047494     -3518.3376053132  2.36E-05
 SMEAGOL DEBUG| Number of electrons in the unit cell =      1184.0081635026
    75 Broy./SMGL  0.30E+00   77.0     0.00047494     -3518.3376203216 -1.50E-05
 SMEAGOL DEBUG| Number of electrons in the unit cell =      1184.0081628004
    76 Broy./SMGL  0.30E+00   79.6     0.00005191     -3518.3376197125  6.09E-07
 SMEAGOL DEBUG| Number of electrons in the unit cell =      1184.0081625148
    77 Broy./SMGL  0.30E+00   76.6     0.00007053     -3518.3376155134  4.20E-06
 SMEAGOL DEBUG| Number of electrons in the unit cell =      1184.0081622001
    78 Broy./SMGL  0.30E+00   77.0     0.00007053     -3518.3376160758 -5.62E-07
 SMEAGOL DEBUG| Number of electrons in the unit cell =      1184.0081621680
    79 Broy./SMGL  0.30E+00   76.4     0.00000718     -3518.3376144423  1.63E-06
 SMEAGOL DEBUG| Number of electrons in the unit cell =      1184.0081619515
    80 Broy./SMGL  0.30E+00   78.0     0.00001475     -3518.3376145651 -1.23E-07
 SMEAGOL DEBUG| Number of electrons in the unit cell =      1184.0081600361
    81 Broy./SMGL  0.30E+00   76.8     0.00017546     -3518.3376131708  1.39E-06
 SMEAGOL DEBUG| Number of electrons in the unit cell =      1184.0081599737
    82 Broy./SMGL  0.30E+00   76.3     0.00011891     -3518.3376180549 -4.88E-06
 SMEAGOL DEBUG| Number of electrons in the unit cell =      1184.0081608358
    83 Broy./SMGL  0.30E+00   76.5     0.00011891     -3518.3376138819  4.17E-06
 SMEAGOL DEBUG| Number of electrons in the unit cell =      1184.0081613045
    84 Broy./SMGL  0.30E+00   77.6     0.00017546     -3518.3376148925 -1.01E-06
 SMEAGOL DEBUG| Number of electrons in the unit cell =      1184.0081613609
    85 Broy./SMGL  0.30E+00   76.2     0.00000479     -3518.3376153182 -4.26E-07
 SMEAGOL DEBUG| Number of electrons in the unit cell =      1184.0081618128
    86 Broy./SMGL  0.30E+00   76.0     0.00005185     -3518.3376142113  1.11E-06
 SMEAGOL DEBUG| Number of electrons in the unit cell =      1184.0081617895
    87 Broy./SMGL  0.30E+00   77.1     0.00005185     -3518.3376146574 -4.46E-07
 SMEAGOL DEBUG| Number of electrons in the unit cell =      1184.0081619080
    88 Broy./SMGL  0.30E+00   77.3     0.00011891     -3518.3376148590 -2.02E-07
 SMEAGOL DEBUG| Number of electrons in the unit cell =      1184.0081620878
    89 Broy./SMGL  0.30E+00   76.4     0.00011891     -3518.3376145475  3.11E-07
 SMEAGOL DEBUG| Number of electrons in the unit cell =      1184.0081621924
    90 Broy./SMGL  0.30E+00   76.1     0.00053630     -3518.3376149221 -3.75E-07
 SMEAGOL DEBUG| Number of electrons in the unit cell =      1184.0081607908
    91 Broy./SMGL  0.30E+00   77.2     0.00053631     -3518.3376135926  1.33E-06
 SMEAGOL DEBUG| Number of electrons in the unit cell =      1184.0081641204
    92 Broy./SMGL  0.30E+00   77.6     0.00017546     -3518.3376182831 -4.69E-06
 SMEAGOL DEBUG| Number of electrons in the unit cell =      1184.0081620081
    93 Broy./SMGL  0.30E+00   76.3     0.00001563     -3518.3376151090  3.17E-06
 SMEAGOL DEBUG| Number of electrons in the unit cell =      1184.0081615498
    94 Broy./SMGL  0.30E+00   77.2     0.00085175     -3518.3376142282  8.81E-07
 SMEAGOL DEBUG| Number of electrons in the unit cell =      1184.0081615210
    95 Broy./SMGL  0.30E+00   77.7     0.00085175     -3518.3376141159  1.12E-07
 SMEAGOL DEBUG| Number of electrons in the unit cell =      1184.0081617327
    96 Broy./SMGL  0.30E+00   76.3     0.00001367     -3518.3376144446 -3.29E-07
 SMEAGOL DEBUG| Number of electrons in the unit cell =      1184.0081618019
    97 Broy./SMGL  0.30E+00   76.5     0.00011891     -3518.3376144384  6.24E-09
 SMEAGOL DEBUG| Number of electrons in the unit cell =      1184.0081618880
    98 Broy./SMGL  0.30E+00   77.1     0.00009836     -3518.3376150887 -6.50E-07
 SMEAGOL DEBUG| Number of electrons in the unit cell =      1184.0081624078
    99 Broy./SMGL  0.30E+00   76.7     0.00047494     -3518.3376138252  1.26E-06
 SMEAGOL DEBUG| Number of electrons in the unit cell =      1184.0081623049
   100 Broy./SMGL  0.30E+00   77.3     0.00047494     -3518.3376156907 -1.87E-06
 SMEAGOL DEBUG| Number of electrons in the unit cell =      1184.0081633400
   101 Broy./SMGL  0.30E+00   77.3     0.00057999     -3518.3376164032 -7.13E-07
 SMEAGOL DEBUG| Number of electrons in the unit cell =      1184.0081632059
   102 Broy./SMGL  0.30E+00   76.7     0.00057999     -3518.3376181476 -1.74E-06
 SMEAGOL DEBUG| Number of electrons in the unit cell =      1184.0081624974
   103 Broy./SMGL  0.30E+00   76.9     0.00015880     -3518.3376174587  6.89E-07
 SMEAGOL DEBUG| Number of electrons in the unit cell =      1184.0081623451
   104 Broy./SMGL  0.30E+00   76.5     0.00000741     -3518.3376150797  2.38E-06
 SMEAGOL DEBUG| Number of electrons in the unit cell =      1184.0081628077
   105 Broy./SMGL  0.30E+00   77.1     0.00000486     -3518.3376135817  1.50E-06
 SMEAGOL DEBUG| Number of electrons in the unit cell =      1184.0081622512
   106 Broy./SMGL  0.30E+00   76.9     0.00000495     -3518.3376165148 -2.93E-06
 SMEAGOL DEBUG| Number of electrons in the unit cell =      1184.0081621065
   107 Broy./SMGL  0.30E+00   77.3     0.00000002     -3518.3376152344  1.28E-06

  *** SCF run converged in   107 steps ***


  Electronic density on regular grids:      -1184.0081621065       -0.0081621065
  Core density on regular grids:             1183.9999998085       -0.0000001915
  Total charge density on r-space grids:       -0.0081622980
  Total charge density g-space grids:          -0.0081622980

  Overlap energy of the core charge distribution:               0.00001347459308
  Self energy of the core charge distribution:              -6148.38221378166963
  Core Hamiltonian energy:                                   1942.97681342472629
[...]
     13       Au     1      11.000         11.000                         0.000
     14       Au     1      11.000         11.000                         0.000
     15       Au     1      11.000         11.000                         0.000
     16       Au     1      11.000         11.000                         0.000
     17       Au     1      11.000         11.001                        -0.001
     18       Au     1      11.000         11.001                        -0.001
     19       Au     1      11.000         11.000                        -0.000
     20       Au     1      11.000         11.001                        -0.001
     21       Au     1      11.000         11.000                        -0.000
     22       Au     1      11.000         11.000                        -0.000
     23       Au     1      11.000         11.000                        -0.000
     24       Au     1      11.000         11.001                        -0.001
     25       Au     1      11.000         10.998                         0.002
     26       Au     1      11.000         10.998                         0.002
     27       Au     1      11.000         10.998                         0.002
     28       Au     1      11.000         10.998                         0.002
     29       Au     1      11.000         11.001                        -0.001
     30       Au     1      11.000         10.998                         0.002
     31       Au     1      11.000         10.998                         0.002
     32       Au     1      11.000         10.998                         0.002
     33       Au     1      11.000         11.000                         0.000
     34       Au     1      11.000         11.000                         0.000
     35       Au     1      11.000         11.000                         0.000
     36       Au     1      11.000         10.999                         0.001
     37       Au     1      11.000         11.000                        -0.000
     38       Au     1      11.000         11.000                        -0.000
     39       Au     1      11.000         11.000                         0.000
     40       Au     1      11.000         10.999                         0.001
     41       Au     1      11.000         10.985                         0.015
     42       Au     1      11.000         10.983                         0.017
     43       Au     1      11.000         10.997                         0.003
     44       Au     1      11.000         10.997                         0.003
     45       Au     1      11.000         10.998                         0.002
     46       Au     1      11.000         10.985                         0.015
     47       Au     1      11.000         10.997                         0.003
     48       Au     1      11.000         10.997                         0.003
     49       Au     1      11.000         11.039                        -0.039
     50       Au     1      11.000         11.039                        -0.039
     51       Au     1      11.000         10.975                         0.025
     52       Au     1      11.000         11.036                        -0.036
     53       Au     1      11.000         10.980                         0.020
     54       Au     1      11.000         10.979                         0.021
     55       Au     1      11.000         10.975                         0.025
     56       Au     1      11.000         11.036                        -0.036
     57       S      2       6.000          5.984                         0.016
     58       C      3       4.000          4.024                        -0.024
     59       H      4       1.000          0.959                         0.041
     60       H      4       1.000          0.958                         0.042
     61       C      3       4.000          4.046                        -0.046
     62       C      3       4.000          4.048                        -0.048
     63       C      3       4.000          4.047                        -0.047
     64       C      3       4.000          4.047                        -0.047
     65       H      4       1.000          0.958                         0.042
     66       H      4       1.000          0.959                         0.041
     67       C      3       4.000          4.024                        -0.024
     68       S      2       6.000          5.985                         0.015
     69       Au     1      11.000         11.040                        -0.040
     70       Au     1      11.000         11.040                        -0.040
     71       Au     1      11.000         10.976                         0.024
     72       Au     1      11.000         11.036                        -0.036
     73       Au     1      11.000         10.980                         0.020
     74       Au     1      11.000         10.980                         0.020
     75       Au     1      11.000         10.975                         0.025
     76       Au     1      11.000         11.036                        -0.036
     77       Au     1      11.000         10.985                         0.015
     78       Au     1      11.000         10.983                         0.017
     79       Au     1      11.000         10.997                         0.003
     80       Au     1      11.000         10.997                         0.003
     81       Au     1      11.000         11.000                        -0.000
     82       Au     1      11.000         10.985                         0.015
     83       Au     1      11.000         10.997                         0.003
     84       Au     1      11.000         10.997                         0.003
     85       Au     1      11.000         10.997                         0.003
     86       Au     1      11.000         10.997                         0.003
     87       Au     1      11.000         10.997                         0.003
     88       Au     1      11.000         10.997                         0.003
     89       Au     1      11.000         10.997                         0.003
     90       Au     1      11.000         10.997                         0.003
     91       Au     1      11.000         10.997                         0.003
     92       Au     1      11.000         10.997                         0.003
     93       Au     1      11.000         11.000                        -0.000
     94       Au     1      11.000         11.000                        -0.000
     95       Au     1      11.000         11.000                        -0.000
     96       Au     1      11.000         11.000                        -0.000
     97       Au     1      11.000         11.001                        -0.001
     98       Au     1      11.000         11.000                        -0.000
     99       Au     1      11.000         11.000                        -0.000
    100       Au     1      11.000         11.000                        -0.000
    101       Au     1      11.000         11.000                        -0.000
    102       Au     1      11.000         11.000                        -0.000
    103       Au     1      11.000         11.000                        -0.000
    104       Au     1      11.000         11.000                        -0.000
    105       Au     1      11.000         11.000                        -0.000
    106       Au     1      11.000         11.000                        -0.000
    107       Au     1      11.000         11.000                        -0.000
    108       Au     1      11.000         11.000                        -0.000
    109       Au     1      11.000         11.000                         0.000
    110       Au     1      11.000         11.000                         0.000
    111       Au     1      11.000         11.000                         0.000
    112       Au     1      11.000         11.000                        -0.000
    113       Au     1      11.000         11.000                        -0.000
    114       Au     1      11.000         11.000                        -0.000
    115       Au     1      11.000         11.000                         0.000
    116       Au     1      11.000         11.000                        -0.000

  Total Charge                                                           -0.008
 !-----------------------------------------------------------------------------!
 Calculating transmission coefficient

 ENERGY| Total FORCE_EVAL ( QS ) energy [a.u.]:            -3518.337615234383065

 -------------------------------------------------------------------------------
 -                                                                             -
 -                                DBCSR STATISTICS                             -
 -                                                                             -
 -------------------------------------------------------------------------------
 COUNTER                                    TOTAL       BLAS       SMM       ACC
 flops inhomo. stacks                           0       0.0%      0.0%      0.0%
 flops total                         0.000000E+00       0.0%      0.0%      0.0%
 flops max/rank                      0.000000E+00       0.0%      0.0%      0.0%
 matmuls inhomo. stacks                         0       0.0%      0.0%      0.0%
 matmuls total                                  0       0.0%      0.0%      0.0%
 number of processed stacks                     0       0.0%      0.0%      0.0%
 average stack size                                     0.0       0.0       0.0
 marketing flops                     0.000000E+00
 -------------------------------------------------------------------------------
 -                                                                             -
 -                      DBCSR MESSAGE PASSING PERFORMANCE                      -
 -                                                                             -
 -------------------------------------------------------------------------------
 ROUTINE             CALLS      AVE VOLUME [Bytes]
 MP_Bcast                1                     12.
 MP_Allreduce        10933                      8.
 MP_Alltoall          7667                 173532.
 -------------------------------------------------------------------------------

 -------------------------------------------------------------------------------
 -                                                                             -
 -                                DBM STATISTICS                               -
 -                                                                             -
 -------------------------------------------------------------------------------
    M  x    N  x    K                                          COUNT     PERCENT
 -------------------------------------------------------------------------------

 -------------------------------------------------------------------------------
 -                                                                             -
 -                                GRID STATISTICS                              -
 -                                                                             -
 -------------------------------------------------------------------------------
 LP    KERNEL             BACKEND                              COUNT     PERCENT
 4     collocate ortho    REF                               10970100      46.97%
 4     integrate ortho    REF                               10868525      46.54%
 3     collocate ortho    REF                                 480276       2.06%
 3     integrate ortho    REF                                 475829       2.04%
 0     collocate general  REF                                 250560       1.07%
 0     integrate general  REF                                 222720       0.95%
 2     collocate ortho    REF                                  42768       0.18%
 2     integrate ortho    REF                                  42372       0.18%
 -------------------------------------------------------------------------------

 MEMORY| Estimated peak process memory [MiB]                                1037

 -------------------------------------------------------------------------------
 ----                             MULTIGRID INFO                            ----
 -------------------------------------------------------------------------------
 count for grid        1:        1699776          cutoff [a.u.]          200.00
 count for grid        2:        2260471          cutoff [a.u.]           66.67
 count for grid        3:        1204019          cutoff [a.u.]           22.22
 count for grid        4:         414152          cutoff [a.u.]            7.41
 total gridlevel count  :        5578418

 -------------------------------------------------------------------------------
 -                                                                             -
 -                         MESSAGE PASSING PERFORMANCE                         -
 -                                                                             -
 -------------------------------------------------------------------------------

 ROUTINE             CALLS      AVE VOLUME [Bytes]
 MP_Group                5
 MP_Bcast            79813                  15681.
 MP_Allreduce         8873                 917557.
 MP_Sync              1294
 MP_Alltoall          1951              674533358.
 MP_ISendRecv       102770                   4000.
 MP_Wait            127212
 MP_ISend            35131                  37295.
 MP_IRecv            35229                  37199.
 MP_Recv             10098                 271360.
 MP_Write_All            2                 248850.
 -------------------------------------------------------------------------------


 -------------------------------------------------------------------------------
 -                                                                             -
 -                           R E F E R E N C E S                               -
 -                                                                             -
 -------------------------------------------------------------------------------
 
 CP2K version 2022.1 (Development Version), the CP2K developers group (2022).
 CP2K is freely available from https://www.cp2k.org/ .

 Kuehne,Thomas D.; Iannuzzi,Marcella; Del Ben,Mauro;
 Rybkin,Vladimir V.; Seewald,Patrick; Stein,Frederick; Laino,Teodoro;
 Khaliullin,Rustam Z.; Schuett,Ole; Schiffmann,Florian; Golze,Dorothea;
 Wilhelm,Jan; Chulkov,Sergey; Bani-Hashemian,Mohammad Hossein;
 Weber,Valery; Borstnik,Urban; Taillefumier,Mathieu;
 Jakobovits,Alice Shoshana; Lazzaro,Alfio; Pabst,Hans; Mueller,Tiziano;
 Schade,Robert; Guidon,Manuel; Andermatt,Samuel; Holmberg,Nico;
 Schenter,Gregory K.; Hehn,Anna; Bussy,Augustin; Belleflamme,Fabian;
 Tabacchi,Gloria; Gloess,Andreas; Lass,Michael; Bethune,Iain;
 Mundy,Christopher J.; Plessl,Christian; Watkins,Matt;
 VandeVondele,Joost; Krack,Matthias; Hutter,Juerg. 
 The Journal of Chemical Physics, 152 (19), (2020). 
 CP2K: An electronic structure and molecular dynamics software package -
 Quickstep: Efficient and accurate electronic structure calculations.
 https://doi.org/10.1063/5.0007045

 Togo, Atsushi; Tanaka, Isao. arXiv, 1808.01590 (2018). 
 Spglib : a software library for crystal symmetry search.
 https://doi.org/xxx

 Schuett, Ole; Messmer, Peter; Hutter, Juerg; VandeVondele, Joost. 
 Electronic Structure Calculations on Graphics Processing Units, John
 Wiley & Sons, Ltd, 173-190 (2016). 
 GPU-Accelerated Sparse Matrix-Matrix Multiplication for
 Linear Scaling Density Functional Theory.
 https://doi.org/10.1002/9781118670712.ch8

 Heinecke, A; Henry, G; Hutchinson, M; Pabst, H. 
 Proceedings of Intl. Supercomputing Conference, 981-991 (2016). 
 LIBXSMM: Accelerating Small Matrix Multiplications
 by Runtime Code Generation.
 https://doi.org/10.1109/SC.2016.83

 Borstnik, U; VandeVondele, J; Weber, V; Hutter, J. 
 PARALLEL COMPUTING, 40 (5-6), 47-58 (2014). 
 Sparse matrix multiplication: The distributed block-compressed sparse
 row library.
 https://doi.org/10.1016/j.parco.2014.03.012

 Hutter, J; Iannuzzi, M; Schiffmann, F; VandeVondele, J. 
 WIREs Comput Mol Sci., 4 (1), 15-25 (2014). 
 CP2K: atomistic simulations of condensed matter systems.
 https://doi.org/10.1002/wcms.1159

 VandeVondele, J; Hutter, J. 
 JOURNAL OF CHEMICAL PHYSICS, 127 (11), 114105 (2007). 
 Gaussian basis sets for accurate calculations on molecular systems in
 gas and condensed phases.
 https://doi.org/10.1063/1.2770708

 Krack, M. 
 THEORETICAL CHEMISTRY ACCOUNTS, 114 (1-3), 145-152 (2005). 
 Pseudopotentials for H to Kr optimized for gradient-corrected
 exchange-correlation functionals.
 https://doi.org/10.1007/s00214-005-0655-y

 VandeVondele, J; Krack, M; Mohamed, F; Parrinello, M; Chassaing, T;
 Hutter, J. COMPUTER PHYSICS COMMUNICATIONS, 167 (2), 103-128 (2005). 
 QUICKSTEP: Fast and accurate density functional calculations using a
 mixed Gaussian and plane waves approach.
 https://doi.org/10.1016/j.cpc.2004.12.014

 Frigo, M; Johnson, SG. 
 PROCEEDINGS OF THE IEEE, 93 (2), 216-231 (2005). 
 The design and implementation of FFTW3.
 https://doi.org/10.1109/JPROC.2004.840301

 Hartwigsen, C; Goedecker, S; Hutter, J. 
 PHYSICAL REVIEW B, 58 (7), 3641-3662 (1998). 
 Relativistic separable dual-space Gaussian pseudopotentials from H to Rn.
 https://doi.org/10.1103/PhysRevB.58.3641

 Lippert, G; Hutter, J; Parrinello, M. 
 MOLECULAR PHYSICS, 92 (3), 477-487 (1997). 
 A hybrid Gaussian and plane wave density functional scheme.
 https://doi.org/10.1080/002689797170220

 Goedecker, S; Teter, M; Hutter, J. 
 PHYSICAL REVIEW B, 54 (3), 1703-1710 (1996). 
 Separable dual-space Gaussian pseudopotentials.
 https://doi.org/10.1103/PhysRevB.54.1703


 -------------------------------------------------------------------------------
 -                                                                             -
 -                                T I M I N G                                  -
 -                                                                             -
 -------------------------------------------------------------------------------
 SUBROUTINE                       CALLS  ASD         SELF TIME        TOTAL TIME
                                MAXIMUM       AVERAGE  MAXIMUM  AVERAGE  MAXIMUM
 CP2K                                 1  1.0    0.043    1.839 8501.247 8501.272
 qs_energies                          1  2.0    0.000    0.000 8499.214 8499.250
 run_smeagol_emtrans                108  6.0 8170.230 8270.101 8462.186 8469.652
 scf_env_do_scf                       1  3.0    0.000    0.000 8294.579 8294.641
 scf_env_do_scf_inner_loop          107  4.0    0.009    0.486 8294.578 8294.640
 qs_scf_new_mos_kp                  107  5.0    0.002    0.004 8260.048 8267.484
 -------------------------------------------------------------------------------

 The number of warnings for this run is : 0
 
 -------------------------------------------------------------------------------
  **** **** ******  **  PROGRAM ENDED AT                 2023-03-14 05:26:59.361
 ***** ** ***  *** **   PROGRAM RAN ON                     cn1002.scarf.rl.ac.uk
 **    ****   ******    PROGRAM RAN BY                                 scarf1157
 ***** **    ** ** **   PROGRAM PROCESS ID                                 34460
  **** **  *******  **  PROGRAM STOPPED IN /work4/scd/scarf1157/work/testing/cp2
                                           k-smeagol/bdt/cp2k/hollow-site/transp
                                           ort-cp2k/5-4/geometry-ordered/3x3-4/s
                                           z/bulk_layers-4/transmission/exp/dzvp
                                           /sergey/kpoints_bulk-4-4-100_em-4-4-1
                                           _hlb-t-auto
