 DBCSR| Multiplication driver                                               BLAS
 DBCSR| Multrec recursion limit                                              512
 DBCSR| Multiplication stack size                                           1000
 DBCSR| Maximum elements for images                                    UNLIMITED
 DBCSR| Multiplicative factor virtual images                                   1
 DBCSR| Multiplication size stacks                                             3
 DBCSR| Number of 3D layers                                               SINGLE
 DBCSR| Use MPI memory allocation                                              T
 DBCSR| Use RMA algorithm                                                      F
 DBCSR| Use Communication thread                                               T
 DBCSR| Communication thread load                                             87


  **** **** ******  **  PROGRAM STARTED AT               2022-08-13 06:48:00.598
 ***** ** ***  *** **   PROGRAM STARTED ON              cx3-8-1.cx3.hpc.ic.ac.uk
 **    ****   ******    PROGRAM STARTED BY                                jj1921
 ***** **    ** ** **   PROGRAM PROCESS ID                                646278
  **** **  *******  **  PROGRAM STARTED IN /rds/general/user/jj1921/home/junctio
                                           n/lateral/lateral_12/elec

 CP2K| version string:                                          CP2K version 6.1
 CP2K| source code revision number:                                    svn:18464
 CP2K| cp2kflags: libint fftw3 parallel mpi3 scalapack has_no_shared_glibc max_c
 CP2K|            ontr=4 mkl
 CP2K| is freely available from                            https://www.cp2k.org/
 CP2K| Program compiled at                          Thu 12 Jul 13:52:12 BST 2018
 CP2K| Program compiled on                                  build-2.hpc.ic.ac.uk
 CP2K| Program compiled for                                   Linux-x86-64-intel
 CP2K| Data directory path                                   /tmp/cp2k/cp2k/data
 CP2K| Input file name                                           Au_junction.inp
 
 GLOBAL| Force Environment number                                              1
 GLOBAL| Basis set file name            /rds/general/user/jj1921/home/BASIS_COM_
 GLOBAL| Potential file name            /rds/general/user/jj1921/home/GTH_POTENT
 GLOBAL| MM Potential file name                                     MM_POTENTIAL
 GLOBAL| Coordinate file name                                      __STD_INPUT__
 GLOBAL| Method name                                                        CP2K
 GLOBAL| Project name                                                Au_junction
 GLOBAL| Preferred FFT library                                             FFTW3
 GLOBAL| Preferred diagonalization lib.                                       SL
 GLOBAL| Run type                                                         ENERGY
 GLOBAL| All-to-all communication in single precision                          F
 GLOBAL| FFTs using library dependent lengths                                  F
 GLOBAL| Global print level                                               MEDIUM
 GLOBAL| Total number of message passing processes                           200
 GLOBAL| Number of threads for this process                                    1
 GLOBAL| This output is from process                                           0
 GLOBAL| CPU model name :  AMD EPYC 7742 64-Core Processor

 MEMORY| system memory details [Kb]
 MEMORY|                        rank 0           min           max       average
 MEMORY| MemTotal           4215149732    4215149732    4215149732    4215149732
 MEMORY| MemFree            3856403984    3856403984    3856403984    3856403984
 MEMORY| Buffers                  2132          2132          2132          2132
 MEMORY| Cached                1388780       1388780       1388780       1388780
 MEMORY| Slab                  2295148       2295148       2295148       2295148
 MEMORY| SReclaimable           565652        565652        565652        565652
 MEMORY| MemLikelyFree      3858360548    3858360548    3858360548    3858360548


 *** Fundamental physical constants (SI units) ***

 *** Literature: B. J. Mohr and B. N. Taylor,
 ***             CODATA recommended values of the fundamental physical
 ***             constants: 2006, Web Version 5.1
 ***             http://physics.nist.gov/constants

 Speed of light in vacuum [m/s]                             2.99792458000000E+08
 Magnetic constant or permeability of vacuum [N/A**2]       1.25663706143592E-06
 Electric constant or permittivity of vacuum [F/m]          8.85418781762039E-12
 Planck constant (h) [J*s]                                  6.62606896000000E-34
 Planck constant (h-bar) [J*s]                              1.05457162825177E-34
 Elementary charge [C]                                      1.60217648700000E-19
 Electron mass [kg]                                         9.10938215000000E-31
 Electron g factor [ ]                                     -2.00231930436220E+00
 Proton mass [kg]                                           1.67262163700000E-27
 Fine-structure constant                                    7.29735253760000E-03
 Rydberg constant [1/m]                                     1.09737315685270E+07
 Avogadro constant [1/mol]                                  6.02214179000000E+23
 Boltzmann constant [J/K]                                   1.38065040000000E-23
 Atomic mass unit [kg]                                      1.66053878200000E-27
 Bohr radius [m]                                            5.29177208590000E-11

 *** Conversion factors ***

 [u] -> [a.u.]                                              1.82288848426455E+03
 [Angstrom] -> [Bohr] = [a.u.]                              1.88972613288564E+00
 [a.u.] = [Bohr] -> [Angstrom]                              5.29177208590000E-01
 [a.u.] -> [s]                                              2.41888432650478E-17
 [a.u.] -> [fs]                                             2.41888432650478E-02
 [a.u.] -> [J]                                              4.35974393937059E-18
 [a.u.] -> [N]                                              8.23872205491840E-08
 [a.u.] -> [K]                                              3.15774647902944E+05
 [a.u.] -> [kJ/mol]                                         2.62549961709828E+03
 [a.u.] -> [kcal/mol]                                       6.27509468713739E+02
 [a.u.] -> [Pa]                                             2.94210107994716E+13
 [a.u.] -> [bar]                                            2.94210107994716E+08
 [a.u.] -> [atm]                                            2.90362800883016E+08
 [a.u.] -> [eV]                                             2.72113838565563E+01
 [a.u.] -> [Hz]                                             6.57968392072181E+15
 [a.u.] -> [1/cm] (wave numbers)                            2.19474631370540E+05
 [a.u./Bohr**2] -> [1/cm]                                   5.14048714338585E+03
 

 CELL_TOP| Volume [angstrom^3]:                                        34631.098
 CELL_TOP| Vector a [angstrom    35.624     0.000     0.000    |a| =      35.624
 CELL_TOP| Vector b [angstrom     0.000    30.851     0.000    |b| =      30.851
 CELL_TOP| Vector c [angstrom     0.000     0.000    31.511    |c| =      31.511
 CELL_TOP| Angle (b,c), alpha [degree]:                                   90.000
 CELL_TOP| Angle (a,c), beta  [degree]:                                   90.000
 CELL_TOP| Angle (a,b), gamma [degree]:                                   90.000
 CELL_TOP| Requested initial symmetry:                              ORTHORHOMBIC
 CELL_TOP| Numerically orthorhombic:                                         YES
 
 GENERATE|  Preliminary Number of Bonds generated:                             0
 GENERATE|  Achieved consistency in connectivity generation.

 CELL| Volume [angstrom^3]:                                            34631.098
 CELL| Vector a [angstrom]:      35.624     0.000     0.000    |a| =      35.624
 CELL| Vector b [angstrom]:       0.000    30.851     0.000    |b| =      30.851
 CELL| Vector c [angstrom]:       0.000     0.000    31.511    |c| =      31.511
 CELL| Angle (b,c), alpha [degree]:                                       90.000
 CELL| Angle (a,c), beta  [degree]:                                       90.000
 CELL| Angle (a,b), gamma [degree]:                                       90.000
 CELL| Requested initial symmetry:                                  ORTHORHOMBIC
 CELL| Numerically orthorhombic:                                             YES

 CELL_REF| Volume [angstrom^3]:                                        34631.098
 CELL_REF| Vector a [angstrom    35.624     0.000     0.000    |a| =      35.624
 CELL_REF| Vector b [angstrom     0.000    30.851     0.000    |b| =      30.851
 CELL_REF| Vector c [angstrom     0.000     0.000    31.511    |c| =      31.511
 CELL_REF| Angle (b,c), alpha [degree]:                                   90.000
 CELL_REF| Angle (a,c), beta  [degree]:                                   90.000
 CELL_REF| Angle (a,b), gamma [degree]:                                   90.000
 CELL_REF| Requested initial symmetry:                              ORTHORHOMBIC
 CELL_REF| Numerically orthorhombic:                                         YES

 *** WARNING in cryssym.F:163 :: Symmetry library SPGLIB not available ***


 *******************************************************************************
                                    Kpoints
 *******************************************************************************
 BRILLOUIN| K-point scheme                                        Monkhorst-Pack
 BRILLOUIN| K-Point grid                                             2    2    1
 BRILLOUIN| Accuracy in Symmetry determination                      0.100000E-05
 BRILLOUIN| K-Point point group symmetrization                               OFF
 BRILLOUIN| Wavefunction type                                            COMPLEX
 BRILLOUIN| Use full k-point grid     
 BRILLOUIN| List of Kpoints [2 Pi/Bohr]                                        4
 BRILLOUIN| Number           Weight            X              Y              Z
 BRILLOUIN|     1           0.25000       -0.25000       -0.25000        0.00000
 BRILLOUIN|     2           0.25000       -0.25000        0.25000        0.00000
 BRILLOUIN|     3           0.25000        0.25000       -0.25000        0.00000
 BRILLOUIN|     4           0.25000        0.25000        0.25000        0.00000
 *******************************************************************************

 *******************************************************************************
 *******************************************************************************
 **                                                                           **
 **     #####                         ##              ##                      **
 **    ##   ##            ##          ##              ##                      **
 **   ##     ##                       ##            ######                    **
 **   ##     ##  ##   ##  ##   #####  ##  ##   ####   ##    #####    #####    **
 **   ##     ##  ##   ##  ##  ##      ## ##   ##      ##   ##   ##  ##   ##   **
 **   ##  ## ##  ##   ##  ##  ##      ####     ###    ##   ######   ######    **
 **    ##  ###   ##   ##  ##  ##      ## ##      ##   ##   ##       ##        **
 **     #######   #####   ##   #####  ##  ##  ####    ##    #####   ##        **
 **           ##                                                    ##        **
 **                                                                           **
 **                                                ... make the atoms dance   **
 **                                                                           **
 **            Copyright (C) by CP2K developers group (2000 - 2018)           **
 **                                                                           **
 *******************************************************************************

 DFT| Spin restricted Kohn-Sham (RKS) calculation                            RKS
 DFT| Multiplicity                                                             1
 DFT| Number of spin states                                                    1
 DFT| Charge                                                                   0
 DFT| Self-interaction correction (SIC)                                       NO
 DFT| Cutoffs: density                                              1.000000E-10
 DFT|          gradient                                             1.000000E-10
 DFT|          tau                                                  1.000000E-10
 DFT|          cutoff_smoothing_range                               0.000000E+00
 DFT| XC density smoothing                                                  NONE
 DFT| XC derivatives                                                          PW
 FUNCTIONAL| ROUTINE=NEW
 FUNCTIONAL| PBE:
 FUNCTIONAL| J.P.Perdew, K.Burke, M.Ernzerhof, Phys. Rev. Letter, vol. 77, n 18,
 FUNCTIONAL|  pp. 3865-3868, (1996){spin unpolarized}                           

 QS| Method:                                                                 GPW
 QS| Density plane wave grid type                        NON-SPHERICAL FULLSPACE
 QS| Number of grid levels:                                                    4
 QS| Density cutoff [a.u.]:                                                250.0
 QS| Multi grid cutoff [a.u.]: 1) grid level                               250.0
 QS|                           2) grid level                                83.3
 QS|                           3) grid level                                27.8
 QS|                           4) grid level                                 9.3
 QS| Grid level progression factor:                                          3.0
 QS| Relative density cutoff [a.u.]:                                        20.0
 QS| Consistent realspace mapping and integration 
 QS| Interaction thresholds: eps_pgf_orb:                                1.0E-07
 QS|                         eps_filter_matrix:                          0.0E+00
 QS|                         eps_core_charge:                            1.0E-16
 QS|                         eps_rho_gspace:                             1.0E-14
 QS|                         eps_rho_rspace:                             1.0E-14
 QS|                         eps_gvg_rspace:                             1.0E-07
 QS|                         eps_ppl:                                    1.0E-02
 QS|                         eps_ppnl:                                   1.0E-09


 ATOMIC KIND INFORMATION

  1. Atomic kind: Au                                    Number of atoms:     720

     Orbital Basis Set                                    TZVP-MOLOPT-SR-GTH-q11

       Number of orbital shell sets:                                           1
       Number of orbital shells:                                              10
       Number of primitive Cartesian functions:                                5
       Number of Cartesian basis functions:                                   40
       Number of spherical basis functions:                                   34
       Norm type:                                                              2

       Normalised Cartesian orbitals:

                        Set   Shell   Orbital            Exponent    Coefficient

                          1       1    2s                2.950008       0.049750
                                                         1.563057       0.267328
                                                         0.666664      -0.551598
                                                         0.251083       0.072002
                                                         0.081714       0.114867

                          1       2    3s                2.950008      -0.078739
                                                         1.563057       0.378930
                                                         0.666664      -0.110770
                                                         0.251083      -0.245520
                                                         0.081714      -0.004637

                          1       3    4s                2.950008      -0.053770
                                                         1.563057      -0.237101
                                                         0.666664       0.396801
                                                         0.251083      -0.074391
                                                         0.081714       0.097129

                          1       4    3px               2.950008      -0.287410
                                                         1.563057      -0.046810
                                                         0.666664       0.090038
                                                         0.251083       0.061414
                                                         0.081714       0.048416
                          1       4    3py               2.950008      -0.287410
                                                         1.563057      -0.046810
                                                         0.666664       0.090038
                                                         0.251083       0.061414
                                                         0.081714       0.048416
                          1       4    3pz               2.950008      -0.287410
                                                         1.563057      -0.046810
                                                         0.666664       0.090038
                                                         0.251083       0.061414
                                                         0.081714       0.048416

                          1       5    4px               2.950008      -0.031230
                                                         1.563057      -0.259325
                                                         0.666664       0.363713
                                                         0.251083      -0.386040
                                                         0.081714       0.025850
                          1       5    4py               2.950008      -0.031230
                                                         1.563057      -0.259325
                                                         0.666664       0.363713
                                                         0.251083      -0.386040
                                                         0.081714       0.025850
                          1       5    4pz               2.950008      -0.031230
                                                         1.563057      -0.259325
                                                         0.666664       0.363713
                                                         0.251083      -0.386040
                                                         0.081714       0.025850

                          1       6    5px               2.950008      -0.634652
                                                         1.563057      -0.963299
                                                         0.666664       0.995880
                                                         0.251083       0.070517
                                                         0.081714      -0.016209
                          1       6    5py               2.950008      -0.634652
                                                         1.563057      -0.963299
                                                         0.666664       0.995880
                                                         0.251083       0.070517
                                                         0.081714      -0.016209
                          1       6    5pz               2.950008      -0.634652
                                                         1.563057      -0.963299
                                                         0.666664       0.995880
                                                         0.251083       0.070517
                                                         0.081714      -0.016209

                          1       7    4dx2              2.950008       0.572996
                                                         1.563057       0.322251
                                                         0.666664       0.300173
                                                         0.251083       0.099388
                                                         0.081714      -0.001351
                          1       7    4dxy              2.950008       0.992458
                                                         1.563057       0.558156
                                                         0.666664       0.519915
                                                         0.251083       0.172145
                                                         0.081714      -0.002339
                          1       7    4dxz              2.950008       0.992458
                                                         1.563057       0.558156
                                                         0.666664       0.519915
                                                         0.251083       0.172145
                                                         0.081714      -0.002339
                          1       7    4dy2              2.950008       0.572996
                                                         1.563057       0.322251
                                                         0.666664       0.300173
                                                         0.251083       0.099388
                                                         0.081714      -0.001351
                          1       7    4dyz              2.950008       0.992458
                                                         1.563057       0.558156
                                                         0.666664       0.519915
                                                         0.251083       0.172145
                                                         0.081714      -0.002339
                          1       7    4dz2              2.950008       0.572996
                                                         1.563057       0.322251
                                                         0.666664       0.300173
                                                         0.251083       0.099388
                                                         0.081714      -0.001351

                          1       8    5dx2              2.950008      -0.221363
                                                         1.563057      -0.288021
                                                         0.666664      -0.277201
                                                         0.251083       0.041335
                                                         0.081714       0.017516
                          1       8    5dxy              2.950008      -0.383413
                                                         1.563057      -0.498867
                                                         0.666664      -0.480127
                                                         0.251083       0.071593
                                                         0.081714       0.030338
                          1       8    5dxz              2.950008      -0.383413
                                                         1.563057      -0.498867
                                                         0.666664      -0.480127
                                                         0.251083       0.071593
                                                         0.081714       0.030338
                          1       8    5dy2              2.950008      -0.221363
                                                         1.563057      -0.288021
                                                         0.666664      -0.277201
                                                         0.251083       0.041335
                                                         0.081714       0.017516
                          1       8    5dyz              2.950008      -0.383413
                                                         1.563057      -0.498867
                                                         0.666664      -0.480127
                                                         0.251083       0.071593
                                                         0.081714       0.030338
                          1       8    5dz2              2.950008      -0.221363
                                                         1.563057      -0.288021
                                                         0.666664      -0.277201
                                                         0.251083       0.041335
                                                         0.081714       0.017516

                          1       9    6dx2              2.950008      -1.281149
                                                         1.563057       2.633116
                                                         0.666664       0.400943
                                                         0.251083      -0.047276
                                                         0.081714       0.007642
                          1       9    6dxy              2.950008      -2.219015
                                                         1.563057       4.560691
                                                         0.666664       0.694454
                                                         0.251083      -0.081884
                                                         0.081714       0.013236
                          1       9    6dxz              2.950008      -2.219015
                                                         1.563057       4.560691
                                                         0.666664       0.694454
                                                         0.251083      -0.081884
                                                         0.081714       0.013236
                          1       9    6dy2              2.950008      -1.281149
                                                         1.563057       2.633116
                                                         0.666664       0.400943
                                                         0.251083      -0.047276
                                                         0.081714       0.007642
                          1       9    6dyz              2.950008      -2.219015
                                                         1.563057       4.560691
                                                         0.666664       0.694454
                                                         0.251083      -0.081884
                                                         0.081714       0.013236
                          1       9    6dz2              2.950008      -1.281149
                                                         1.563057       2.633116
                                                         0.666664       0.400943
                                                         0.251083      -0.047276
                                                         0.081714       0.007642

                          1      10    5fx3              2.950008      -0.471653
                                                         1.563057       0.476248
                                                         0.666664      -0.241506
                                                         0.251083      -0.039345
                                                         0.081714      -0.001389
                          1      10    5fx2y             2.950008      -1.054649
                                                         1.563057       1.064923
                                                         0.666664      -0.540024
                                                         0.251083      -0.087977
                                                         0.081714      -0.003106
                          1      10    5fx2z             2.950008      -1.054649
                                                         1.563057       1.064923
                                                         0.666664      -0.540024
                                                         0.251083      -0.087977
                                                         0.081714      -0.003106
                          1      10    5fxy2             2.950008      -1.054649
                                                         1.563057       1.064923
                                                         0.666664      -0.540024
                                                         0.251083      -0.087977
                                                         0.081714      -0.003106
                          1      10    5fxyz             2.950008      -1.826705
                                                         1.563057       1.844501
                                                         0.666664      -0.935348
                                                         0.251083      -0.152381
                                                         0.081714      -0.005380
                          1      10    5fxz2             2.950008      -1.054649
                                                         1.563057       1.064923
                                                         0.666664      -0.540024
                                                         0.251083      -0.087977
                                                         0.081714      -0.003106
                          1      10    5fy3              2.950008      -0.471653
                                                         1.563057       0.476248
                                                         0.666664      -0.241506
                                                         0.251083      -0.039345
                                                         0.081714      -0.001389
                          1      10    5fy2z             2.950008      -1.054649
                                                         1.563057       1.064923
                                                         0.666664      -0.540024
                                                         0.251083      -0.087977
                                                         0.081714      -0.003106
                          1      10    5fyz2             2.950008      -1.054649
                                                         1.563057       1.064923
                                                         0.666664      -0.540024
                                                         0.251083      -0.087977
                                                         0.081714      -0.003106
                          1      10    5fz3              2.950008      -0.471653
                                                         1.563057       0.476248
                                                         0.666664      -0.241506
                                                         0.251083      -0.039345
                                                         0.081714      -0.001389

     GTH Potential information for                                   GTH-PBE-q11

       Description:                       Goedecker-Teter-Hutter pseudopotential
                                           Goedecker et al., PRB 54, 1703 (1996)
                                          Hartwigsen et al., PRB 58, 3641 (1998)
                                                      Krack, TCA 114, 145 (2005)

       Gaussian exponent of the core charge distribution:               1.436369
       Electronic configuration (s p d ...):                           1   0  10

       Parameters of the local part of the GTH pseudopotential:

                          rloc        C1          C2          C3          C4
                        0.590000   10.517179

       Parameters of the non-local part of the GTH pseudopotential:

                   l      r(l)      h(i,j,l)

                   0    0.543847    5.786811   -2.250680
                                   -2.250680    2.905615
                   1    0.609173    4.284049   -4.071285
                                   -4.071285    4.817210
                   2    0.437309   -7.403281    3.010193
                                    3.010193   -3.413238


 MOLECULE KIND INFORMATION


 All atoms are their own molecule, skipping detailed information


 TOTAL NUMBERS AND MAXIMUM NUMBERS

  Total number of            - Atomic kinds:                                   1
                             - Atoms:                                        720
                             - Shell sets:                                   720
                             - Shells:                                      7200
                             - Primitive Cartesian functions:               3600
                             - Cartesian basis functions:                  28800
                             - Spherical basis functions:                  24480

  Maximum angular momentum of- Orbital basis functions:                        3
                             - Local part of the GTH pseudopotential:          0
                             - Non-local part of the GTH pseudopotential:      4


 MODULE QUICKSTEP:  ATOMIC COORDINATES IN angstrom

  Atom  Kind  Element       X           Y           Z          Z(eff)       Mass

       1     1 Au  79    1.484323    0.856974    0.000000     11.00     196.9666
       2     1 Au  79    4.452970    0.856974    0.000000     11.00     196.9666
       3     1 Au  79    7.421616    0.856974    0.000000     11.00     196.9666
       4     1 Au  79   10.390262    0.856974    0.000000     11.00     196.9666
       5     1 Au  79   13.358909    0.856974    0.000000     11.00     196.9666
       6     1 Au  79   16.327555    0.856974    0.000000     11.00     196.9666
       7     1 Au  79   19.296202    0.856974    0.000000     11.00     196.9666
       8     1 Au  79   22.264848    0.856974    0.000000     11.00     196.9666
       9     1 Au  79   25.233494    0.856974    0.000000     11.00     196.9666
      10     1 Au  79   28.202141    0.856974    0.000000     11.00     196.9666
      11     1 Au  79   31.170787    0.856974    0.000000     11.00     196.9666
      12     1 Au  79   34.139434    0.856974    0.000000     11.00     196.9666
      13     1 Au  79    0.000000    3.427898    0.000000     11.00     196.9666
      14     1 Au  79    2.968646    3.427898    0.000000     11.00     196.9666
      15     1 Au  79    5.937293    3.427898    0.000000     11.00     196.9666
      16     1 Au  79    8.905939    3.427898    0.000000     11.00     196.9666
      17     1 Au  79   11.874586    3.427898    0.000000     11.00     196.9666
      18     1 Au  79   14.843232    3.427898    0.000000     11.00     196.9666
      19     1 Au  79   17.811878    3.427898    0.000000     11.00     196.9666
      20     1 Au  79   20.780525    3.427898    0.000000     11.00     196.9666
      21     1 Au  79   23.749171    3.427898    0.000000     11.00     196.9666
      22     1 Au  79   26.717818    3.427898    0.000000     11.00     196.9666
      23     1 Au  79   29.686464    3.427898    0.000000     11.00     196.9666
      24     1 Au  79   32.655110    3.427898    0.000000     11.00     196.9666
      25     1 Au  79    1.484323    5.998821    0.000000     11.00     196.9666
      26     1 Au  79    4.452970    5.998821    0.000000     11.00     196.9666
      27     1 Au  79    7.421616    5.998821    0.000000     11.00     196.9666
      28     1 Au  79   10.390262    5.998821    0.000000     11.00     196.9666
      29     1 Au  79   13.358909    5.998821    0.000000     11.00     196.9666
      30     1 Au  79   16.327555    5.998821    0.000000     11.00     196.9666
      31     1 Au  79   19.296202    5.998821    0.000000     11.00     196.9666
      32     1 Au  79   22.264848    5.998821    0.000000     11.00     196.9666
      33     1 Au  79   25.233494    5.998821    0.000000     11.00     196.9666
      34     1 Au  79   28.202141    5.998821    0.000000     11.00     196.9666
      35     1 Au  79   31.170787    5.998821    0.000000     11.00     196.9666
      36     1 Au  79   34.139434    5.998821    0.000000     11.00     196.9666
      37     1 Au  79    0.000000    8.569744    0.000000     11.00     196.9666
      38     1 Au  79    2.968646    8.569744    0.000000     11.00     196.9666
      39     1 Au  79    5.937293    8.569744    0.000000     11.00     196.9666
      40     1 Au  79    8.905939    8.569744    0.000000     11.00     196.9666
      41     1 Au  79   11.874586    8.569744    0.000000     11.00     196.9666
      42     1 Au  79   14.843232    8.569744    0.000000     11.00     196.9666
      43     1 Au  79   17.811878    8.569744    0.000000     11.00     196.9666
      44     1 Au  79   20.780525    8.569744    0.000000     11.00     196.9666
      45     1 Au  79   23.749171    8.569744    0.000000     11.00     196.9666
      46     1 Au  79   26.717818    8.569744    0.000000     11.00     196.9666
      47     1 Au  79   29.686464    8.569744    0.000000     11.00     196.9666
      48     1 Au  79   32.655110    8.569744    0.000000     11.00     196.9666
      49     1 Au  79    1.484323   11.140667    0.000000     11.00     196.9666
      50     1 Au  79    4.452970   11.140667    0.000000     11.00     196.9666
      51     1 Au  79    7.421616   11.140667    0.000000     11.00     196.9666
      52     1 Au  79   10.390262   11.140667    0.000000     11.00     196.9666
      53     1 Au  79   13.358909   11.140667    0.000000     11.00     196.9666
      54     1 Au  79   16.327555   11.140667    0.000000     11.00     196.9666
      55     1 Au  79   19.296202   11.140667    0.000000     11.00     196.9666
      56     1 Au  79   22.264848   11.140667    0.000000     11.00     196.9666
      57     1 Au  79   25.233494   11.140667    0.000000     11.00     196.9666
      58     1 Au  79   28.202141   11.140667    0.000000     11.00     196.9666
      59     1 Au  79   31.170787   11.140667    0.000000     11.00     196.9666
      60     1 Au  79   34.139434   11.140667    0.000000     11.00     196.9666
      61     1 Au  79    0.000000   13.711590    0.000000     11.00     196.9666
      62     1 Au  79    2.968646   13.711590    0.000000     11.00     196.9666
      63     1 Au  79    5.937293   13.711590    0.000000     11.00     196.9666
      64     1 Au  79    8.905939   13.711590    0.000000     11.00     196.9666
      65     1 Au  79   11.874586   13.711590    0.000000     11.00     196.9666
      66     1 Au  79   14.843232   13.711590    0.000000     11.00     196.9666
      67     1 Au  79   17.811878   13.711590    0.000000     11.00     196.9666
      68     1 Au  79   20.780525   13.711590    0.000000     11.00     196.9666
      69     1 Au  79   23.749171   13.711590    0.000000     11.00     196.9666
      70     1 Au  79   26.717818   13.711590    0.000000     11.00     196.9666
      71     1 Au  79   29.686464   13.711590    0.000000     11.00     196.9666
      72     1 Au  79   32.655110   13.711590    0.000000     11.00     196.9666
      73     1 Au  79    1.484323   16.282514    0.000000     11.00     196.9666
      74     1 Au  79    4.452970   16.282514    0.000000     11.00     196.9666
      75     1 Au  79    7.421616   16.282514    0.000000     11.00     196.9666
      76     1 Au  79   10.390262   16.282514    0.000000     11.00     196.9666
      77     1 Au  79   13.358909   16.282514    0.000000     11.00     196.9666
      78     1 Au  79   16.327555   16.282514    0.000000     11.00     196.9666
      79     1 Au  79   19.296202   16.282514    0.000000     11.00     196.9666
      80     1 Au  79   22.264848   16.282514    0.000000     11.00     196.9666
      81     1 Au  79   25.233494   16.282514    0.000000     11.00     196.9666
      82     1 Au  79   28.202141   16.282514    0.000000     11.00     196.9666
      83     1 Au  79   31.170787   16.282514    0.000000     11.00     196.9666
      84     1 Au  79   34.139434   16.282514    0.000000     11.00     196.9666
      85     1 Au  79    0.000000   18.853437    0.000000     11.00     196.9666
      86     1 Au  79    2.968646   18.853437    0.000000     11.00     196.9666
      87     1 Au  79    5.937293   18.853437    0.000000     11.00     196.9666
      88     1 Au  79    8.905939   18.853437    0.000000     11.00     196.9666
      89     1 Au  79   11.874586   18.853437    0.000000     11.00     196.9666
      90     1 Au  79   14.843232   18.853437    0.000000     11.00     196.9666
      91     1 Au  79   17.811878   18.853437    0.000000     11.00     196.9666
      92     1 Au  79   20.780525   18.853437    0.000000     11.00     196.9666
      93     1 Au  79   23.749171   18.853437    0.000000     11.00     196.9666
      94     1 Au  79   26.717818   18.853437    0.000000     11.00     196.9666
      95     1 Au  79   29.686464   18.853437    0.000000     11.00     196.9666
      96     1 Au  79   32.655110   18.853437    0.000000     11.00     196.9666
      97     1 Au  79    1.484323   21.424360    0.000000     11.00     196.9666
      98     1 Au  79    4.452970   21.424360    0.000000     11.00     196.9666
      99     1 Au  79    7.421616   21.424360    0.000000     11.00     196.9666
     100     1 Au  79   10.390262   21.424360    0.000000     11.00     196.9666
     101     1 Au  79   13.358909   21.424360    0.000000     11.00     196.9666
     102     1 Au  79   16.327555   21.424360    0.000000     11.00     196.9666
     103     1 Au  79   19.296202   21.424360    0.000000     11.00     196.9666
     104     1 Au  79   22.264848   21.424360    0.000000     11.00     196.9666
     105     1 Au  79   25.233494   21.424360    0.000000     11.00     196.9666
     106     1 Au  79   28.202141   21.424360    0.000000     11.00     196.9666
     107     1 Au  79   31.170787   21.424360    0.000000     11.00     196.9666
     108     1 Au  79   34.139434   21.424360    0.000000     11.00     196.9666
     109     1 Au  79    0.000000   23.995283    0.000000     11.00     196.9666
     110     1 Au  79    2.968646   23.995283    0.000000     11.00     196.9666
     111     1 Au  79    5.937293   23.995283    0.000000     11.00     196.9666
     112     1 Au  79    8.905939   23.995283    0.000000     11.00     196.9666
     113     1 Au  79   11.874586   23.995283    0.000000     11.00     196.9666
     114     1 Au  79   14.843232   23.995283    0.000000     11.00     196.9666
     115     1 Au  79   17.811878   23.995283    0.000000     11.00     196.9666
     116     1 Au  79   20.780525   23.995283    0.000000     11.00     196.9666
     117     1 Au  79   23.749171   23.995283    0.000000     11.00     196.9666
     118     1 Au  79   26.717818   23.995283    0.000000     11.00     196.9666
     119     1 Au  79   29.686464   23.995283    0.000000     11.00     196.9666
     120     1 Au  79   32.655110   23.995283    0.000000     11.00     196.9666
     121     1 Au  79    1.484323   26.566206    0.000000     11.00     196.9666
     122     1 Au  79    4.452970   26.566206    0.000000     11.00     196.9666
     123     1 Au  79    7.421616   26.566206    0.000000     11.00     196.9666
     124     1 Au  79   10.390262   26.566206    0.000000     11.00     196.9666
     125     1 Au  79   13.358909   26.566206    0.000000     11.00     196.9666
     126     1 Au  79   16.327555   26.566206    0.000000     11.00     196.9666
     127     1 Au  79   19.296202   26.566206    0.000000     11.00     196.9666
     128     1 Au  79   22.264848   26.566206    0.000000     11.00     196.9666
     129     1 Au  79   25.233494   26.566206    0.000000     11.00     196.9666
     130     1 Au  79   28.202141   26.566206    0.000000     11.00     196.9666
     131     1 Au  79   31.170787   26.566206    0.000000     11.00     196.9666
     132     1 Au  79   34.139434   26.566206    0.000000     11.00     196.9666
     133     1 Au  79    0.000000   29.137130    0.000000     11.00     196.9666
     134     1 Au  79    2.968646   29.137130    0.000000     11.00     196.9666
     135     1 Au  79    5.937293   29.137130    0.000000     11.00     196.9666
     136     1 Au  79    8.905939   29.137130    0.000000     11.00     196.9666
     137     1 Au  79   11.874586   29.137130    0.000000     11.00     196.9666
     138     1 Au  79   14.843232   29.137130    0.000000     11.00     196.9666
     139     1 Au  79   17.811878   29.137130    0.000000     11.00     196.9666
     140     1 Au  79   20.780525   29.137130    0.000000     11.00     196.9666
     141     1 Au  79   23.749171   29.137130    0.000000     11.00     196.9666
     142     1 Au  79   26.717818   29.137130    0.000000     11.00     196.9666
     143     1 Au  79   29.686464   29.137130    0.000000     11.00     196.9666
     144     1 Au  79   32.655110   29.137130    0.000000     11.00     196.9666
     145     1 Au  79    0.000000    1.713949    2.423890     11.00     196.9666
     146     1 Au  79    2.968646    1.713949    2.423890     11.00     196.9666
     147     1 Au  79    5.937293    1.713949    2.423890     11.00     196.9666
     148     1 Au  79    8.905939    1.713949    2.423890     11.00     196.9666
     149     1 Au  79   11.874586    1.713949    2.423890     11.00     196.9666
     150     1 Au  79   14.843232    1.713949    2.423890     11.00     196.9666
     151     1 Au  79   17.811878    1.713949    2.423890     11.00     196.9666
     152     1 Au  79   20.780525    1.713949    2.423890     11.00     196.9666
     153     1 Au  79   23.749171    1.713949    2.423890     11.00     196.9666
     154     1 Au  79   26.717818    1.713949    2.423890     11.00     196.9666
     155     1 Au  79   29.686464    1.713949    2.423890     11.00     196.9666
     156     1 Au  79   32.655110    1.713949    2.423890     11.00     196.9666
     157     1 Au  79    1.484323    4.284872    2.423890     11.00     196.9666
     158     1 Au  79    4.452970    4.284872    2.423890     11.00     196.9666
     159     1 Au  79    7.421616    4.284872    2.423890     11.00     196.9666
     160     1 Au  79   10.390262    4.284872    2.423890     11.00     196.9666
     161     1 Au  79   13.358909    4.284872    2.423890     11.00     196.9666
     162     1 Au  79   16.327555    4.284872    2.423890     11.00     196.9666
     163     1 Au  79   19.296202    4.284872    2.423890     11.00     196.9666
     164     1 Au  79   22.264848    4.284872    2.423890     11.00     196.9666
     165     1 Au  79   25.233494    4.284872    2.423890     11.00     196.9666
     166     1 Au  79   28.202141    4.284872    2.423890     11.00     196.9666
     167     1 Au  79   31.170787    4.284872    2.423890     11.00     196.9666
     168     1 Au  79   34.139434    4.284872    2.423890     11.00     196.9666
     169     1 Au  79    0.000000    6.855795    2.423890     11.00     196.9666
     170     1 Au  79    2.968646    6.855795    2.423890     11.00     196.9666
     171     1 Au  79    5.937293    6.855795    2.423890     11.00     196.9666
     172     1 Au  79    8.905939    6.855795    2.423890     11.00     196.9666
     173     1 Au  79   11.874586    6.855795    2.423890     11.00     196.9666
     174     1 Au  79   14.843232    6.855795    2.423890     11.00     196.9666
     175     1 Au  79   17.811878    6.855795    2.423890     11.00     196.9666
     176     1 Au  79   20.780525    6.855795    2.423890     11.00     196.9666
     177     1 Au  79   23.749171    6.855795    2.423890     11.00     196.9666
     178     1 Au  79   26.717818    6.855795    2.423890     11.00     196.9666
     179     1 Au  79   29.686464    6.855795    2.423890     11.00     196.9666
     180     1 Au  79   32.655110    6.855795    2.423890     11.00     196.9666
     181     1 Au  79    1.484323    9.426718    2.423890     11.00     196.9666
     182     1 Au  79    4.452970    9.426718    2.423890     11.00     196.9666
     183     1 Au  79    7.421616    9.426718    2.423890     11.00     196.9666
     184     1 Au  79   10.390262    9.426718    2.423890     11.00     196.9666
     185     1 Au  79   13.358909    9.426718    2.423890     11.00     196.9666
     186     1 Au  79   16.327555    9.426718    2.423890     11.00     196.9666
     187     1 Au  79   19.296202    9.426718    2.423890     11.00     196.9666
     188     1 Au  79   22.264848    9.426718    2.423890     11.00     196.9666
     189     1 Au  79   25.233494    9.426718    2.423890     11.00     196.9666
     190     1 Au  79   28.202141    9.426718    2.423890     11.00     196.9666
     191     1 Au  79   31.170787    9.426718    2.423890     11.00     196.9666
     192     1 Au  79   34.139434    9.426718    2.423890     11.00     196.9666
     193     1 Au  79    0.000000   11.997642    2.423890     11.00     196.9666
     194     1 Au  79    2.968646   11.997642    2.423890     11.00     196.9666
     195     1 Au  79    5.937293   11.997642    2.423890     11.00     196.9666
     196     1 Au  79    8.905939   11.997642    2.423890     11.00     196.9666
     197     1 Au  79   11.874586   11.997642    2.423890     11.00     196.9666
     198     1 Au  79   14.843232   11.997642    2.423890     11.00     196.9666
     199     1 Au  79   17.811878   11.997642    2.423890     11.00     196.9666
     200     1 Au  79   20.780525   11.997642    2.423890     11.00     196.9666
     201     1 Au  79   23.749171   11.997642    2.423890     11.00     196.9666
     202     1 Au  79   26.717818   11.997642    2.423890     11.00     196.9666
     203     1 Au  79   29.686464   11.997642    2.423890     11.00     196.9666
     204     1 Au  79   32.655110   11.997642    2.423890     11.00     196.9666
     205     1 Au  79    1.484323   14.568565    2.423890     11.00     196.9666
     206     1 Au  79    4.452970   14.568565    2.423890     11.00     196.9666
     207     1 Au  79    7.421616   14.568565    2.423890     11.00     196.9666
     208     1 Au  79   10.390262   14.568565    2.423890     11.00     196.9666
     209     1 Au  79   13.358909   14.568565    2.423890     11.00     196.9666
     210     1 Au  79   16.327555   14.568565    2.423890     11.00     196.9666
     211     1 Au  79   19.296202   14.568565    2.423890     11.00     196.9666
     212     1 Au  79   22.264848   14.568565    2.423890     11.00     196.9666
     213     1 Au  79   25.233494   14.568565    2.423890     11.00     196.9666
     214     1 Au  79   28.202141   14.568565    2.423890     11.00     196.9666
     215     1 Au  79   31.170787   14.568565    2.423890     11.00     196.9666
     216     1 Au  79   34.139434   14.568565    2.423890     11.00     196.9666
     217     1 Au  79    0.000000   17.139488    2.423890     11.00     196.9666
     218     1 Au  79    2.968646   17.139488    2.423890     11.00     196.9666
     219     1 Au  79    5.937293   17.139488    2.423890     11.00     196.9666
     220     1 Au  79    8.905939   17.139488    2.423890     11.00     196.9666
     221     1 Au  79   11.874586   17.139488    2.423890     11.00     196.9666
     222     1 Au  79   14.843232   17.139488    2.423890     11.00     196.9666
     223     1 Au  79   17.811878   17.139488    2.423890     11.00     196.9666
     224     1 Au  79   20.780525   17.139488    2.423890     11.00     196.9666
     225     1 Au  79   23.749171   17.139488    2.423890     11.00     196.9666
     226     1 Au  79   26.717818   17.139488    2.423890     11.00     196.9666
     227     1 Au  79   29.686464   17.139488    2.423890     11.00     196.9666
     228     1 Au  79   32.655110   17.139488    2.423890     11.00     196.9666
     229     1 Au  79    1.484323   19.710411    2.423890     11.00     196.9666
     230     1 Au  79    4.452970   19.710411    2.423890     11.00     196.9666
     231     1 Au  79    7.421616   19.710411    2.423890     11.00     196.9666
     232     1 Au  79   10.390262   19.710411    2.423890     11.00     196.9666
     233     1 Au  79   13.358909   19.710411    2.423890     11.00     196.9666
     234     1 Au  79   16.327555   19.710411    2.423890     11.00     196.9666
     235     1 Au  79   19.296202   19.710411    2.423890     11.00     196.9666
     236     1 Au  79   22.264848   19.710411    2.423890     11.00     196.9666
     237     1 Au  79   25.233494   19.710411    2.423890     11.00     196.9666
     238     1 Au  79   28.202141   19.710411    2.423890     11.00     196.9666
     239     1 Au  79   31.170787   19.710411    2.423890     11.00     196.9666
     240     1 Au  79   34.139434   19.710411    2.423890     11.00     196.9666
     241     1 Au  79    0.000000   22.281334    2.423890     11.00     196.9666
     242     1 Au  79    2.968646   22.281334    2.423890     11.00     196.9666
     243     1 Au  79    5.937293   22.281334    2.423890     11.00     196.9666
     244     1 Au  79    8.905939   22.281334    2.423890     11.00     196.9666
     245     1 Au  79   11.874586   22.281334    2.423890     11.00     196.9666
     246     1 Au  79   14.843232   22.281334    2.423890     11.00     196.9666
     247     1 Au  79   17.811878   22.281334    2.423890     11.00     196.9666
     248     1 Au  79   20.780525   22.281334    2.423890     11.00     196.9666
     249     1 Au  79   23.749171   22.281334    2.423890     11.00     196.9666
     250     1 Au  79   26.717818   22.281334    2.423890     11.00     196.9666
     251     1 Au  79   29.686464   22.281334    2.423890     11.00     196.9666
     252     1 Au  79   32.655110   22.281334    2.423890     11.00     196.9666
     253     1 Au  79    1.484323   24.852258    2.423890     11.00     196.9666
     254     1 Au  79    4.452970   24.852258    2.423890     11.00     196.9666
     255     1 Au  79    7.421616   24.852258    2.423890     11.00     196.9666
     256     1 Au  79   10.390262   24.852258    2.423890     11.00     196.9666
     257     1 Au  79   13.358909   24.852258    2.423890     11.00     196.9666
     258     1 Au  79   16.327555   24.852258    2.423890     11.00     196.9666
     259     1 Au  79   19.296202   24.852258    2.423890     11.00     196.9666
     260     1 Au  79   22.264848   24.852258    2.423890     11.00     196.9666
     261     1 Au  79   25.233494   24.852258    2.423890     11.00     196.9666
     262     1 Au  79   28.202141   24.852258    2.423890     11.00     196.9666
     263     1 Au  79   31.170787   24.852258    2.423890     11.00     196.9666
     264     1 Au  79   34.139434   24.852258    2.423890     11.00     196.9666
     265     1 Au  79    0.000000   27.423181    2.423890     11.00     196.9666
     266     1 Au  79    2.968646   27.423181    2.423890     11.00     196.9666
     267     1 Au  79    5.937293   27.423181    2.423890     11.00     196.9666
     268     1 Au  79    8.905939   27.423181    2.423890     11.00     196.9666
     269     1 Au  79   11.874586   27.423181    2.423890     11.00     196.9666
     270     1 Au  79   14.843232   27.423181    2.423890     11.00     196.9666
     271     1 Au  79   17.811878   27.423181    2.423890     11.00     196.9666
     272     1 Au  79   20.780525   27.423181    2.423890     11.00     196.9666
     273     1 Au  79   23.749171   27.423181    2.423890     11.00     196.9666
     274     1 Au  79   26.717818   27.423181    2.423890     11.00     196.9666
     275     1 Au  79   29.686464   27.423181    2.423890     11.00     196.9666
     276     1 Au  79   32.655110   27.423181    2.423890     11.00     196.9666
     277     1 Au  79    1.484323   29.994104    2.423890     11.00     196.9666
     278     1 Au  79    4.452970   29.994104    2.423890     11.00     196.9666
     279     1 Au  79    7.421616   29.994104    2.423890     11.00     196.9666
     280     1 Au  79   10.390262   29.994104    2.423890     11.00     196.9666
     281     1 Au  79   13.358909   29.994104    2.423890     11.00     196.9666
     282     1 Au  79   16.327555   29.994104    2.423890     11.00     196.9666
     283     1 Au  79   19.296202   29.994104    2.423890     11.00     196.9666
     284     1 Au  79   22.264848   29.994104    2.423890     11.00     196.9666
     285     1 Au  79   25.233494   29.994104    2.423890     11.00     196.9666
     286     1 Au  79   28.202141   29.994104    2.423890     11.00     196.9666
     287     1 Au  79   31.170787   29.994104    2.423890     11.00     196.9666
     288     1 Au  79   34.139434   29.994104    2.423890     11.00     196.9666
     289     1 Au  79    0.000000    0.000000    4.847779     11.00     196.9666
     290     1 Au  79    2.968646    0.000000    4.847779     11.00     196.9666
     291     1 Au  79    5.937293    0.000000    4.847779     11.00     196.9666
     292     1 Au  79    8.905939    0.000000    4.847779     11.00     196.9666
     293     1 Au  79   11.874586    0.000000    4.847779     11.00     196.9666
     294     1 Au  79   14.843232    0.000000    4.847779     11.00     196.9666
     295     1 Au  79   17.811878    0.000000    4.847779     11.00     196.9666
     296     1 Au  79   20.780525    0.000000    4.847779     11.00     196.9666
     297     1 Au  79   23.749171    0.000000    4.847779     11.00     196.9666
     298     1 Au  79   26.717818    0.000000    4.847779     11.00     196.9666
     299     1 Au  79   29.686464    0.000000    4.847779     11.00     196.9666
     300     1 Au  79   32.655110    0.000000    4.847779     11.00     196.9666
     301     1 Au  79    1.484323    2.570923    4.847779     11.00     196.9666
     302     1 Au  79    4.452970    2.570923    4.847779     11.00     196.9666
     303     1 Au  79    7.421616    2.570923    4.847779     11.00     196.9666
     304     1 Au  79   10.390262    2.570923    4.847779     11.00     196.9666
     305     1 Au  79   13.358909    2.570923    4.847779     11.00     196.9666
     306     1 Au  79   16.327555    2.570923    4.847779     11.00     196.9666
     307     1 Au  79   19.296202    2.570923    4.847779     11.00     196.9666
     308     1 Au  79   22.264848    2.570923    4.847779     11.00     196.9666
     309     1 Au  79   25.233494    2.570923    4.847779     11.00     196.9666
     310     1 Au  79   28.202141    2.570923    4.847779     11.00     196.9666
     311     1 Au  79   31.170787    2.570923    4.847779     11.00     196.9666
     312     1 Au  79   34.139434    2.570923    4.847779     11.00     196.9666
     313     1 Au  79    0.000000    5.141846    4.847779     11.00     196.9666
     314     1 Au  79    2.968646    5.141846    4.847779     11.00     196.9666
     315     1 Au  79    5.937293    5.141846    4.847779     11.00     196.9666
     316     1 Au  79    8.905939    5.141846    4.847779     11.00     196.9666
     317     1 Au  79   11.874586    5.141846    4.847779     11.00     196.9666
     318     1 Au  79   14.843232    5.141846    4.847779     11.00     196.9666
     319     1 Au  79   17.811878    5.141846    4.847779     11.00     196.9666
     320     1 Au  79   20.780525    5.141846    4.847779     11.00     196.9666
     321     1 Au  79   23.749171    5.141846    4.847779     11.00     196.9666
     322     1 Au  79   26.717818    5.141846    4.847779     11.00     196.9666
     323     1 Au  79   29.686464    5.141846    4.847779     11.00     196.9666
     324     1 Au  79   32.655110    5.141846    4.847779     11.00     196.9666
     325     1 Au  79    1.484323    7.712770    4.847779     11.00     196.9666
     326     1 Au  79    4.452970    7.712770    4.847779     11.00     196.9666
     327     1 Au  79    7.421616    7.712770    4.847779     11.00     196.9666
     328     1 Au  79   10.390262    7.712770    4.847779     11.00     196.9666
     329     1 Au  79   13.358909    7.712770    4.847779     11.00     196.9666
     330     1 Au  79   16.327555    7.712770    4.847779     11.00     196.9666
     331     1 Au  79   19.296202    7.712770    4.847779     11.00     196.9666
     332     1 Au  79   22.264848    7.712770    4.847779     11.00     196.9666
     333     1 Au  79   25.233494    7.712770    4.847779     11.00     196.9666
     334     1 Au  79   28.202141    7.712770    4.847779     11.00     196.9666
     335     1 Au  79   31.170787    7.712770    4.847779     11.00     196.9666
     336     1 Au  79   34.139434    7.712770    4.847779     11.00     196.9666
     337     1 Au  79    0.000000   10.283693    4.847779     11.00     196.9666
     338     1 Au  79    2.968646   10.283693    4.847779     11.00     196.9666
     339     1 Au  79    5.937293   10.283693    4.847779     11.00     196.9666
     340     1 Au  79    8.905939   10.283693    4.847779     11.00     196.9666
     341     1 Au  79   11.874586   10.283693    4.847779     11.00     196.9666
     342     1 Au  79   14.843232   10.283693    4.847779     11.00     196.9666
     343     1 Au  79   17.811878   10.283693    4.847779     11.00     196.9666
     344     1 Au  79   20.780525   10.283693    4.847779     11.00     196.9666
     345     1 Au  79   23.749171   10.283693    4.847779     11.00     196.9666
     346     1 Au  79   26.717818   10.283693    4.847779     11.00     196.9666
     347     1 Au  79   29.686464   10.283693    4.847779     11.00     196.9666
     348     1 Au  79   32.655110   10.283693    4.847779     11.00     196.9666
     349     1 Au  79    1.484323   12.854616    4.847779     11.00     196.9666
     350     1 Au  79    4.452970   12.854616    4.847779     11.00     196.9666
     351     1 Au  79    7.421616   12.854616    4.847779     11.00     196.9666
     352     1 Au  79   10.390262   12.854616    4.847779     11.00     196.9666
     353     1 Au  79   13.358909   12.854616    4.847779     11.00     196.9666
     354     1 Au  79   16.327555   12.854616    4.847779     11.00     196.9666
     355     1 Au  79   19.296202   12.854616    4.847779     11.00     196.9666
     356     1 Au  79   22.264848   12.854616    4.847779     11.00     196.9666
     357     1 Au  79   25.233494   12.854616    4.847779     11.00     196.9666
     358     1 Au  79   28.202141   12.854616    4.847779     11.00     196.9666
     359     1 Au  79   31.170787   12.854616    4.847779     11.00     196.9666
     360     1 Au  79   34.139434   12.854616    4.847779     11.00     196.9666
     361     1 Au  79    0.000000   15.425539    4.847779     11.00     196.9666
     362     1 Au  79    2.968646   15.425539    4.847779     11.00     196.9666
     363     1 Au  79    5.937293   15.425539    4.847779     11.00     196.9666
     364     1 Au  79    8.905939   15.425539    4.847779     11.00     196.9666
     365     1 Au  79   11.874586   15.425539    4.847779     11.00     196.9666
     366     1 Au  79   14.843232   15.425539    4.847779     11.00     196.9666
     367     1 Au  79   17.811878   15.425539    4.847779     11.00     196.9666
     368     1 Au  79   20.780525   15.425539    4.847779     11.00     196.9666
     369     1 Au  79   23.749171   15.425539    4.847779     11.00     196.9666
     370     1 Au  79   26.717818   15.425539    4.847779     11.00     196.9666
     371     1 Au  79   29.686464   15.425539    4.847779     11.00     196.9666
     372     1 Au  79   32.655110   15.425539    4.847779     11.00     196.9666
     373     1 Au  79    1.484323   17.996462    4.847779     11.00     196.9666
     374     1 Au  79    4.452970   17.996462    4.847779     11.00     196.9666
     375     1 Au  79    7.421616   17.996462    4.847779     11.00     196.9666
     376     1 Au  79   10.390262   17.996462    4.847779     11.00     196.9666
     377     1 Au  79   13.358909   17.996462    4.847779     11.00     196.9666
     378     1 Au  79   16.327555   17.996462    4.847779     11.00     196.9666
     379     1 Au  79   19.296202   17.996462    4.847779     11.00     196.9666
     380     1 Au  79   22.264848   17.996462    4.847779     11.00     196.9666
     381     1 Au  79   25.233494   17.996462    4.847779     11.00     196.9666
     382     1 Au  79   28.202141   17.996462    4.847779     11.00     196.9666
     383     1 Au  79   31.170787   17.996462    4.847779     11.00     196.9666
     384     1 Au  79   34.139434   17.996462    4.847779     11.00     196.9666
     385     1 Au  79    0.000000   20.567386    4.847779     11.00     196.9666
     386     1 Au  79    2.968646   20.567386    4.847779     11.00     196.9666
     387     1 Au  79    5.937293   20.567386    4.847779     11.00     196.9666
     388     1 Au  79    8.905939   20.567386    4.847779     11.00     196.9666
     389     1 Au  79   11.874586   20.567386    4.847779     11.00     196.9666
     390     1 Au  79   14.843232   20.567386    4.847779     11.00     196.9666
     391     1 Au  79   17.811878   20.567386    4.847779     11.00     196.9666
     392     1 Au  79   20.780525   20.567386    4.847779     11.00     196.9666
     393     1 Au  79   23.749171   20.567386    4.847779     11.00     196.9666
     394     1 Au  79   26.717818   20.567386    4.847779     11.00     196.9666
     395     1 Au  79   29.686464   20.567386    4.847779     11.00     196.9666
     396     1 Au  79   32.655110   20.567386    4.847779     11.00     196.9666
     397     1 Au  79    1.484323   23.138309    4.847779     11.00     196.9666
     398     1 Au  79    4.452970   23.138309    4.847779     11.00     196.9666
     399     1 Au  79    7.421616   23.138309    4.847779     11.00     196.9666
     400     1 Au  79   10.390262   23.138309    4.847779     11.00     196.9666
     401     1 Au  79   13.358909   23.138309    4.847779     11.00     196.9666
     402     1 Au  79   16.327555   23.138309    4.847779     11.00     196.9666
     403     1 Au  79   19.296202   23.138309    4.847779     11.00     196.9666
     404     1 Au  79   22.264848   23.138309    4.847779     11.00     196.9666
     405     1 Au  79   25.233494   23.138309    4.847779     11.00     196.9666
     406     1 Au  79   28.202141   23.138309    4.847779     11.00     196.9666
     407     1 Au  79   31.170787   23.138309    4.847779     11.00     196.9666
     408     1 Au  79   34.139434   23.138309    4.847779     11.00     196.9666
     409     1 Au  79    0.000000   25.709232    4.847779     11.00     196.9666
     410     1 Au  79    2.968646   25.709232    4.847779     11.00     196.9666
     411     1 Au  79    5.937293   25.709232    4.847779     11.00     196.9666
     412     1 Au  79    8.905939   25.709232    4.847779     11.00     196.9666
     413     1 Au  79   11.874586   25.709232    4.847779     11.00     196.9666
     414     1 Au  79   14.843232   25.709232    4.847779     11.00     196.9666
     415     1 Au  79   17.811878   25.709232    4.847779     11.00     196.9666
     416     1 Au  79   20.780525   25.709232    4.847779     11.00     196.9666
     417     1 Au  79   23.749171   25.709232    4.847779     11.00     196.9666
     418     1 Au  79   26.717818   25.709232    4.847779     11.00     196.9666
     419     1 Au  79   29.686464   25.709232    4.847779     11.00     196.9666
     420     1 Au  79   32.655110   25.709232    4.847779     11.00     196.9666
     421     1 Au  79    1.484323   28.280155    4.847779     11.00     196.9666
     422     1 Au  79    4.452970   28.280155    4.847779     11.00     196.9666
     423     1 Au  79    7.421616   28.280155    4.847779     11.00     196.9666
     424     1 Au  79   10.390262   28.280155    4.847779     11.00     196.9666
     425     1 Au  79   13.358909   28.280155    4.847779     11.00     196.9666
     426     1 Au  79   16.327555   28.280155    4.847779     11.00     196.9666
     427     1 Au  79   19.296202   28.280155    4.847779     11.00     196.9666
     428     1 Au  79   22.264848   28.280155    4.847779     11.00     196.9666
     429     1 Au  79   25.233494   28.280155    4.847779     11.00     196.9666
     430     1 Au  79   28.202141   28.280155    4.847779     11.00     196.9666
     431     1 Au  79   31.170787   28.280155    4.847779     11.00     196.9666
     432     1 Au  79   34.139434   28.280155    4.847779     11.00     196.9666
     433     1 Au  79    0.000000    1.713949   26.662786     11.00     196.9666
     434     1 Au  79    2.968646    1.713949   26.662786     11.00     196.9666
     435     1 Au  79    5.937293    1.713949   26.662786     11.00     196.9666
     436     1 Au  79    8.905939    1.713949   26.662786     11.00     196.9666
     437     1 Au  79   11.874586    1.713949   26.662786     11.00     196.9666
     438     1 Au  79   14.843232    1.713949   26.662786     11.00     196.9666
     439     1 Au  79   17.811878    1.713949   26.662786     11.00     196.9666
     440     1 Au  79   20.780525    1.713949   26.662786     11.00     196.9666
     441     1 Au  79   23.749171    1.713949   26.662786     11.00     196.9666
     442     1 Au  79   26.717818    1.713949   26.662786     11.00     196.9666
     443     1 Au  79   29.686464    1.713949   26.662786     11.00     196.9666
     444     1 Au  79   32.655110    1.713949   26.662786     11.00     196.9666
     445     1 Au  79    1.484323    4.284872   26.662786     11.00     196.9666
     446     1 Au  79    4.452970    4.284872   26.662786     11.00     196.9666
     447     1 Au  79    7.421616    4.284872   26.662786     11.00     196.9666
     448     1 Au  79   10.390262    4.284872   26.662786     11.00     196.9666
     449     1 Au  79   13.358909    4.284872   26.662786     11.00     196.9666
     450     1 Au  79   16.327555    4.284872   26.662786     11.00     196.9666
     451     1 Au  79   19.296202    4.284872   26.662786     11.00     196.9666
     452     1 Au  79   22.264848    4.284872   26.662786     11.00     196.9666
     453     1 Au  79   25.233494    4.284872   26.662786     11.00     196.9666
     454     1 Au  79   28.202141    4.284872   26.662786     11.00     196.9666
     455     1 Au  79   31.170787    4.284872   26.662786     11.00     196.9666
     456     1 Au  79   34.139434    4.284872   26.662786     11.00     196.9666
     457     1 Au  79    0.000000    6.855795   26.662786     11.00     196.9666
     458     1 Au  79    2.968646    6.855795   26.662786     11.00     196.9666
     459     1 Au  79    5.937293    6.855795   26.662786     11.00     196.9666
     460     1 Au  79    8.905939    6.855795   26.662786     11.00     196.9666
     461     1 Au  79   11.874586    6.855795   26.662786     11.00     196.9666
     462     1 Au  79   14.843232    6.855795   26.662786     11.00     196.9666
     463     1 Au  79   17.811878    6.855795   26.662786     11.00     196.9666
     464     1 Au  79   20.780525    6.855795   26.662786     11.00     196.9666
     465     1 Au  79   23.749171    6.855795   26.662786     11.00     196.9666
     466     1 Au  79   26.717818    6.855795   26.662786     11.00     196.9666
     467     1 Au  79   29.686464    6.855795   26.662786     11.00     196.9666
     468     1 Au  79   32.655110    6.855795   26.662786     11.00     196.9666
     469     1 Au  79    1.484323    9.426718   26.662786     11.00     196.9666
     470     1 Au  79    4.452970    9.426718   26.662786     11.00     196.9666
     471     1 Au  79    7.421616    9.426718   26.662786     11.00     196.9666
     472     1 Au  79   10.390262    9.426718   26.662786     11.00     196.9666
     473     1 Au  79   13.358909    9.426718   26.662786     11.00     196.9666
     474     1 Au  79   16.327555    9.426718   26.662786     11.00     196.9666
     475     1 Au  79   19.296202    9.426718   26.662786     11.00     196.9666
     476     1 Au  79   22.264848    9.426718   26.662786     11.00     196.9666
     477     1 Au  79   25.233494    9.426718   26.662786     11.00     196.9666
     478     1 Au  79   28.202141    9.426718   26.662786     11.00     196.9666
     479     1 Au  79   31.170787    9.426718   26.662786     11.00     196.9666
     480     1 Au  79   34.139434    9.426718   26.662786     11.00     196.9666
     481     1 Au  79    0.000000   11.997642   26.662786     11.00     196.9666
     482     1 Au  79    2.968646   11.997642   26.662786     11.00     196.9666
     483     1 Au  79    5.937293   11.997642   26.662786     11.00     196.9666
     484     1 Au  79    8.905939   11.997642   26.662786     11.00     196.9666
     485     1 Au  79   11.874586   11.997642   26.662786     11.00     196.9666
     486     1 Au  79   14.843232   11.997642   26.662786     11.00     196.9666
     487     1 Au  79   17.811878   11.997642   26.662786     11.00     196.9666
     488     1 Au  79   20.780525   11.997642   26.662786     11.00     196.9666
     489     1 Au  79   23.749171   11.997642   26.662786     11.00     196.9666
     490     1 Au  79   26.717818   11.997642   26.662786     11.00     196.9666
     491     1 Au  79   29.686464   11.997642   26.662786     11.00     196.9666
     492     1 Au  79   32.655110   11.997642   26.662786     11.00     196.9666
     493     1 Au  79    1.484323   14.568565   26.662786     11.00     196.9666
     494     1 Au  79    4.452970   14.568565   26.662786     11.00     196.9666
     495     1 Au  79    7.421616   14.568565   26.662786     11.00     196.9666
     496     1 Au  79   10.390262   14.568565   26.662786     11.00     196.9666
     497     1 Au  79   13.358909   14.568565   26.662786     11.00     196.9666
     498     1 Au  79   16.327555   14.568565   26.662786     11.00     196.9666
     499     1 Au  79   19.296202   14.568565   26.662786     11.00     196.9666
     500     1 Au  79   22.264848   14.568565   26.662786     11.00     196.9666
     501     1 Au  79   25.233494   14.568565   26.662786     11.00     196.9666
     502     1 Au  79   28.202141   14.568565   26.662786     11.00     196.9666
     503     1 Au  79   31.170787   14.568565   26.662786     11.00     196.9666
     504     1 Au  79   34.139434   14.568565   26.662786     11.00     196.9666
     505     1 Au  79    0.000000   17.139488   26.662786     11.00     196.9666
     506     1 Au  79    2.968646   17.139488   26.662786     11.00     196.9666
     507     1 Au  79    5.937293   17.139488   26.662786     11.00     196.9666
     508     1 Au  79    8.905939   17.139488   26.662786     11.00     196.9666
     509     1 Au  79   11.874586   17.139488   26.662786     11.00     196.9666
     510     1 Au  79   14.843232   17.139488   26.662786     11.00     196.9666
     511     1 Au  79   17.811878   17.139488   26.662786     11.00     196.9666
     512     1 Au  79   20.780525   17.139488   26.662786     11.00     196.9666
     513     1 Au  79   23.749171   17.139488   26.662786     11.00     196.9666
     514     1 Au  79   26.717818   17.139488   26.662786     11.00     196.9666
     515     1 Au  79   29.686464   17.139488   26.662786     11.00     196.9666
     516     1 Au  79   32.655110   17.139488   26.662786     11.00     196.9666
     517     1 Au  79    1.484323   19.710411   26.662786     11.00     196.9666
     518     1 Au  79    4.452970   19.710411   26.662786     11.00     196.9666
     519     1 Au  79    7.421616   19.710411   26.662786     11.00     196.9666
     520     1 Au  79   10.390262   19.710411   26.662786     11.00     196.9666
     521     1 Au  79   13.358909   19.710411   26.662786     11.00     196.9666
     522     1 Au  79   16.327555   19.710411   26.662786     11.00     196.9666
     523     1 Au  79   19.296202   19.710411   26.662786     11.00     196.9666
     524     1 Au  79   22.264848   19.710411   26.662786     11.00     196.9666
     525     1 Au  79   25.233494   19.710411   26.662786     11.00     196.9666
     526     1 Au  79   28.202141   19.710411   26.662786     11.00     196.9666
     527     1 Au  79   31.170787   19.710411   26.662786     11.00     196.9666
     528     1 Au  79   34.139434   19.710411   26.662786     11.00     196.9666
     529     1 Au  79    0.000000   22.281334   26.662786     11.00     196.9666
     530     1 Au  79    2.968646   22.281334   26.662786     11.00     196.9666
     531     1 Au  79    5.937293   22.281334   26.662786     11.00     196.9666
     532     1 Au  79    8.905939   22.281334   26.662786     11.00     196.9666
     533     1 Au  79   11.874586   22.281334   26.662786     11.00     196.9666
     534     1 Au  79   14.843232   22.281334   26.662786     11.00     196.9666
     535     1 Au  79   17.811878   22.281334   26.662786     11.00     196.9666
     536     1 Au  79   20.780525   22.281334   26.662786     11.00     196.9666
     537     1 Au  79   23.749171   22.281334   26.662786     11.00     196.9666
     538     1 Au  79   26.717818   22.281334   26.662786     11.00     196.9666
     539     1 Au  79   29.686464   22.281334   26.662786     11.00     196.9666
     540     1 Au  79   32.655110   22.281334   26.662786     11.00     196.9666
     541     1 Au  79    1.484323   24.852258   26.662786     11.00     196.9666
     542     1 Au  79    4.452970   24.852258   26.662786     11.00     196.9666
     543     1 Au  79    7.421616   24.852258   26.662786     11.00     196.9666
     544     1 Au  79   10.390262   24.852258   26.662786     11.00     196.9666
     545     1 Au  79   13.358909   24.852258   26.662786     11.00     196.9666
     546     1 Au  79   16.327555   24.852258   26.662786     11.00     196.9666
     547     1 Au  79   19.296202   24.852258   26.662786     11.00     196.9666
     548     1 Au  79   22.264848   24.852258   26.662786     11.00     196.9666
     549     1 Au  79   25.233494   24.852258   26.662786     11.00     196.9666
     550     1 Au  79   28.202141   24.852258   26.662786     11.00     196.9666
     551     1 Au  79   31.170787   24.852258   26.662786     11.00     196.9666
     552     1 Au  79   34.139434   24.852258   26.662786     11.00     196.9666
     553     1 Au  79    0.000000   27.423181   26.662786     11.00     196.9666
     554     1 Au  79    2.968646   27.423181   26.662786     11.00     196.9666
     555     1 Au  79    5.937293   27.423181   26.662786     11.00     196.9666
     556     1 Au  79    8.905939   27.423181   26.662786     11.00     196.9666
     557     1 Au  79   11.874586   27.423181   26.662786     11.00     196.9666
     558     1 Au  79   14.843232   27.423181   26.662786     11.00     196.9666
     559     1 Au  79   17.811878   27.423181   26.662786     11.00     196.9666
     560     1 Au  79   20.780525   27.423181   26.662786     11.00     196.9666
     561     1 Au  79   23.749171   27.423181   26.662786     11.00     196.9666
     562     1 Au  79   26.717818   27.423181   26.662786     11.00     196.9666
     563     1 Au  79   29.686464   27.423181   26.662786     11.00     196.9666
     564     1 Au  79   32.655110   27.423181   26.662786     11.00     196.9666
     565     1 Au  79    1.484323   29.994104   26.662786     11.00     196.9666
     566     1 Au  79    4.452970   29.994104   26.662786     11.00     196.9666
     567     1 Au  79    7.421616   29.994104   26.662786     11.00     196.9666
[...]
    581       Au     1      11.000         10.987                         0.013
    582       Au     1      11.000         10.987                         0.013
    583       Au     1      11.000         10.987                         0.013
    584       Au     1      11.000         10.987                         0.013
    585       Au     1      11.000         10.987                         0.013
    586       Au     1      11.000         10.987                         0.013
    587       Au     1      11.000         10.987                         0.013
    588       Au     1      11.000         10.987                         0.013
    589       Au     1      11.000         10.987                         0.013
    590       Au     1      11.000         10.987                         0.013
    591       Au     1      11.000         10.987                         0.013
    592       Au     1      11.000         10.987                         0.013
    593       Au     1      11.000         10.987                         0.013
    594       Au     1      11.000         10.987                         0.013
    595       Au     1      11.000         10.987                         0.013
    596       Au     1      11.000         10.987                         0.013
    597       Au     1      11.000         10.987                         0.013
    598       Au     1      11.000         10.987                         0.013
    599       Au     1      11.000         10.987                         0.013
    600       Au     1      11.000         10.987                         0.013
    601       Au     1      11.000         10.987                         0.013
    602       Au     1      11.000         10.987                         0.013
    603       Au     1      11.000         10.987                         0.013
    604       Au     1      11.000         10.987                         0.013
    605       Au     1      11.000         10.987                         0.013
    606       Au     1      11.000         10.987                         0.013
    607       Au     1      11.000         10.987                         0.013
    608       Au     1      11.000         10.987                         0.013
    609       Au     1      11.000         10.987                         0.013
    610       Au     1      11.000         10.987                         0.013
    611       Au     1      11.000         10.987                         0.013
    612       Au     1      11.000         10.987                         0.013
    613       Au     1      11.000         10.987                         0.013
    614       Au     1      11.000         10.987                         0.013
    615       Au     1      11.000         10.987                         0.013
    616       Au     1      11.000         10.987                         0.013
    617       Au     1      11.000         10.987                         0.013
    618       Au     1      11.000         10.987                         0.013
    619       Au     1      11.000         10.987                         0.013
    620       Au     1      11.000         10.987                         0.013
    621       Au     1      11.000         10.987                         0.013
    622       Au     1      11.000         10.987                         0.013
    623       Au     1      11.000         10.987                         0.013
    624       Au     1      11.000         10.987                         0.013
    625       Au     1      11.000         10.987                         0.013
    626       Au     1      11.000         10.987                         0.013
    627       Au     1      11.000         10.987                         0.013
    628       Au     1      11.000         10.987                         0.013
    629       Au     1      11.000         10.987                         0.013
    630       Au     1      11.000         10.987                         0.013
    631       Au     1      11.000         10.987                         0.013
    632       Au     1      11.000         10.987                         0.013
    633       Au     1      11.000         10.987                         0.013
    634       Au     1      11.000         10.987                         0.013
    635       Au     1      11.000         10.987                         0.013
    636       Au     1      11.000         10.987                         0.013
    637       Au     1      11.000         10.987                         0.013
    638       Au     1      11.000         10.987                         0.013
    639       Au     1      11.000         10.987                         0.013
    640       Au     1      11.000         10.987                         0.013
    641       Au     1      11.000         10.987                         0.013
    642       Au     1      11.000         10.987                         0.013
    643       Au     1      11.000         10.987                         0.013
    644       Au     1      11.000         10.987                         0.013
    645       Au     1      11.000         10.987                         0.013
    646       Au     1      11.000         10.987                         0.013
    647       Au     1      11.000         10.987                         0.013
    648       Au     1      11.000         10.987                         0.013
    649       Au     1      11.000         10.987                         0.013
    650       Au     1      11.000         10.987                         0.013
    651       Au     1      11.000         10.987                         0.013
    652       Au     1      11.000         10.987                         0.013
    653       Au     1      11.000         10.987                         0.013
    654       Au     1      11.000         10.987                         0.013
    655       Au     1      11.000         10.987                         0.013
    656       Au     1      11.000         10.987                         0.013
    657       Au     1      11.000         10.987                         0.013
    658       Au     1      11.000         10.987                         0.013
    659       Au     1      11.000         10.987                         0.013
    660       Au     1      11.000         10.987                         0.013
    661       Au     1      11.000         10.987                         0.013
    662       Au     1      11.000         10.987                         0.013
    663       Au     1      11.000         10.987                         0.013
    664       Au     1      11.000         10.987                         0.013
    665       Au     1      11.000         10.987                         0.013
    666       Au     1      11.000         10.987                         0.013
    667       Au     1      11.000         10.987                         0.013
    668       Au     1      11.000         10.987                         0.013
    669       Au     1      11.000         10.987                         0.013
    670       Au     1      11.000         10.987                         0.013
    671       Au     1      11.000         10.987                         0.013
    672       Au     1      11.000         10.987                         0.013
    673       Au     1      11.000         10.987                         0.013
    674       Au     1      11.000         10.987                         0.013
    675       Au     1      11.000         10.987                         0.013
    676       Au     1      11.000         10.987                         0.013
    677       Au     1      11.000         10.987                         0.013
    678       Au     1      11.000         10.987                         0.013
    679       Au     1      11.000         10.987                         0.013
    680       Au     1      11.000         10.987                         0.013
    681       Au     1      11.000         10.987                         0.013
    682       Au     1      11.000         10.987                         0.013
    683       Au     1      11.000         10.987                         0.013
    684       Au     1      11.000         10.987                         0.013
    685       Au     1      11.000         10.987                         0.013
    686       Au     1      11.000         10.987                         0.013
    687       Au     1      11.000         10.987                         0.013
    688       Au     1      11.000         10.987                         0.013
    689       Au     1      11.000         10.987                         0.013
    690       Au     1      11.000         10.987                         0.013
    691       Au     1      11.000         10.987                         0.013
    692       Au     1      11.000         10.987                         0.013
    693       Au     1      11.000         10.987                         0.013
    694       Au     1      11.000         10.987                         0.013
    695       Au     1      11.000         10.987                         0.013
    696       Au     1      11.000         10.987                         0.013
    697       Au     1      11.000         10.987                         0.013
    698       Au     1      11.000         10.987                         0.013
    699       Au     1      11.000         10.987                         0.013
    700       Au     1      11.000         10.987                         0.013
    701       Au     1      11.000         10.987                         0.013
    702       Au     1      11.000         10.987                         0.013
    703       Au     1      11.000         10.987                         0.013
    704       Au     1      11.000         10.987                         0.013
    705       Au     1      11.000         10.987                         0.013
    706       Au     1      11.000         10.987                         0.013
    707       Au     1      11.000         10.987                         0.013
    708       Au     1      11.000         10.987                         0.013
    709       Au     1      11.000         10.987                         0.013
    710       Au     1      11.000         10.987                         0.013
    711       Au     1      11.000         10.987                         0.013
    712       Au     1      11.000         10.987                         0.013
    713       Au     1      11.000         10.987                         0.013
    714       Au     1      11.000         10.987                         0.013
    715       Au     1      11.000         10.987                         0.013
    716       Au     1      11.000         10.987                         0.013
    717       Au     1      11.000         10.987                         0.013
    718       Au     1      11.000         10.987                         0.013
    719       Au     1      11.000         10.987                         0.013
    720       Au     1      11.000         10.987                         0.013

  Total Charge                                                            0.000
 !-----------------------------------------------------------------------------!

 ENERGY| Total FORCE_EVAL ( QS ) energy (a.u.):           -23938.931658258075913


 -------------------------------------------------------------------------------
 -                                                                             -
 -                                DBCSR STATISTICS                             -
 -                                                                             -
 -------------------------------------------------------------------------------
 COUNTER                                    TOTAL       BLAS       SMM       ACC
 flops inhomo. stacks                           0       0.0%      0.0%      0.0%
 flops total                         0.000000E+00       0.0%      0.0%      0.0%
 flops max/rank                      0.000000E+00       0.0%      0.0%      0.0%
 matmuls inhomo. stacks                         0       0.0%      0.0%      0.0%
 matmuls total                                  0       0.0%      0.0%      0.0%
 number of processed stacks                     0       0.0%      0.0%      0.0%
 average stack size                                     0.0       0.0       0.0
 marketing flops                     0.000000E+00
 -------------------------------------------------------------------------------
 
 MEMORY| Estimated peak process memory [MiB]                                3178

 -------------------------------------------------------------------------------
 ----                             MULTIGRID INFO                            ----
 -------------------------------------------------------------------------------
 count for grid        1:         249936          cutoff [a.u.]          250.00
 count for grid        2:        1381440          cutoff [a.u.]           83.33
 count for grid        3:         783200          cutoff [a.u.]           27.78
 count for grid        4:         660352          cutoff [a.u.]            9.26
 total gridlevel count  :        3074928

 -------------------------------------------------------------------------------
 -                                                                             -
 -                         MESSAGE PASSING PERFORMANCE                         -
 -                                                                             -
 -------------------------------------------------------------------------------

 ROUTINE             CALLS      AVE VOLUME [Bytes]
 MP_Group              456
 MP_Bcast             3961                  76917.
 MP_Allreduce         1119                   6261.
 MP_Sync                 4
 MP_Alltoall          9745                8723997.
 MP_ISendRecv        21890                  86688.
 MP_Wait             28599
 MP_ISend             6581                2718654.
 MP_IRecv             8039                2212718.
 MP_Recv             13698                6266880.
 MP_Write_All            1                 614304.
 -------------------------------------------------------------------------------


 -------------------------------------------------------------------------------
 -                                                                             -
 -                           R E F E R E N C E S                               -
 -                                                                             -
 -------------------------------------------------------------------------------
 
 CP2K version 6.1, the CP2K developers group (2018).
 CP2K is freely available from https://www.cp2k.org/ .

 Schuett, Ole; Messmer, Peter; Hutter, Juerg; VandeVondele, Joost. 
 Electronic Structure Calculations on Graphics Processing Units, John Wiley & Sons, Ltd, 173-190 (2016). 
 GPU-Accelerated Sparse Matrix-Matrix Multiplication for Linear Scaling Density Functional Theory.
 http://dx.doi.org/10.1002/9781118670712.ch8


 Borstnik, U; VandeVondele, J; Weber, V; Hutter, J. 
 PARALLEL COMPUTING, 40 (5-6), 47-58 (2014). 
 Sparse matrix multiplication: The distributed block-compressed sparse
 row library.
 http://dx.doi.org/10.1016/j.parco.2014.03.012


 Hutter, J; Iannuzzi, M; Schiffmann, F; VandeVondele, J. 
 WILEY INTERDISCIPLINARY REVIEWS-COMPUTATIONAL MOLECULAR SCIENCE, 4 (1), 15-25 (2014). 
 CP2K: atomistic simulations of condensed matter systems.
 http://dx.doi.org/10.1002/wcms.1159


 VandeVondele, J; Hutter, J. 
 JOURNAL OF CHEMICAL PHYSICS, 127 (11), 114105 (2007). 
 Gaussian basis sets for accurate calculations on molecular systems in
 gas and condensed phases.
 http://dx.doi.org/10.1063/1.2770708


 Krack, M. 
 THEORETICAL CHEMISTRY ACCOUNTS, 114 (1-3), 145-152 (2005). 
 Pseudopotentials for H to Kr optimized for gradient-corrected
 exchange-correlation functionals.
 http://dx.doi.org/10.1007/s00214-005-0655-y


 VandeVondele, J; Krack, M; Mohamed, F; Parrinello, M; Chassaing, T;
 Hutter, J. COMPUTER PHYSICS COMMUNICATIONS, 167 (2), 103-128 (2005). 
 QUICKSTEP: Fast and accurate density functional calculations using a
 mixed Gaussian and plane waves approach.
 http://dx.doi.org/10.1016/j.cpc.2004.12.014


 Frigo, M; Johnson, SG. 
 PROCEEDINGS OF THE IEEE, 93 (2), 216-231 (2005). 
 The design and implementation of FFTW3.
 http://dx.doi.org/10.1109/JPROC.2004.840301


 Hartwigsen, C; Goedecker, S; Hutter, J. 
 PHYSICAL REVIEW B, 58 (7), 3641-3662 (1998). 
 Relativistic separable dual-space Gaussian pseudopotentials from H to Rn.
 http://dx.doi.org/10.1103/PhysRevB.58.3641


 Lippert, G; Hutter, J; Parrinello, M. 
 MOLECULAR PHYSICS, 92 (3), 477-487 (1997). 
 A hybrid Gaussian and plane wave density functional scheme.
 http://dx.doi.org/10.1080/002689797170220


 Perdew, JP; Burke, K; Ernzerhof, M. 
 PHYSICAL REVIEW LETTERS, 77 (18), 3865-3868 (1996). 
 Generalized gradient approximation made simple.
 http://dx.doi.org/10.1103/PhysRevLett.77.3865


 Goedecker, S; Teter, M; Hutter, J. 
 PHYSICAL REVIEW B, 54 (3), 1703-1710 (1996). 
 Separable dual-space Gaussian pseudopotentials.
 http://dx.doi.org/10.1103/PhysRevB.54.1703


 -------------------------------------------------------------------------------
 -                                                                             -
 -                                T I M I N G                                  -
 -                                                                             -
 -------------------------------------------------------------------------------
 SUBROUTINE                       CALLS  ASD         SELF TIME        TOTAL TIME
                                MAXIMUM       AVERAGE  MAXIMUM  AVERAGE  MAXIMUM
 CP2K                                 1  1.0      0.1      0.3 168270.4 168270.4
 qs_energies                          1  2.0      0.0      0.0 168262.4 168262.4
 scf_env_do_scf                       1  3.0      0.0      0.0 168247.9 168248.2
 scf_env_do_scf_inner_loop           27  4.0      0.0      0.1 168247.9 168248.2
 qs_scf_new_mos_kp                   27  5.0      0.0      0.0 167100.8 167103.1
 do_general_diag_kp                  27  6.0      1.2      1.9 167100.8 167103.1
 cp_cfm_geeig                        27  7.0      0.0      0.0 155144.1 156501.5
 cp_cfm_heevd                        27  8.0 117695.8 118524.6 117695.8 118524.6
 cp_cfm_triangular_multiply          81  8.0  28841.0  29478.4  28841.0  29478.4
 kpoint_density_matrices             27  7.0      0.4      1.5   8289.1   8438.8
 cp_gemm                            108  8.0      0.0      0.0   8287.8   8436.7
 cp_gemm_fm_gemm                    108  9.0      0.0      0.0   8287.8   8436.7
 cp_fm_gemm                         108 10.0   8287.8   8436.7   8287.8   8436.7
 cp_cfm_triangular_invert            27  8.0   4793.1   4834.6   4793.1   4834.6
 kpoint_set_mo_occupation            27  7.0      0.7      0.8   2067.5   4223.2
 mp_sum_dm3                          27  8.0   2066.8   4222.5   2066.8   4222.5
 cp_cfm_cholesky_decompose           27  8.0   3813.8   3944.4   3813.8   3944.4
 -------------------------------------------------------------------------------

 The number of warnings for this run is : 1
 
 -------------------------------------------------------------------------------
  **** **** ******  **  PROGRAM ENDED AT                 2022-08-15 05:32:34.024
 ***** ** ***  *** **   PROGRAM RAN ON                  cx3-8-1.cx3.hpc.ic.ac.uk
 **    ****   ******    PROGRAM RAN BY                                    jj1921
 ***** **    ** ** **   PROGRAM PROCESS ID                                646278
  **** **  *******  **  PROGRAM STOPPED IN /rds/general/user/jj1921/home/junctio
                                           n/lateral/lateral_12/elec
