ATOMS
H             0.00000000      0.00000000     -0.01205252             0.00012456     -0.00005228     -0.70710677
H             0.00000000      0.00000000      0.74206735            -0.00012456      0.00005228      0.70710677
