ATOMS
H             0.00000000      0.00000000     -0.01205252             0.00088376     -0.70001653      0.09988032
H             0.00000000      0.00000000      0.74206735             0.00088376     -0.70001653      0.09988032
