SIESTA 1.3.7  -- [1.3f1 release] (04 Feb 2004)
Architecture  : 
Compiler flags:  -O3
PARALLEL version

* Running on    4 nodes in parallel
>> Start of run:   9-NOV-2013  22:52:55

                           ***********************       
                           *  WELCOME TO SIESTA  *       
                           ***********************       

reinit: Reading from standard input
************************** Dump of input data file ****************************
#
SystemName                   mol            # Descriptive name of the system
SystemLabel                  mol            # Short name for naming files
NumberOfSpecies              1             # Number of species
NumberOfAtoms                2           # Number of atoms
%block ChemicalSpeciesLabel
 1    1   H
%endblock ChemicalSpeciesLabel
# ps
%block Ps.lmax
  H     3
%endblock Ps.lmax
# Basis
PAO.BasisType                split         # Type of basis ('nones', 'nonodes', 'split')
PAO.SplitNorm  0.15
%block PAO.Basis                           # basis
H     2      0.00
 n=1    0    2   E      2.07      0.50
   5.75  1.5
   1.000   1.000
 n=2    1    1   E      0.89      0.01
   5.500
   1.000
%endblock PAO.Basis
# lattice vectors
LatticeConstant              1.0 Ang
%block LatticeVectors
         8.86712000        0.00000000        0.00000000
         0.00000        8.86712000        0.00000000
         0.00000000        0.00000000       38.72
%endblock LatticeVectors
# coordinates
AtomicCoordinatesFormat      Ang
%block AtomicCoordinatesAndAtomicSpecies
    3.25353201    5.72009504   18.92650888   1  H          1
    3.25943360    5.72541268   19.67644731   1  H          2
%endblock AtomicCoordinatesAndAtomicSpecies
# constrains in relaxation
%block GeometryConstraints
   position 1
%endblock GeometryConstraints
# real space mesh grid
MeshCutoff                   800.0 Ry
%block GridCellSampling
  0.5  0.5   0.0
  0.5  0.0   0.5
  0.0  0.5   0.5
%endblock GridCellSampling
# reciprocal space
%block kgrid_Monkhorst_Pack
  1   0   0    0.0
  0   1   0    0.0
  0   0   1    0.0
%endblock kgrid_Monkhorst_Pack
#ProcessorY                   4
#BlockSize                    100
%block ExternalElectricField
   0.000 0.000 0.01 V/Ang
%endblock ExternalElectricField
# functional
xc.functional                GGA           # 'LDA', 'GGA'
xc.authors                   PBE           # 'CA'='PZ', 'PW92', 'PBE'
# scf
MaxSCFIterations             300
DM.MixingWeight              0.02
DM.Tolerance                 1.0E-4
DM.UseSaveDM                 T
DM.NumberPulay               6             # Pulay convergency accelerator
SolutionMethod               diagon
ElectronicTemperature        300 K         # Default value
# MD options
MD.TypeOfRun                 fc            # Type of dynamics:
MD.VariableCell              false         # if vary cell
MD.NumCGsteps                300             # Number of CG steps for relaxation
MD.MaxCGDispl                0.08 Ang     # Maximum atomic displacement at one step
MD.MaxForceTol               0.01 eV/Ang   # Tolerance in the maximum force min(fx, fy, fz)
MD.MaxStressTol              0.1 Gpa
MD.FCDispl                 0.02 ang
MD.FCIR                    T
MD.FCEigenVectors          T
MD.FCRead                  F
MD.FCAtomRestart           46
MD.FCAxisRestart           1
#Siesta Output Flags
SaveHS                       F           # Hamiltonian and overlap in sparse
SaveRHO                      T
WriteMullikenPop             1
WriteForces                  T
WriteCoorStep                T
SaveElectrostaticPotential   T             # Hartree Potential file
************************** End of input data file *****************************

reinit: -----------------------------------------------------------------------
reinit: System Name: mol                                                        
reinit: -----------------------------------------------------------------------
reinit: System Label: mol                 
reinit: -----------------------------------------------------------------------

initatom: Reading input for the pseudopotentials and atomic orbitals ----------
 Species number:            1  Label: H Atomic number:           1
Ground state valence configuration:   1s01
Reading pseudopotential information in formatted form from H.psf
relmxkb: Read Max KB Ang. Momentum=    3 for species H

<basis_specs>
===============================================================================
H                    Z=   1    Mass=  1.0100        Charge=  0.0000    
Lmxo=1 Lmxkb=3     BasisType=split      Semic=F
L=0  Nsemic=0  Cnfigmx=1
          n=1  nzeta=2  polorb=0
               vcte:    2.0700    
               rinn:   0.50000    
                rcs:    5.7500      1.5000    
            lambdas:    1.0000      1.0000    
L=1  Nsemic=0  Cnfigmx=2
          n=1  nzeta=1  polorb=0
               vcte:   0.89000    
               rinn:   0.10000E-01
                rcs:    5.5000    
            lambdas:    1.0000    
-------------------------------------------------------------------------------
L=0  Nkbl=1  erefs: 0.17977+309
L=1  Nkbl=1  erefs: 0.17977+309
L=2  Nkbl=1  erefs: 0.17977+309
L=3  Nkbl=1  erefs: 0.17977+309
===============================================================================
</basis_specs>

atom: Called for H   (Z =   1)

read_vps: Pseudopotential generation method:
read_vps: ATM3      Troullier-Martins                       

read_vps: Valence configuration (pseudopotential and basis set generation):
1s( 1.00) rc: 1.89
2p( 0.00) rc: 1.80
3d( 0.00) rc: 1.49
4f( 0.00) rc: 1.49
read_vps: Spin-orbit interaction is not included in this calculation
Total valence charge:    1.00000

xc_check: Exchange-correlation functional:
xc_check: GGA Perdew, Burke & Ernzerhof 1996
V l=0 = -2*Zval/r beyond r=  1.8658
V l=1 = -2*Zval/r beyond r=  1.7970
V l=2 = -2*Zval/r beyond r=  1.8196
V l=3 = -2*Zval/r beyond r=  1.8196
All V_l potentials equal beyond r=  1.8658
This should be close to max(r_c) in ps generation
All pots = -2*Zval/r beyond r=  1.8658

VLOCAL1: 99.0% of the norm of Vloc inside     12.470 Ry
VLOCAL1: 99.9% of the norm of Vloc inside     28.418 Ry
atom: Maximum radius for 4*pi*r*r*local-pseudopot. charge    2.16811
atom: Maximum radius for r*vlocal+2*Zval:    1.84256
GHOST: No ghost state for L =  0
GHOST: No ghost state for L =  1
GHOST: No ghost state for L =  2
GHOST: No ghost state for L =  3

KBgen: Kleinman-Bylander projectors: 
   l= 0   rc=  2.011274   el= -0.477200   Ekb= -1.572097   kbcos= -0.493163
   l= 1   rc=  2.141150   el=  0.001076   Ekb= -0.356432   kbcos= -0.050277
   l= 2   rc=  2.195416   el=  0.002010   Ekb= -0.177656   kbcos= -0.007774
   l= 3   rc=  2.251056   el=  0.003122   Ekb= -0.068270   kbcos= -0.002268

KBgen: Total number of  Kleinman-Bylander projectors:   16
atom: -------------------------------------------------------------------------

atom: SANKEY-TYPE ORBITALS:
atom: Selected multiple-zeta basis: split     

SPLIT: Orbitals with angular momentum L= 0

SPLIT: Basis orbitals for state 1s

   izeta = 1
                 lambda =    1.000000
                     rc =    5.752124
                 energy =   -0.469599
                kinetic =    0.919264
    potential(screened) =   -1.388863
       potential(ionic) =   -1.911599

   izeta = 2
                 rmatch =    1.527112
              splitnorm =    0.807394
                 energy =    2.126033
                kinetic =    5.261681
    potential(screened) =   -3.135649
       potential(ionic) =   -3.696632

SPLIT: Orbitals with angular momentum L= 1

SPLIT: Basis orbitals for state 2p

   izeta = 1
                 lambda =    1.000000
                     rc =    5.471469
                 energy =    0.371359
                kinetic =    0.737398
    potential(screened) =   -0.366040
       potential(ionic) =   -0.791603
atom: Total number of Sankey-type orbitals:  5

atm_pop: Valence configuration(local Pseudopot. screening):
 1s( 1.00)                                                            
 2p( 0.00)                                                            
Vna: chval, zval:    1.00000   1.00000

Vna:  Cut-off radius for the neutral-atom potential:   5.752124

atom: _________________________________________________________________________

prinput: Basis input ----------------------------------------------------------

PAO.BasisType split     

%block ChemicalSpeciesLabel
    1    1 H                       # Species index, atomic number, species label
%endblock ChemicalSpeciesLabel

%block PAO.Basis                 # Define Basis set
H           2                    # Species label, number of l-shells
 n=1   0   2                         # n, l, Nzeta 
   5.752      1.527   
   1.000      1.000   
 n=2   1   1                         # n, l, Nzeta 
   5.471   
   1.000   
%endblock PAO.Basis

prinput: ----------------------------------------------------------------------


siesta: ******************** Simulation parameters ****************************
siesta:
siesta: The following are some of the parameters of the simulation.
siesta: A complete list of the parameters used, including defect values,
siesta: can be found in file out.fdf
siesta:
coor:   Atomic-coordinates input format  =     Cartesian coordinates
coor:                                          (in Angstroms)
redata: Number of spin components        =     1
redata: SpinOrbit                        =     0
redata: Long output                      =     F
redata: Number of Atomic Species         =     1
redata: Charge density info will appear in .RHO file
redata: Write Mulliken Pop.              =     Atomic and Orbital charges
redata: Mesh Cutoff                      =   800.0000  Ry
redata: Net charge of the system         =     0.0000 |e|
redata: Max. number of SCF Iter          =   300
redata: One Pulay mixing every           =     6 iterations
redata: Mix DM in first SCF step ?       =     F
redata: Write Pulay info on disk?        =     F
redata: New DM Mixing Weight             =     0.0200
redata: No kicks to SCF
redata: DM Mixing Weight for Kicks       =     0.5000
redata: DM Tolerance for SCF             =     0.000100
redata: Use continuation files for DM    =     T
redata: Neglect nonoverlap interactions  =     F
redata: Method of Calculation            =     Diagonalization
redata: Divide and Conquer               =     F
redata: Electronic Temperature           =     0.0019  Ry
redata: Fix the spin of the system       =     F
redata: Dynamics option                  =     Force Constants Matrix Calculation
redata: Atomic displ for force constants =     0.0378  Bohr
redata: First atom to move               =      1
redata: Last atom to move                =      2
redata: Read previous FC                 =     F
redata: Acoustic sum rule                =     T
redata: Calculate Eigen Vectors          =     T
redata: Calculate Infrared Intensity     =     T
redata: ***********************************************************************

siesta: Atomic coordinates (Bohr) and species
siesta:      6.14829  10.80942  35.76593  1        1
siesta:      6.15944  10.81947  37.18311  1        2

initatomlists: Number of atoms, orbitals, and projectors:      2    10    32

siesta: System type = molecule  
 Nodes, Orbitals           4          10
 blocksizedefault           2

* ProcessorY, Blocksize:    2   2

 Using EM.ParallelOverKNum =           1
 label:           1 H                              1 s      
 label:           2 H                              1 s      
 label:           3 H                              1 py     
 label:           4 H                              1 pz     
 label:           5 H                              1 px     
 label:           6 H                              2 s      
 label:           7 H                              2 s      
 label:           8 H                              2 py     
 label:           9 H                              2 pz     
 label:          10 H                              2 px     
 
* Maximum dynamic memory allocated =     1 MB

siesta:                 ==============================
                        Begin FC step =     0 of    12
                            Undisplaced coordinates
                        ==============================

outcoor: Atomic coordinates (Ang):                          
    3.25353201    5.72009504   18.92650888   1  H          1
    3.25943360    5.72541268   19.67644731   1  H          2

read_ldau The LDA+U method used is from Czyzky PRB 49 14211

iodm: Reading Density Matrix from files

mol.DM                           

InitMesh: MESH =   160 x   160 x   720 =    18432000
InitMesh: Mesh cutoff (required, used) =   800.000   899.863 Ry

efield: External electric field =    0.000000    0.000000    0.000389 Ry/Bohr/e
 
* Maximum dynamic memory allocated =   250 MB

stepf: Fermi-Dirac step function

siesta: Program's energy decomposition (eV):
siesta: Eions   =        26.074526
siesta: Ena     =         4.296123
siesta: Ekin    =        26.391640
siesta: Enl     =       -17.162975
siesta: DEna    =        -1.459999
siesta: DUscf   =         0.252122
siesta: DUext   =        -0.000007
siesta: Exc     =       -17.578320
siesta: eta*DQ  =         0.000000
siesta: Emadel  =         0.000000
siesta: Eharris =       -31.335942
siesta: Eso     =         0.000000
siesta: Etot    =       -31.335942
siesta: FreeEng =       -31.335942

siesta: iscf   Eharris(eV)      E_KS(eV)   FreeEng(eV)     dDmax   Ef(eV)
siesta:    1      -31.3359      -31.3359      -31.3359   0.00000  -4.8930
timer: Routine,Calls,Time,% = IterSCF        1      39.697  94.25
grdsam: Reading %block GridCellSampling
grdsam: Grid-cell sampling, point   0
grdsam: Generating displacements for grid-cell sampling
grdsam: Grid-cell sampling, point   1
grdsam: Grid-cell sampling, point   2
grdsam: Grid-cell sampling, point   3

siesta: E_KS(eV) =              -31.3359

siesta: E_KS - E_eggbox =       -31.3359

siesta: Atomic forces (eV/Ang):
     1   -0.000015   -0.000016    0.000708
     2    0.000022    0.000022   -0.000625
----------------------------------------
 Tot    0.000007    0.000006    0.000082
----------------------------------------
 Max    0.000708
 Res    0.000386    sqrt( Sum f_i^2 / 3N )
----------------------------------------
 Max    0.000625    constrained
 
mulliken: Atomic and Orbital Populations:

Species: H                   
Atom  Qatom  Qorb
               1s      1s      2py     2pz     2px     
   1  1.000   0.903   0.083   0.000   0.014   0.000
   2  1.000   0.902   0.083   0.000   0.014   0.000

mulliken: Qtot =    2.000
 
* Maximum dynamic memory allocated =   250 MB

siesta:                 ==============================
                        Begin FC step =     1 of    12
                            displace atom        1
                            in direction         1
                        by  -0.0378 Bohr =  -0.0200 Ang
                        ==============================

outcoor: Atomic coordinates (Ang):                          
    3.23353201    5.72009504   18.92650888   1  H          1
    3.25943360    5.72541268   19.67644731   1  H          2

siesta: iscf   Eharris(eV)      E_KS(eV)   FreeEng(eV)     dDmax   Ef(eV)
siesta:    1      -31.3359      -31.3359      -31.3359   0.00065  -4.8904
siesta:    2      -31.3359      -31.3359      -31.3359   0.00002  -4.8917
grdsam: Grid-cell sampling, point   0
grdsam: Grid-cell sampling, point   1
grdsam: Grid-cell sampling, point   2
grdsam: Grid-cell sampling, point   3

siesta: E_KS(eV) =              -31.3359

siesta: Atomic forces (eV/Ang):
     1    0.000622    0.000070    0.015578
     2   -0.000579   -0.000084   -0.015501
----------------------------------------
 Tot    0.000043   -0.000015    0.000077
----------------------------------------
 Max    0.015578
 Res    0.008979    sqrt( Sum f_i^2 / 3N )
----------------------------------------
 Max    0.015501    constrained
 
mulliken: Atomic and Orbital Populations:

Species: H                   
Atom  Qatom  Qorb
               1s      1s      2py     2pz     2px     
   1  1.000   0.903   0.083   0.000   0.014   0.000
   2  1.000   0.902   0.083   0.000   0.014   0.000

mulliken: Qtot =    2.000
 
* Maximum dynamic memory allocated =   251 MB

siesta:                 ==============================
                        Begin FC step =     2 of    12
                            displace atom        1
                            in direction         1
                        by   0.0378 Bohr =   0.0200 Ang
                        ==============================

outcoor: Atomic coordinates (Ang):                          
    3.27353201    5.72009504   18.92650888   1  H          1
    3.25943360    5.72541268   19.67644731   1  H          2

siesta: iscf   Eharris(eV)      E_KS(eV)   FreeEng(eV)     dDmax   Ef(eV)
siesta:    1      -31.3359      -31.3359      -31.3359   0.00129  -4.8938
siesta:    2      -31.3359      -31.3359      -31.3359   0.00005  -4.8926
grdsam: Grid-cell sampling, point   0
grdsam: Grid-cell sampling, point   1
grdsam: Grid-cell sampling, point   2
grdsam: Grid-cell sampling, point   3

siesta: E_KS(eV) =              -31.3359

siesta: Atomic forces (eV/Ang):
     1   -0.000078    0.000087    0.004912
     2    0.000112   -0.000007   -0.004841
----------------------------------------
 Tot    0.000034    0.000080    0.000070
----------------------------------------
 Max    0.004912
 Res    0.002816    sqrt( Sum f_i^2 / 3N )
----------------------------------------
 Max    0.004841    constrained
 
mulliken: Atomic and Orbital Populations:

Species: H                   
Atom  Qatom  Qorb
               1s      1s      2py     2pz     2px     
   1  1.000   0.903   0.083   0.000   0.014   0.000
   2  1.000   0.902   0.083   0.000   0.014   0.000

mulliken: Qtot =    2.000
 
* Maximum dynamic memory allocated =   251 MB

siesta:                 ==============================
                        Begin FC step =     3 of    12
                            displace atom        1
                            in direction         2
                        by  -0.0378 Bohr =  -0.0200 Ang
                        ==============================

outcoor: Atomic coordinates (Ang):                          
    3.25353201    5.70009504   18.92650888   1  H          1
    3.25943360    5.72541268   19.67644731   1  H          2

siesta: iscf   Eharris(eV)      E_KS(eV)   FreeEng(eV)     dDmax   Ef(eV)
siesta:    1      -31.3359      -31.3359      -31.3359   0.00065  -4.8907
siesta:    2      -31.3359      -31.3359      -31.3359   0.00002  -4.8918
grdsam: Grid-cell sampling, point   0
grdsam: Grid-cell sampling, point   1
grdsam: Grid-cell sampling, point   2
grdsam: Grid-cell sampling, point   3

siesta: E_KS(eV) =              -31.3359

siesta: Atomic forces (eV/Ang):
     1    0.000081    0.000525    0.015067
     2   -0.000098   -0.000479   -0.014991
----------------------------------------
 Tot   -0.000017    0.000046    0.000076
----------------------------------------
 Max    0.015067
 Res    0.008682    sqrt( Sum f_i^2 / 3N )
----------------------------------------
 Max    0.014991    constrained
 
mulliken: Atomic and Orbital Populations:

Species: H                   
Atom  Qatom  Qorb
               1s      1s      2py     2pz     2px     
   1  1.000   0.903   0.083   0.000   0.014   0.000
   2  1.000   0.902   0.083   0.000   0.014   0.000

mulliken: Qtot =    2.000
 
* Maximum dynamic memory allocated =   251 MB

siesta:                 ==============================
                        Begin FC step =     4 of    12
                            displace atom        1
                            in direction         2
                        by   0.0378 Bohr =   0.0200 Ang
                        ==============================

outcoor: Atomic coordinates (Ang):                          
    3.25353201    5.74009504   18.92650888   1  H          1
    3.25943360    5.72541268   19.67644731   1  H          2

siesta: iscf   Eharris(eV)      E_KS(eV)   FreeEng(eV)     dDmax   Ef(eV)
siesta:    1      -31.3359      -31.3359      -31.3359   0.00129  -4.8936
siesta:    2      -31.3359      -31.3359      -31.3359   0.00005  -4.8925
grdsam: Grid-cell sampling, point   0
grdsam: Grid-cell sampling, point   1
grdsam: Grid-cell sampling, point   2
grdsam: Grid-cell sampling, point   3

siesta: E_KS(eV) =              -31.3359

siesta: Atomic forces (eV/Ang):
     1    0.000092   -0.000080    0.005443
     2   -0.000014    0.000115   -0.005371
----------------------------------------
 Tot    0.000078    0.000035    0.000072
----------------------------------------
 Max    0.005443
 Res    0.003123    sqrt( Sum f_i^2 / 3N )
----------------------------------------
 Max    0.005371    constrained
 
mulliken: Atomic and Orbital Populations:

Species: H                   
Atom  Qatom  Qorb
               1s      1s      2py     2pz     2px     
   1  1.000   0.903   0.083   0.000   0.014   0.000
   2  1.000   0.902   0.083   0.000   0.014   0.000

mulliken: Qtot =    2.000
 
* Maximum dynamic memory allocated =   251 MB

siesta:                 ==============================
                        Begin FC step =     5 of    12
                            displace atom        1
                            in direction         3
                        by  -0.0378 Bohr =  -0.0200 Ang
                        ==============================

outcoor: Atomic coordinates (Ang):                          
    3.25353201    5.72009504   18.90650888   1  H          1
    3.25943360    5.72541268   19.67644731   1  H          2

siesta: iscf   Eharris(eV)      E_KS(eV)   FreeEng(eV)     dDmax   Ef(eV)
siesta:    1      -31.3293      -31.3273      -31.3273   0.00507  -4.7708
siesta:    2      -31.3291      -31.3291      -31.3291   0.00062  -4.8307
siesta:    3      -31.3291      -31.3289      -31.3289   0.00022  -4.8245
siesta:    4      -31.3291      -31.3291      -31.3291   0.00002  -4.8251
grdsam: Grid-cell sampling, point   0
grdsam: Grid-cell sampling, point   1
grdsam: Grid-cell sampling, point   2
grdsam: Grid-cell sampling, point   3

siesta: E_KS(eV) =              -31.3291

siesta: Atomic forces (eV/Ang):
     1    0.005102    0.004823    0.666514
     2   -0.005081   -0.004799   -0.666521
----------------------------------------
 Tot    0.000021    0.000024   -0.000006
----------------------------------------
 Max    0.666521
 Res    0.384835    sqrt( Sum f_i^2 / 3N )
----------------------------------------
 Max    0.666521    constrained
 
mulliken: Atomic and Orbital Populations:

Species: H                   
Atom  Qatom  Qorb
               1s      1s      2py     2pz     2px     
   1  1.000   0.908   0.079   0.000   0.014   0.000
   2  1.000   0.907   0.079   0.000   0.014   0.000

mulliken: Qtot =    2.000
 
* Maximum dynamic memory allocated =   251 MB

siesta:                 ==============================
                        Begin FC step =     6 of    12
                            displace atom        1
                            in direction         3
                        by   0.0378 Bohr =   0.0200 Ang
                        ==============================

outcoor: Atomic coordinates (Ang):                          
    3.25353201    5.72009504   18.94650888   1  H          1
    3.25943360    5.72541268   19.67644731   1  H          2

siesta: iscf   Eharris(eV)      E_KS(eV)   FreeEng(eV)     dDmax   Ef(eV)
siesta:    1      -31.3291      -31.3210      -31.3210   0.01022  -5.0765
siesta:    2      -31.3284      -31.3283      -31.3283   0.00138  -4.9484
siesta:    3      -31.3284      -31.3276      -31.3276   0.00043  -4.9631
siesta:    4      -31.3284      -31.3284      -31.3284   0.00010  -4.9601
siesta:    5      -31.3284      -31.3284      -31.3284   0.00010  -4.9601
siesta:    6      -31.3284      -31.3284      -31.3284   0.00010  -4.9601
grdsam: Grid-cell sampling, point   0
grdsam: Grid-cell sampling, point   1
grdsam: Grid-cell sampling, point   2
grdsam: Grid-cell sampling, point   3

siesta: E_KS(eV) =              -31.3284

siesta: Atomic forces (eV/Ang):
     1   -0.006272   -0.005651   -0.775788
     2    0.006301    0.005680    0.775890
----------------------------------------
 Tot    0.000029    0.000029    0.000102
----------------------------------------
 Max    0.775890
 Res    0.447957    sqrt( Sum f_i^2 / 3N )
----------------------------------------
 Max    0.775890    constrained
 
mulliken: Atomic and Orbital Populations:

Species: H                   
Atom  Qatom  Qorb
               1s      1s      2py     2pz     2px     
   1  1.000   0.898   0.088   0.000   0.014   0.000
   2  1.000   0.897   0.088   0.000   0.014   0.000

mulliken: Qtot =    2.000
 
* Maximum dynamic memory allocated =   251 MB

siesta:                 ==============================
                        Begin FC step =     7 of    12
                            displace atom        2
                            in direction         1
                        by  -0.0378 Bohr =  -0.0200 Ang
                        ==============================

outcoor: Atomic coordinates (Ang):                          
    3.25353201    5.72009504   18.92650888   1  H          1
    3.23943360    5.72541268   19.67644731   1  H          2

siesta: iscf   Eharris(eV)      E_KS(eV)   FreeEng(eV)     dDmax   Ef(eV)
siesta:    1      -31.3361      -31.3340      -31.3340   0.00526  -4.8346
siesta:    2      -31.3359      -31.3359      -31.3359   0.00068  -4.8987
siesta:    3      -31.3359      -31.3357      -31.3357   0.00022  -4.8917
siesta:    4      -31.3359      -31.3359      -31.3359   0.00002  -4.8924
grdsam: Grid-cell sampling, point   0
grdsam: Grid-cell sampling, point   1
grdsam: Grid-cell sampling, point   2
grdsam: Grid-cell sampling, point   3

siesta: E_KS(eV) =              -31.3359

siesta: Atomic forces (eV/Ang):
     1   -0.000376    0.000019    0.006039
     2    0.000355   -0.000072   -0.005956
----------------------------------------
 Tot   -0.000021   -0.000052    0.000083
----------------------------------------
 Max    0.006039
 Res    0.003469    sqrt( Sum f_i^2 / 3N )
----------------------------------------
 Max    0.005956    constrained
 
mulliken: Atomic and Orbital Populations:

Species: H                   
Atom  Qatom  Qorb
               1s      1s      2py     2pz     2px     
   1  1.000   0.903   0.083   0.000   0.014   0.000
   2  1.000   0.902   0.083   0.000   0.014   0.000

mulliken: Qtot =    2.000
 
* Maximum dynamic memory allocated =   251 MB

siesta:                 ==============================
                        Begin FC step =     8 of    12
                            displace atom        2
                            in direction         1
                        by   0.0378 Bohr =   0.0200 Ang
                        ==============================

outcoor: Atomic coordinates (Ang):                          
    3.25353201    5.72009504   18.92650888   1  H          1
    3.27943360    5.72541268   19.67644731   1  H          2

siesta: iscf   Eharris(eV)      E_KS(eV)   FreeEng(eV)     dDmax   Ef(eV)
siesta:    1      -31.3359      -31.3359      -31.3359   0.00129  -4.8905
siesta:    2      -31.3359      -31.3359      -31.3359   0.00005  -4.8917
grdsam: Grid-cell sampling, point   0
grdsam: Grid-cell sampling, point   1
grdsam: Grid-cell sampling, point   2
grdsam: Grid-cell sampling, point   3

siesta: E_KS(eV) =              -31.3359

siesta: Atomic forces (eV/Ang):
     1    0.000489    0.000088    0.015575
     2   -0.000535   -0.000079   -0.015497
----------------------------------------
 Tot   -0.000046    0.000009    0.000078
----------------------------------------
 Max    0.015575
 Res    0.008975    sqrt( Sum f_i^2 / 3N )
----------------------------------------
 Max    0.015497    constrained
 
mulliken: Atomic and Orbital Populations:

Species: H                   
Atom  Qatom  Qorb
               1s      1s      2py     2pz     2px     
   1  1.000   0.903   0.083   0.000   0.014   0.000
   2  1.000   0.902   0.083   0.000   0.014   0.000

mulliken: Qtot =    2.000
 
* Maximum dynamic memory allocated =   251 MB

siesta:                 ==============================
                        Begin FC step =     9 of    12
                            displace atom        2
                            in direction         2
                        by  -0.0378 Bohr =  -0.0200 Ang
                        ==============================

outcoor: Atomic coordinates (Ang):                          
    3.25353201    5.72009504   18.92650888   1  H          1
    3.25943360    5.70541268   19.67644731   1  H          2

siesta: iscf   Eharris(eV)      E_KS(eV)   FreeEng(eV)     dDmax   Ef(eV)
siesta:    1      -31.3359      -31.3359      -31.3359   0.00065  -4.8936
siesta:    2      -31.3359      -31.3359      -31.3359   0.00002  -4.8925
grdsam: Grid-cell sampling, point   0
grdsam: Grid-cell sampling, point   1
grdsam: Grid-cell sampling, point   2
grdsam: Grid-cell sampling, point   3

siesta: E_KS(eV) =              -31.3359

siesta: Atomic forces (eV/Ang):
     1    0.000003   -0.000138    0.005466
     2   -0.000053    0.000117   -0.005386
----------------------------------------
 Tot   -0.000050   -0.000021    0.000080
----------------------------------------
 Max    0.005466
 Res    0.003134    sqrt( Sum f_i^2 / 3N )
----------------------------------------
 Max    0.005386    constrained
 
mulliken: Atomic and Orbital Populations:

Species: H                   
Atom  Qatom  Qorb
               1s      1s      2py     2pz     2px     
   1  1.000   0.903   0.083   0.000   0.014   0.000
   2  1.000   0.902   0.083   0.000   0.014   0.000

mulliken: Qtot =    2.000
 
* Maximum dynamic memory allocated =   251 MB

siesta:                 ==============================
                        Begin FC step =    10 of    12
                            displace atom        2
                            in direction         2
                        by   0.0378 Bohr =   0.0200 Ang
                        ==============================

outcoor: Atomic coordinates (Ang):                          
    3.25353201    5.72009504   18.92650888   1  H          1
    3.25943360    5.74541268   19.67644731   1  H          2

siesta: iscf   Eharris(eV)      E_KS(eV)   FreeEng(eV)     dDmax   Ef(eV)
siesta:    1      -31.3359      -31.3359      -31.3359   0.00129  -4.8908
siesta:    2      -31.3359      -31.3359      -31.3359   0.00005  -4.8918
grdsam: Grid-cell sampling, point   0
grdsam: Grid-cell sampling, point   1
grdsam: Grid-cell sampling, point   2
grdsam: Grid-cell sampling, point   3

siesta: E_KS(eV) =              -31.3359

siesta: Atomic forces (eV/Ang):
     1    0.000098    0.000445    0.015087
     2   -0.000086   -0.000495   -0.015007
----------------------------------------
 Tot    0.000012   -0.000050    0.000081
----------------------------------------
 Max    0.015087
 Res    0.008692    sqrt( Sum f_i^2 / 3N )
----------------------------------------
 Max    0.015007    constrained
 
mulliken: Atomic and Orbital Populations:

Species: H                   
Atom  Qatom  Qorb
               1s      1s      2py     2pz     2px     
   1  1.000   0.903   0.083   0.000   0.014   0.000
   2  1.000   0.902   0.083   0.000   0.014   0.000

mulliken: Qtot =    2.000
 
* Maximum dynamic memory allocated =   251 MB

siesta:                 ==============================
                        Begin FC step =    11 of    12
                            displace atom        2
                            in direction         3
                        by  -0.0378 Bohr =  -0.0200 Ang
                        ==============================

outcoor: Atomic coordinates (Ang):                          
    3.25353201    5.72009504   18.92650888   1  H          1
    3.25943360    5.72541268   19.65644731   1  H          2

siesta: iscf   Eharris(eV)      E_KS(eV)   FreeEng(eV)     dDmax   Ef(eV)
siesta:    1      -31.3286      -31.3264      -31.3264   0.00528  -5.0209
siesta:    2      -31.3284      -31.3283      -31.3283   0.00072  -4.9546
siesta:    3      -31.3284      -31.3282      -31.3282   0.00023  -4.9622
siesta:    4      -31.3284      -31.3284      -31.3284   0.00003  -4.9610
grdsam: Grid-cell sampling, point   0
grdsam: Grid-cell sampling, point   1
grdsam: Grid-cell sampling, point   2
grdsam: Grid-cell sampling, point   3

siesta: E_KS(eV) =              -31.3284

siesta: Atomic forces (eV/Ang):
     1   -0.006308   -0.005773   -0.777680
     2    0.006269    0.005730    0.777743
----------------------------------------
 Tot   -0.000040   -0.000043    0.000062
----------------------------------------
 Max    0.777743
 Res    0.449039    sqrt( Sum f_i^2 / 3N )
----------------------------------------
 Max    0.777743    constrained
 
mulliken: Atomic and Orbital Populations:

Species: H                   
Atom  Qatom  Qorb
               1s      1s      2py     2pz     2px     
   1  1.000   0.898   0.088   0.000   0.014   0.000
   2  1.000   0.897   0.088   0.000   0.014   0.000

mulliken: Qtot =    2.000
 
* Maximum dynamic memory allocated =   251 MB

siesta:                 ==============================
                        Begin FC step =    12 of    12
                            displace atom        2
                            in direction         3
                        by   0.0378 Bohr =   0.0200 Ang
                        ==============================

outcoor: Atomic coordinates (Ang):                          
    3.25353201    5.72009504   18.92650888   1  H          1
    3.25943360    5.72541268   19.69644731   1  H          2

siesta: iscf   Eharris(eV)      E_KS(eV)   FreeEng(eV)     dDmax   Ef(eV)
siesta:    1      -31.3297      -31.3217      -31.3217   0.01026  -4.7145
siesta:    2      -31.3291      -31.3290      -31.3290   0.00127  -4.8360
siesta:    3      -31.3291      -31.3283      -31.3283   0.00043  -4.8231
siesta:    4      -31.3291      -31.3290      -31.3290   0.00009  -4.8241
grdsam: Grid-cell sampling, point   0
grdsam: Grid-cell sampling, point   1
grdsam: Grid-cell sampling, point   2
grdsam: Grid-cell sampling, point   3

siesta: E_KS(eV) =              -31.3290

siesta: Atomic forces (eV/Ang):
     1    0.005108    0.004598    0.669659
     2   -0.005125   -0.004617   -0.669652
----------------------------------------
 Tot   -0.000017   -0.000019    0.000007
----------------------------------------
 Max    0.669659
 Res    0.386646    sqrt( Sum f_i^2 / 3N )
----------------------------------------
 Max    0.669652    constrained
 
mulliken: Atomic and Orbital Populations:

Species: H                   
Atom  Qatom  Qorb
               1s      1s      2py     2pz     2px     
   1  1.000   0.908   0.079   0.000   0.014   0.000
   2  1.000   0.907   0.079   0.000   0.014   0.000

mulliken: Qtot =    2.000
 
* Maximum dynamic memory allocated =   251 MB

outcoor: Final (unrelaxed) atomic coordinates (Ang):        
    3.25353201    5.72009504   18.92650888   1  H          1
    3.25943360    5.72541268   19.67644731   1  H          2

siesta: Eigenvalues (eV):
  ik is    eps
   1  1 -10.96   1.36   4.19   4.19   9.67  10.78  10.78  17.35  44.24  89.13
siesta: Fermi energy =      -4.824143 eV

siesta: Program's energy decomposition (eV):
siesta:-Eions   =     -26.074526
siesta: Ena     =       4.056525
siesta: Ekin    =      25.972843
siesta: Enl     =     -16.713655
siesta: DEna    =      -1.362003
siesta: DUscf   =       0.229745
siesta: DUext   =      -0.000007
siesta: Exc     =     -17.437953
siesta: eta*DQ  =       0.000000
siesta: Emadel  =       0.000000
siesta: Ekinion =       0.000000
siesta: Eharris =     -31.329102
siesta: Eso     =       0.000000
siesta: Etot    =     -31.329030
siesta: FreeEng =     -31.329030

siesta: Final energy (eV):
siesta:       Kinetic =      25.972843
siesta:       Hartree =      35.245234
siesta:    Ext. field =      -0.000007
siesta:   Exch.-corr. =     -17.437953
siesta:  Ion-electron =     -95.989791
siesta:       Ion-ion =      20.880644
siesta:       Ekinion =       0.000000
siesta:         Total =     -31.329030

siesta: Atomic forces (eV/Ang):
siesta:    1    0.005108    0.004598    0.669659
siesta:    2   -0.005125   -0.004617   -0.669652
siesta: ----------------------------------------
siesta:  Tot   -0.000017   -0.000019    0.000007

siesta: Constrained forces (eV/Ang):
siesta:    1    0.000000    0.000000    0.000000
siesta:    2   -0.005125   -0.004617   -0.669652
siesta: ----------------------------------------
siesta:  Tot   -0.005125   -0.004617   -0.669652

siesta: Stress tensor (static) (eV/Ang**3):
siesta:     0.000000    0.000000    0.000001
siesta:     0.000000    0.000000    0.000001
siesta:     0.000001    0.000001    0.000169

siesta: Cell volume =       3044.391638 Ang**3

siesta: Pressure (static):
siesta:                Solid            Molecule  Units
siesta:          -0.00000061          0.00000000  Ry/Bohr**3
siesta:          -0.00005645          0.00000001  eV/Ang**3
siesta:          -0.09044597          0.00001197  kBar

siesta: Total spin polarization (Qup-Qdown) =    0.000000
siesta: Spin vector =    0.000000    0.000000    0.000000
siesta: No SpinPolK block detected...

siesta: Electric dipole (a.u.)  =    0.000003    0.000002    0.001391
siesta: Electric dipole (Debye) =    0.000007    0.000006    0.003535

siesta: Vibrational frequency (cm^-1) & IR (a.u.) (Acoustic sum rule):
 eigenvalue #    1   omega =    0.000001    IR =    0.000000 
 eigenvalue #    2   omega =    0.000022    IR =    0.000000 
 eigenvalue #    3   omega =    0.000025    IR =    0.000000 
 eigenvalue #    4   omega =   83.568972    IR =    0.000000 
 eigenvalue #    5   omega =   96.962621    IR =    0.000000 
 eigenvalue #    6   omega = 4410.542288    IR =    0.000007 
 
* Maximum dynamic memory allocated : Node    0 =   243 MB
* Maximum dynamic memory allocated : Node    1 =   242 MB
* Maximum dynamic memory allocated : Node    2 =   251 MB
* Maximum dynamic memory allocated : Node    3 =   251 MB
* Maximum memory occured during redistribXZ                   

timer: CPU execution times:
timer:  Routine       Calls   Time/call    Tot.time        %
timer:  siesta            1    2441.310    2441.310   100.00
timer:  Setup             1       2.272       2.272     0.09
timer:  bands             1       0.004       0.004     0.00
timer:  writewave         1       0.008       0.008     0.00
timer:  KSV_init          1       0.000       0.000     0.00
timer:  IterMD           13     184.093    2393.213    98.03
timer:  hsparse          14       0.001       0.008     0.00
timer:  overfsm          26       0.004       0.097     0.00
timer:  IterSCF          50      47.665    2383.236    97.62
timer:  kinefsm          26       0.002       0.061     0.00
timer:  nlefsm           26       0.035       0.900     0.04
timer:  DHSCF            90      26.957    2426.085    99.38
timer:  DHSCF1            1       7.650       7.650     0.31
timer:  DHSCF2           53      11.729     621.639    25.46
timer:  REORD          1370       0.056      76.414     3.13
timer:  POISON          143       9.064    1296.155    53.09
timer:  DHSCF3           90      19.011    1710.989    70.08
timer:  rhoofd           90       0.173      15.531     0.64
timer:  CELLXC           90       5.387     484.800    19.86
timer:  vmat             50       0.130       6.523     0.27
timer:  diagon           37       0.038       1.403     0.06
timer:  rdiag            37       0.032       1.173     0.05
timer:  DHSCF4           52       1.640      85.278     3.49
timer:  dfscf            52       1.335      69.410     2.84
  
>> End of run:   9-NOV-2013  23:03:54
