 DBCSR| CPU Multiplication driver                                           XSMM
 DBCSR| Multrec recursion limit                                              512
 DBCSR| Multiplication stack size                                           1000
 DBCSR| Maximum elements for images                                    UNLIMITED
 DBCSR| Multiplicative factor virtual images                                   1
 DBCSR| Use multiplication densification                                       T
 DBCSR| Multiplication size stacks                                             3
 DBCSR| Use memory pool for CPU allocation                                     F
 DBCSR| Number of 3D layers                                               SINGLE
 DBCSR| Use MPI memory allocation                                              F
 DBCSR| Use RMA algorithm                                                      F
 DBCSR| Use Communication thread                                               T
 DBCSR| Communication thread load                                             87
 DBCSR| MPI: My node id                                                        0
 DBCSR| MPI: Number of nodes                                                 128
 DBCSR| OMP: Current number of threads                                         1
 DBCSR| OMP: Max number of threads                                             1
 DBCSR| Split modifier for TAS multiplication algorithm                  1.0E+00


  **** **** ******  **  PROGRAM STARTED AT               2023-04-03 14:02:32.497
 ***** ** ***  *** **   PROGRAM STARTED ON                             nid003584
 **    ****   ******    PROGRAM STARTED BY                                cahart
 ***** **    ** ** **   PROGRAM PROCESS ID                                 75466
  **** **  *******  **  PROGRAM STARTED IN /mnt/lustre/a2fs-work2/work/e05/e05/c
                                           ahart/postdoc/transport/AuH2/cp2k-sme
                                           agol/archer_lda/leads/kpoints-3-3-20_
                                           hlb-auto

 CP2K| version string:                 CP2K version 2022.1 (Development Version)
 CP2K| source code revision number:                                  git:143bfae
 CP2K| cp2kflags: omp libint fftw3 libxc elpa parallel mpi3 scalapack xsmm plume
 CP2K|            d2 mkl
 CP2K| is freely available from                            https://www.cp2k.org/
 CP2K| Program compiled at                          Thu 30 Mar 13:46:50 BST 2023
 CP2K| Program compiled on                                                  ln04
 CP2K| Program compiled for                                                local
 CP2K| Data directory path      /work/y07/shared/apps/core/cp2k/cp2k-2022.1/data
 CP2K| Input file name                                              1_bulkLR.inp

 GLOBAL| Force Environment number                                              1
 GLOBAL| Basis set file name                                        BASIS_MOLOPT
 GLOBAL| Potential file name                                      GTH_POTENTIALS
 GLOBAL| MM Potential file name                                     MM_POTENTIAL
 GLOBAL| Coordinate file name                                           bulk.xyz
 GLOBAL| Method name                                                        CP2K
 GLOBAL| Project name                                                       bulk
 GLOBAL| Run type                                                         ENERGY
 GLOBAL| FFT library                                                       FFTW3
 GLOBAL| Diagonalization library                                            ELPA
 GLOBAL| Minimum number of eigenvectors for ELPA usage                        16
 GLOBAL| Orthonormality check for eigenvectors                          DISABLED
 GLOBAL| Matrix multiplication library                                 ScaLAPACK
 GLOBAL| All-to-all communication in single precision                          F
 GLOBAL| FFTs using library dependent lengths                                  T
 GLOBAL| Grid backend                                                       AUTO
 GLOBAL| Global print level                                               MEDIUM
 GLOBAL| MPI I/O enabled                                                       T
 GLOBAL| Total number of message passing processes                           128
 GLOBAL| Number of threads for this process                                    1
 GLOBAL| This output is from process                                           0
 GLOBAL| Stack size for threads created by OpenMP (OMP_STACKSIZE)        default
 GLOBAL| CPU model name                          AMD EPYC 7742 64-Core Processor
 GLOBAL| CPUID                                                              1002

 MEMORY| system memory details [Kb]
 MEMORY|                        rank 0           min           max       average
 MEMORY| MemTotal            263528084     263528084     263528084     263528084
 MEMORY| MemFree             239345320     239345320     239345320     239345320
 MEMORY| Buffers                 34804         34804         34804         34804
 MEMORY| Cached                 656572        656572        656572        656572
 MEMORY| Slab                  1651256       1651256       1651256       1651256
 MEMORY| SReclaimable           103040        103040        103040        103040
 MEMORY| MemLikelyFree       240139736     240139736     240139736     240139736


 *** Fundamental physical constants (SI units) ***

 *** Literature: B. J. Mohr and B. N. Taylor,
 ***             CODATA recommended values of the fundamental physical
 ***             constants: 2006, Web Version 5.1
 ***             http://physics.nist.gov/constants

 Speed of light in vacuum [m/s]                             2.99792458000000E+08
 Magnetic constant or permeability of vacuum [N/A**2]       1.25663706143592E-06
 Electric constant or permittivity of vacuum [F/m]          8.85418781762039E-12
 Planck constant (h) [J*s]                                  6.62606896000000E-34
 Planck constant (h-bar) [J*s]                              1.05457162825177E-34
 Elementary charge [C]                                      1.60217648700000E-19
 Electron mass [kg]                                         9.10938215000000E-31
 Electron g factor [ ]                                     -2.00231930436220E+00
 Proton mass [kg]                                           1.67262163700000E-27
 Fine-structure constant                                    7.29735253760000E-03
 Rydberg constant [1/m]                                     1.09737315685270E+07
 Avogadro constant [1/mol]                                  6.02214179000000E+23
 Boltzmann constant [J/K]                                   1.38065040000000E-23
 Atomic mass unit [kg]                                      1.66053878200000E-27
 Bohr radius [m]                                            5.29177208590000E-11

 *** Conversion factors ***

 [u] -> [a.u.]                                              1.82288848426455E+03
 [Angstrom] -> [Bohr] = [a.u.]                              1.88972613288564E+00
 [a.u.] = [Bohr] -> [Angstrom]                              5.29177208590000E-01
 [a.u.] -> [s]                                              2.41888432650478E-17
 [a.u.] -> [fs]                                             2.41888432650478E-02
 [a.u.] -> [J]                                              4.35974393937059E-18
 [a.u.] -> [N]                                              8.23872205491840E-08
 [a.u.] -> [K]                                              3.15774647902944E+05
 [a.u.] -> [kJ/mol]                                         2.62549961709828E+03
 [a.u.] -> [kcal/mol]                                       6.27509468713739E+02
 [a.u.] -> [Pa]                                             2.94210107994716E+13
 [a.u.] -> [bar]                                            2.94210107994716E+08
 [a.u.] -> [atm]                                            2.90362800883016E+08
 [a.u.] -> [eV]                                             2.72113838565563E+01
 [a.u.] -> [Hz]                                             6.57968392072181E+15
 [a.u.] -> [1/cm] (wave numbers)                            2.19474631370540E+05
 [a.u./Bohr**2] -> [1/cm]                                   5.14048714338585E+03
 

 CELL_TOP| Volume [angstrom^3]:                                       657.311831
 CELL_TOP| Vector a [angstrom     8.867     0.000     0.000   |a| =     8.867120
 CELL_TOP| Vector b [angstrom     0.000     8.867     0.000   |b| =     8.867120
 CELL_TOP| Vector c [angstrom     0.000     0.000     8.360   |c| =     8.360000
 CELL_TOP| Angle (b,c), alpha [degree]:                                90.000000
 CELL_TOP| Angle (a,c), beta  [degree]:                                90.000000
 CELL_TOP| Angle (a,b), gamma [degree]:                                90.000000
 CELL_TOP| Numerically orthorhombic:                                         YES
 CELL_TOP| Periodicity                                                       XYZ

 GENERATE|  Preliminary Number of Bonds generated:                             0
 GENERATE|  Achieved consistency in connectivity generation.

 CELL| Volume [angstrom^3]:                                           657.311831
 CELL| Vector a [angstrom]:       8.867     0.000     0.000   |a| =     8.867120
 CELL| Vector b [angstrom]:       0.000     8.867     0.000   |b| =     8.867120
 CELL| Vector c [angstrom]:       0.000     0.000     8.360   |c| =     8.360000
 CELL| Angle (b,c), alpha [degree]:                                    90.000000
 CELL| Angle (a,c), beta  [degree]:                                    90.000000
 CELL| Angle (a,b), gamma [degree]:                                    90.000000
 CELL| Numerically orthorhombic:                                             YES
 CELL| Periodicity                                                           XYZ

 CELL_REF| Volume [angstrom^3]:                                       657.311831
 CELL_REF| Vector a [angstrom     8.867     0.000     0.000   |a| =     8.867120
 CELL_REF| Vector b [angstrom     0.000     8.867     0.000   |b| =     8.867120
 CELL_REF| Vector c [angstrom     0.000     0.000     8.360   |c| =     8.360000
 CELL_REF| Angle (b,c), alpha [degree]:                                90.000000
 CELL_REF| Angle (a,c), beta  [degree]:                                90.000000
 CELL_REF| Angle (a,b), gamma [degree]:                                90.000000
 CELL_REF| Numerically orthorhombic:                                         YES
 CELL_REF| Periodicity                                                       XYZ

 *** WARNING in cryssym.F:165 :: Symmetry library SPGLIB not available ***


 *******************************************************************************
                                    Kpoints
 *******************************************************************************
 BRILLOUIN| K-point scheme                                        Monkhorst-Pack
 BRILLOUIN| K-Point grid                                             3    3   20
 BRILLOUIN| Accuracy in Symmetry determination                      0.100000E-07
 BRILLOUIN| K-Point point group symmetrization                               OFF
 BRILLOUIN| Wavefunction type                                            COMPLEX
 BRILLOUIN| Use full k-point grid     
 BRILLOUIN| List of Kpoints [2 Pi/Bohr]                                      180
 BRILLOUIN| Number           Weight            X              Y              Z
 BRILLOUIN|     1           0.00556       -0.33333       -0.33333       -0.47500
 BRILLOUIN|     2           0.00556       -0.33333       -0.33333       -0.42500
 BRILLOUIN|     3           0.00556       -0.33333       -0.33333       -0.37500
 BRILLOUIN|     4           0.00556       -0.33333       -0.33333       -0.32500
 BRILLOUIN|     5           0.00556       -0.33333       -0.33333       -0.27500
 BRILLOUIN|     6           0.00556       -0.33333       -0.33333       -0.22500
 BRILLOUIN|     7           0.00556       -0.33333       -0.33333       -0.17500
 BRILLOUIN|     8           0.00556       -0.33333       -0.33333       -0.12500
 BRILLOUIN|     9           0.00556       -0.33333       -0.33333       -0.07500
 BRILLOUIN|    10           0.00556       -0.33333       -0.33333       -0.02500
 BRILLOUIN|    11           0.00556       -0.33333       -0.33333        0.02500
 BRILLOUIN|    12           0.00556       -0.33333       -0.33333        0.07500
 BRILLOUIN|    13           0.00556       -0.33333       -0.33333        0.12500
 BRILLOUIN|    14           0.00556       -0.33333       -0.33333        0.17500
 BRILLOUIN|    15           0.00556       -0.33333       -0.33333        0.22500
 BRILLOUIN|    16           0.00556       -0.33333       -0.33333        0.27500
 BRILLOUIN|    17           0.00556       -0.33333       -0.33333        0.32500
 BRILLOUIN|    18           0.00556       -0.33333       -0.33333        0.37500
 BRILLOUIN|    19           0.00556       -0.33333       -0.33333        0.42500
 BRILLOUIN|    20           0.00556       -0.33333       -0.33333        0.47500
 BRILLOUIN|    21           0.00556       -0.33333        0.00000       -0.47500
 BRILLOUIN|    22           0.00556       -0.33333        0.00000       -0.42500
 BRILLOUIN|    23           0.00556       -0.33333        0.00000       -0.37500
 BRILLOUIN|    24           0.00556       -0.33333        0.00000       -0.32500
 BRILLOUIN|    25           0.00556       -0.33333        0.00000       -0.27500
 BRILLOUIN|    26           0.00556       -0.33333        0.00000       -0.22500
 BRILLOUIN|    27           0.00556       -0.33333        0.00000       -0.17500
 BRILLOUIN|    28           0.00556       -0.33333        0.00000       -0.12500
 BRILLOUIN|    29           0.00556       -0.33333        0.00000       -0.07500
 BRILLOUIN|    30           0.00556       -0.33333        0.00000       -0.02500
 BRILLOUIN|    31           0.00556       -0.33333        0.00000        0.02500
 BRILLOUIN|    32           0.00556       -0.33333        0.00000        0.07500
 BRILLOUIN|    33           0.00556       -0.33333        0.00000        0.12500
 BRILLOUIN|    34           0.00556       -0.33333        0.00000        0.17500
 BRILLOUIN|    35           0.00556       -0.33333        0.00000        0.22500
 BRILLOUIN|    36           0.00556       -0.33333        0.00000        0.27500
 BRILLOUIN|    37           0.00556       -0.33333        0.00000        0.32500
 BRILLOUIN|    38           0.00556       -0.33333        0.00000        0.37500
 BRILLOUIN|    39           0.00556       -0.33333        0.00000        0.42500
 BRILLOUIN|    40           0.00556       -0.33333        0.00000        0.47500
 BRILLOUIN|    41           0.00556       -0.33333        0.33333       -0.47500
 BRILLOUIN|    42           0.00556       -0.33333        0.33333       -0.42500
 BRILLOUIN|    43           0.00556       -0.33333        0.33333       -0.37500
 BRILLOUIN|    44           0.00556       -0.33333        0.33333       -0.32500
 BRILLOUIN|    45           0.00556       -0.33333        0.33333       -0.27500
 BRILLOUIN|    46           0.00556       -0.33333        0.33333       -0.22500
 BRILLOUIN|    47           0.00556       -0.33333        0.33333       -0.17500
 BRILLOUIN|    48           0.00556       -0.33333        0.33333       -0.12500
 BRILLOUIN|    49           0.00556       -0.33333        0.33333       -0.07500
 BRILLOUIN|    50           0.00556       -0.33333        0.33333       -0.02500
 BRILLOUIN|    51           0.00556       -0.33333        0.33333        0.02500
 BRILLOUIN|    52           0.00556       -0.33333        0.33333        0.07500
 BRILLOUIN|    53           0.00556       -0.33333        0.33333        0.12500
 BRILLOUIN|    54           0.00556       -0.33333        0.33333        0.17500
 BRILLOUIN|    55           0.00556       -0.33333        0.33333        0.22500
 BRILLOUIN|    56           0.00556       -0.33333        0.33333        0.27500
 BRILLOUIN|    57           0.00556       -0.33333        0.33333        0.32500
 BRILLOUIN|    58           0.00556       -0.33333        0.33333        0.37500
 BRILLOUIN|    59           0.00556       -0.33333        0.33333        0.42500
 BRILLOUIN|    60           0.00556       -0.33333        0.33333        0.47500
 BRILLOUIN|    61           0.00556        0.00000       -0.33333       -0.47500
 BRILLOUIN|    62           0.00556        0.00000       -0.33333       -0.42500
 BRILLOUIN|    63           0.00556        0.00000       -0.33333       -0.37500
 BRILLOUIN|    64           0.00556        0.00000       -0.33333       -0.32500
 BRILLOUIN|    65           0.00556        0.00000       -0.33333       -0.27500
 BRILLOUIN|    66           0.00556        0.00000       -0.33333       -0.22500
 BRILLOUIN|    67           0.00556        0.00000       -0.33333       -0.17500
 BRILLOUIN|    68           0.00556        0.00000       -0.33333       -0.12500
 BRILLOUIN|    69           0.00556        0.00000       -0.33333       -0.07500
 BRILLOUIN|    70           0.00556        0.00000       -0.33333       -0.02500
 BRILLOUIN|    71           0.00556        0.00000       -0.33333        0.02500
 BRILLOUIN|    72           0.00556        0.00000       -0.33333        0.07500
 BRILLOUIN|    73           0.00556        0.00000       -0.33333        0.12500
 BRILLOUIN|    74           0.00556        0.00000       -0.33333        0.17500
 BRILLOUIN|    75           0.00556        0.00000       -0.33333        0.22500
 BRILLOUIN|    76           0.00556        0.00000       -0.33333        0.27500
 BRILLOUIN|    77           0.00556        0.00000       -0.33333        0.32500
 BRILLOUIN|    78           0.00556        0.00000       -0.33333        0.37500
 BRILLOUIN|    79           0.00556        0.00000       -0.33333        0.42500
 BRILLOUIN|    80           0.00556        0.00000       -0.33333        0.47500
 BRILLOUIN|    81           0.00556        0.00000        0.00000       -0.47500
 BRILLOUIN|    82           0.00556        0.00000        0.00000       -0.42500
 BRILLOUIN|    83           0.00556        0.00000        0.00000       -0.37500
 BRILLOUIN|    84           0.00556        0.00000        0.00000       -0.32500
 BRILLOUIN|    85           0.00556        0.00000        0.00000       -0.27500
 BRILLOUIN|    86           0.00556        0.00000        0.00000       -0.22500
 BRILLOUIN|    87           0.00556        0.00000        0.00000       -0.17500
 BRILLOUIN|    88           0.00556        0.00000        0.00000       -0.12500
 BRILLOUIN|    89           0.00556        0.00000        0.00000       -0.07500
 BRILLOUIN|    90           0.00556        0.00000        0.00000       -0.02500
 BRILLOUIN|    91           0.00556        0.00000        0.00000        0.02500
 BRILLOUIN|    92           0.00556        0.00000        0.00000        0.07500
 BRILLOUIN|    93           0.00556        0.00000        0.00000        0.12500
 BRILLOUIN|    94           0.00556        0.00000        0.00000        0.17500
 BRILLOUIN|    95           0.00556        0.00000        0.00000        0.22500
 BRILLOUIN|    96           0.00556        0.00000        0.00000        0.27500
 BRILLOUIN|    97           0.00556        0.00000        0.00000        0.32500
 BRILLOUIN|    98           0.00556        0.00000        0.00000        0.37500
 BRILLOUIN|    99           0.00556        0.00000        0.00000        0.42500
 BRILLOUIN|   100           0.00556        0.00000        0.00000        0.47500
 BRILLOUIN|   101           0.00556        0.00000        0.33333       -0.47500
 BRILLOUIN|   102           0.00556        0.00000        0.33333       -0.42500
 BRILLOUIN|   103           0.00556        0.00000        0.33333       -0.37500
 BRILLOUIN|   104           0.00556        0.00000        0.33333       -0.32500
 BRILLOUIN|   105           0.00556        0.00000        0.33333       -0.27500
 BRILLOUIN|   106           0.00556        0.00000        0.33333       -0.22500
 BRILLOUIN|   107           0.00556        0.00000        0.33333       -0.17500
 BRILLOUIN|   108           0.00556        0.00000        0.33333       -0.12500
 BRILLOUIN|   109           0.00556        0.00000        0.33333       -0.07500
 BRILLOUIN|   110           0.00556        0.00000        0.33333       -0.02500
 BRILLOUIN|   111           0.00556        0.00000        0.33333        0.02500
 BRILLOUIN|   112           0.00556        0.00000        0.33333        0.07500
 BRILLOUIN|   113           0.00556        0.00000        0.33333        0.12500
 BRILLOUIN|   114           0.00556        0.00000        0.33333        0.17500
 BRILLOUIN|   115           0.00556        0.00000        0.33333        0.22500
 BRILLOUIN|   116           0.00556        0.00000        0.33333        0.27500
 BRILLOUIN|   117           0.00556        0.00000        0.33333        0.32500
 BRILLOUIN|   118           0.00556        0.00000        0.33333        0.37500
 BRILLOUIN|   119           0.00556        0.00000        0.33333        0.42500
 BRILLOUIN|   120           0.00556        0.00000        0.33333        0.47500
 BRILLOUIN|   121           0.00556        0.33333       -0.33333       -0.47500
 BRILLOUIN|   122           0.00556        0.33333       -0.33333       -0.42500
 BRILLOUIN|   123           0.00556        0.33333       -0.33333       -0.37500
 BRILLOUIN|   124           0.00556        0.33333       -0.33333       -0.32500
 BRILLOUIN|   125           0.00556        0.33333       -0.33333       -0.27500
 BRILLOUIN|   126           0.00556        0.33333       -0.33333       -0.22500
 BRILLOUIN|   127           0.00556        0.33333       -0.33333       -0.17500
 BRILLOUIN|   128           0.00556        0.33333       -0.33333       -0.12500
 BRILLOUIN|   129           0.00556        0.33333       -0.33333       -0.07500
 BRILLOUIN|   130           0.00556        0.33333       -0.33333       -0.02500
 BRILLOUIN|   131           0.00556        0.33333       -0.33333        0.02500
 BRILLOUIN|   132           0.00556        0.33333       -0.33333        0.07500
 BRILLOUIN|   133           0.00556        0.33333       -0.33333        0.12500
 BRILLOUIN|   134           0.00556        0.33333       -0.33333        0.17500
 BRILLOUIN|   135           0.00556        0.33333       -0.33333        0.22500
 BRILLOUIN|   136           0.00556        0.33333       -0.33333        0.27500
 BRILLOUIN|   137           0.00556        0.33333       -0.33333        0.32500
 BRILLOUIN|   138           0.00556        0.33333       -0.33333        0.37500
 BRILLOUIN|   139           0.00556        0.33333       -0.33333        0.42500
 BRILLOUIN|   140           0.00556        0.33333       -0.33333        0.47500
 BRILLOUIN|   141           0.00556        0.33333        0.00000       -0.47500
 BRILLOUIN|   142           0.00556        0.33333        0.00000       -0.42500
 BRILLOUIN|   143           0.00556        0.33333        0.00000       -0.37500
 BRILLOUIN|   144           0.00556        0.33333        0.00000       -0.32500
 BRILLOUIN|   145           0.00556        0.33333        0.00000       -0.27500
 BRILLOUIN|   146           0.00556        0.33333        0.00000       -0.22500
 BRILLOUIN|   147           0.00556        0.33333        0.00000       -0.17500
 BRILLOUIN|   148           0.00556        0.33333        0.00000       -0.12500
 BRILLOUIN|   149           0.00556        0.33333        0.00000       -0.07500
 BRILLOUIN|   150           0.00556        0.33333        0.00000       -0.02500
 BRILLOUIN|   151           0.00556        0.33333        0.00000        0.02500
 BRILLOUIN|   152           0.00556        0.33333        0.00000        0.07500
 BRILLOUIN|   153           0.00556        0.33333        0.00000        0.12500
 BRILLOUIN|   154           0.00556        0.33333        0.00000        0.17500
 BRILLOUIN|   155           0.00556        0.33333        0.00000        0.22500
 BRILLOUIN|   156           0.00556        0.33333        0.00000        0.27500
 BRILLOUIN|   157           0.00556        0.33333        0.00000        0.32500
 BRILLOUIN|   158           0.00556        0.33333        0.00000        0.37500
 BRILLOUIN|   159           0.00556        0.33333        0.00000        0.42500
 BRILLOUIN|   160           0.00556        0.33333        0.00000        0.47500
 BRILLOUIN|   161           0.00556        0.33333        0.33333       -0.47500
 BRILLOUIN|   162           0.00556        0.33333        0.33333       -0.42500
 BRILLOUIN|   163           0.00556        0.33333        0.33333       -0.37500
 BRILLOUIN|   164           0.00556        0.33333        0.33333       -0.32500
 BRILLOUIN|   165           0.00556        0.33333        0.33333       -0.27500
 BRILLOUIN|   166           0.00556        0.33333        0.33333       -0.22500
 BRILLOUIN|   167           0.00556        0.33333        0.33333       -0.17500
 BRILLOUIN|   168           0.00556        0.33333        0.33333       -0.12500
 BRILLOUIN|   169           0.00556        0.33333        0.33333       -0.07500
 BRILLOUIN|   170           0.00556        0.33333        0.33333       -0.02500
 BRILLOUIN|   171           0.00556        0.33333        0.33333        0.02500
 BRILLOUIN|   172           0.00556        0.33333        0.33333        0.07500
 BRILLOUIN|   173           0.00556        0.33333        0.33333        0.12500
 BRILLOUIN|   174           0.00556        0.33333        0.33333        0.17500
 BRILLOUIN|   175           0.00556        0.33333        0.33333        0.22500
 BRILLOUIN|   176           0.00556        0.33333        0.33333        0.27500
 BRILLOUIN|   177           0.00556        0.33333        0.33333        0.32500
 BRILLOUIN|   178           0.00556        0.33333        0.33333        0.37500
 BRILLOUIN|   179           0.00556        0.33333        0.33333        0.42500
 BRILLOUIN|   180           0.00556        0.33333        0.33333        0.47500
 *******************************************************************************

 *******************************************************************************
 *******************************************************************************
 **                                                                           **
 **     #####                         ##              ##                      **
 **    ##   ##            ##          ##              ##                      **
 **   ##     ##                       ##            ######                    **
 **   ##     ##  ##   ##  ##   #####  ##  ##   ####   ##    #####    #####    **
 **   ##     ##  ##   ##  ##  ##      ## ##   ##      ##   ##   ##  ##   ##   **
 **   ##  ## ##  ##   ##  ##  ##      ####     ###    ##   ######   ######    **
 **    ##  ###   ##   ##  ##  ##      ## ##      ##   ##   ##       ##        **
 **     #######   #####   ##   #####  ##  ##  ####    ##    #####   ##        **
 **           ##                                                    ##        **
 **                                                                           **
 **                                                ... make the atoms dance   **
 **                                                                           **
 **            Copyright (C) by CP2K developers group (2000-2022)             **
 **                      J. Chem. Phys. 152, 194103 (2020)                    **
 **                                                                           **
 *******************************************************************************

 DFT| Spin restricted Kohn-Sham (RKS) calculation                            RKS
 DFT| Multiplicity                                                             1
 DFT| Number of spin states                                                    1
 DFT| Charge                                                                   0
 DFT| Self-interaction correction (SIC)                                       NO
 DFT| Cutoffs: density                                              1.000000E-10
 DFT|          gradient                                             1.000000E-10
 DFT|          tau                                                  1.000000E-10
 DFT|          cutoff_smoothing_range                               0.000000E+00
 DFT| XC density smoothing                                                  NONE
 DFT| XC derivatives                                                          PW

 FUNCTIONAL| PBE:
 FUNCTIONAL| J.P.Perdew, K.Burke, M.Ernzerhof, Phys. Rev. Letter, vol. 77, n 18,
 FUNCTIONAL|  pp. 3865-3868, (1996){spin unpolarized}                           


 QS| Method:                                                                 GPW
 QS| Density plane wave grid type                        NON-SPHERICAL FULLSPACE
 QS| Number of grid levels:                                                    4
 QS| Density cutoff [a.u.]:                                                300.0
 QS| Multi grid cutoff [a.u.]: 1) grid level                               300.0
 QS|                           2) grid level                               100.0
 QS|                           3) grid level                                33.3
 QS|                           4) grid level                                11.1
 QS| Grid level progression factor:                                          3.0
 QS| Relative density cutoff [a.u.]:                                        30.0
 QS| Interaction thresholds: eps_pgf_orb:                                1.0E-05
 QS|                         eps_filter_matrix:                          0.0E+00
 QS|                         eps_core_charge:                            1.0E-12
 QS|                         eps_rho_gspace:                             1.0E-10
 QS|                         eps_rho_rspace:                             1.0E-10
 QS|                         eps_gvg_rspace:                             1.0E-05
 QS|                         eps_ppl:                                    1.0E-02
 QS|                         eps_ppnl:                                   1.0E-07


 ATOMIC KIND INFORMATION

  1. Atomic kind: Au                                    Number of atoms:      36

     Orbital Basis Set                                         SZV-MOLOPT-SR-GTH

       Number of orbital shell sets:                                           1
       Number of orbital shells:                                               3
       Number of primitive Cartesian functions:                                5
       Number of Cartesian basis functions:                                   10
       Number of spherical basis functions:                                    9
       Norm type:                                                              2

       Normalised Cartesian orbitals:

                        Set   Shell   Orbital            Exponent    Coefficient

                          1       1    2s                2.950008       0.074626
                                                         1.563057      -0.007898
                                                         0.666664      -0.297688
                                                         0.251083       0.136809
                                                         0.081714       0.088198

                          1       2    3px               2.950008       0.148824
                                                         1.563057       0.025430
                                                         0.666664      -0.123003
                                                         0.251083       0.033648
                                                         0.081714       0.059008
                          1       2    3py               2.950008       0.148824
                                                         1.563057       0.025430
                                                         0.666664      -0.123003
                                                         0.251083       0.033648
                                                         0.081714       0.059008
                          1       2    3pz               2.950008       0.148824
                                                         1.563057       0.025430
                                                         0.666664      -0.123003
                                                         0.251083       0.033648
                                                         0.081714       0.059008

                          1       3    4dx2              2.950008      -0.139595
                                                         1.563057       1.319655
                                                         0.666664       0.377081
                                                         0.251083       0.046872
                                                         0.081714       0.001393
                          1       3    4dxy              2.950008      -0.241786
                                                         1.563057       2.285709
                                                         0.666664       0.653124
                                                         0.251083       0.081185
                                                         0.081714       0.002412
                          1       3    4dxz              2.950008      -0.241786
                                                         1.563057       2.285709
                                                         0.666664       0.653124
                                                         0.251083       0.081185
                                                         0.081714       0.002412
                          1       3    4dy2              2.950008      -0.139595
                                                         1.563057       1.319655
                                                         0.666664       0.377081
                                                         0.251083       0.046872
                                                         0.081714       0.001393
                          1       3    4dyz              2.950008      -0.241786
                                                         1.563057       2.285709
                                                         0.666664       0.653124
                                                         0.251083       0.081185
                                                         0.081714       0.002412
                          1       3    4dz2              2.950008      -0.139595
                                                         1.563057       1.319655
                                                         0.666664       0.377081
                                                         0.251083       0.046872
                                                         0.081714       0.001393

       Atomic covalent radius [Angstrom]:                                  1.340

       Atomic van der Waals radius [Angstrom]:                             1.660

     GTH Potential information for                                   GTH-PBE-q11

       Description:                       Goedecker-Teter-Hutter pseudopotential
                                           Goedecker et al., PRB 54, 1703 (1996)
                                          Hartwigsen et al., PRB 58, 3641 (1998)
                                                      Krack, TCA 114, 145 (2005)

       Gaussian exponent of the core charge distribution:               1.436369
       Electronic configuration (s p d ...):                           1   0  10

       Parameters of the local part of the GTH pseudopotential:

                          rloc        C1          C2          C3          C4
                        0.590000   10.517179

       Parameters of the non-local part of the GTH pseudopotential:

                   l      r(l)      h(i,j,l)

                   0    0.543847    5.786811   -2.250680
                                   -2.250680    2.905615
                   1    0.609173    4.284049   -4.071285
                                   -4.071285    4.817210
                   2    0.437309   -7.403281    3.010193
                                    3.010193   -3.413238


 MOLECULE KIND INFORMATION


 All atoms are their own molecule, skipping detailed information


 TOTAL NUMBERS AND MAXIMUM NUMBERS

  Total number of            - Atomic kinds:                                   1
                             - Atoms:                                         36
                             - Shell sets:                                    36
                             - Shells:                                       108
                             - Primitive Cartesian functions:                180
                             - Cartesian basis functions:                    360
                             - Spherical basis functions:                    324

  Maximum angular momentum of- Orbital basis functions:                        2
                             - Local part of the GTH pseudopotential:          0
                             - Non-local part of the GTH pseudopotential:      4


 MODULE QUICKSTEP: ATOMIC COORDINATES IN ANGSTROM

   Atom Kind Element         X             Y             Z       Z(eff)     Mass
      1    1 Au   79      1.787000      1.281000      0.000000  11.0000 196.9666
      2    1 Au   79      0.309000      2.759000      2.090000  11.0000 196.9666
      3    1 Au   79      1.787000      1.281000      4.180000  11.0000 196.9666
      4    1 Au   79      0.309000      2.759000      6.270000  11.0000 196.9666
      5    1 Au   79      4.743000      1.281000      0.000000  11.0000 196.9666
      6    1 Au   79      3.265000      2.759000      2.090000  11.0000 196.9666
      7    1 Au   79      4.743000      1.281000      4.180000  11.0000 196.9666
      8    1 Au   79      3.265000      2.759000      6.270000  11.0000 196.9666
      9    1 Au   79      7.699000      1.281000      0.000000  11.0000 196.9666
     10    1 Au   79      6.221000      2.759000      2.090000  11.0000 196.9666
     11    1 Au   79      7.699000      1.281000      4.180000  11.0000 196.9666
     12    1 Au   79      6.221000      2.759000      6.270000  11.0000 196.9666
     13    1 Au   79      1.787000      4.236000      0.000000  11.0000 196.9666
     14    1 Au   79      0.309000      5.714000      2.090000  11.0000 196.9666
     15    1 Au   79      1.787000      4.236000      4.180000  11.0000 196.9666
     16    1 Au   79      0.309000      5.714000      6.270000  11.0000 196.9666
     17    1 Au   79      4.743000      4.236000      0.000000  11.0000 196.9666
     18    1 Au   79      3.265000      5.714000      2.090000  11.0000 196.9666
     19    1 Au   79      4.743000      4.236000      4.180000  11.0000 196.9666
     20    1 Au   79      3.265000      5.714000      6.270000  11.0000 196.9666
     21    1 Au   79      7.699000      4.236000      0.000000  11.0000 196.9666
     22    1 Au   79      6.221000      5.714000      2.090000  11.0000 196.9666
     23    1 Au   79      7.699000      4.236000      4.180000  11.0000 196.9666
     24    1 Au   79      6.221000      5.714000      6.270000  11.0000 196.9666
     25    1 Au   79      1.787000      7.192000      0.000000  11.0000 196.9666
     26    1 Au   79      0.309000      8.670000      2.090000  11.0000 196.9666
     27    1 Au   79      1.787000      7.192000      4.180000  11.0000 196.9666
     28    1 Au   79      0.309000      8.670000      6.270000  11.0000 196.9666
     29    1 Au   79      4.743000      7.192000      0.000000  11.0000 196.9666
     30    1 Au   79      3.265000      8.670000      2.090000  11.0000 196.9666
     31    1 Au   79      4.743000      7.192000      4.180000  11.0000 196.9666
     32    1 Au   79      3.265000      8.670000      6.270000  11.0000 196.9666
     33    1 Au   79      7.699000      7.192000      0.000000  11.0000 196.9666
     34    1 Au   79      6.221000      8.670000      2.090000  11.0000 196.9666
     35    1 Au   79      7.699000      7.192000      4.180000  11.0000 196.9666
     36    1 Au   79      6.221000      8.670000      6.270000  11.0000 196.9666



 SCF PARAMETERS         Density guess:                                    ATOMIC
                        --------------------------------------------------------
                        max_scf:                                             100
                        max_scf_history:                                       0
                        max_diis:                                              4
                        --------------------------------------------------------
                        eps_scf:                                        1.00E-08
                        eps_scf_history:                                0.00E+00
                        eps_diis:                                       1.00E-01
                        eps_eigval:                                     1.00E-05
                        --------------------------------------------------------
                        level_shift [a.u.]:                             0.000000
                        added MOs                                       100    0
                        --------------------------------------------------------
                        Mixing method:                            BROYDEN_MIXING
                                                charge density mixing in g-space
                        --------------------------------------------------------
                        Smear method:                                FERMI_DIRAC
                        Electronic temperature [K]:                        300.0
                        Electronic temperature [a.u.]:                  9.50E-04
                        Accuracy threshold:                             1.00E-10
                        --------------------------------------------------------
                        No outer SCF

 PW_GRID| Information for grid number                                          1
 PW_GRID| Grid distributed over                                   128 processors
 PW_GRID| Real space group dimensions                                   128    1
 PW_GRID| the grid is blocked:                                                NO
 PW_GRID| Cutoff [a.u.]                                                    300.0
 PW_GRID| spherical cutoff:                                                   NO
 PW_GRID|   Bounds   1            -66      65                Points:         132
 PW_GRID|   Bounds   2            -66      65                Points:         132
 PW_GRID|   Bounds   3            -63      62                Points:         126
 PW_GRID| Volume element (a.u.^3)  0.2020E-02     Volume (a.u.^3)      4435.7602
 PW_GRID| Grid span                                                    FULLSPACE
 PW_GRID|   Distribution                         Average         Max         Min
 PW_GRID|   G-Vectors                            17151.8       17160       17028
 PW_GRID|   G-Rays                                 129.9         130         129
 PW_GRID|   Real Space Points                    17151.8       33264       16632

 PW_GRID| Information for grid number                                          2
 PW_GRID| Number of the reference grid                                         1
 PW_GRID| Grid distributed over                                   128 processors
 PW_GRID| Real space group dimensions                                     8   16
 PW_GRID| the grid is blocked:                                                NO
 PW_GRID| Cutoff [a.u.]                                                    100.0
 PW_GRID| spherical cutoff:                                                   NO
 PW_GRID|   Bounds   1            -37      37                Points:          75
 PW_GRID|   Bounds   2            -37      37                Points:          75
 PW_GRID|   Bounds   3            -36      35                Points:          72
 PW_GRID| Volume element (a.u.^3)  0.1095E-01     Volume (a.u.^3)      4435.7602
 PW_GRID| Grid span                                                    FULLSPACE
 PW_GRID|   Distribution                         Average         Max         Min
 PW_GRID|   G-Vectors                             3164.1        3225        3000
 PW_GRID|   G-Rays                                  42.2          43          40
 PW_GRID|   Real Space Points                     3164.1        3600        2592

 PW_GRID| Information for grid number                                          3
 PW_GRID| Number of the reference grid                                         1
 PW_GRID| Grid distributed over                                   128 processors
 PW_GRID| Real space group dimensions                                     8   16
 PW_GRID| the grid is blocked:                                                NO
 PW_GRID| Cutoff [a.u.]                                                     33.3
 PW_GRID| spherical cutoff:                                                   NO
 PW_GRID|   Bounds   1            -22      21                Points:          44
 PW_GRID|   Bounds   2            -22      21                Points:          44
 PW_GRID|   Bounds   3            -21      20                Points:          42
 PW_GRID| Volume element (a.u.^3)  0.5455E-01     Volume (a.u.^3)      4435.7602
 PW_GRID| Grid span                                                    FULLSPACE
 PW_GRID|   Distribution                         Average         Max         Min
 PW_GRID|   G-Vectors                              635.2         704         572
 PW_GRID|   G-Rays                                  14.4          16          13
 PW_GRID|   Real Space Points                      635.2         756         420

 PW_GRID| Information for grid number                                          4
 PW_GRID| Number of the reference grid                                         1
 PW_GRID| Grid distributed over                                   128 processors
 PW_GRID| Real space group dimensions                                     8   16
 PW_GRID| the grid is blocked:                                                NO
 PW_GRID| Cutoff [a.u.]                                                     11.1
 PW_GRID| spherical cutoff:                                                   NO
 PW_GRID|   Bounds   1            -12      12                Points:          25
 PW_GRID|   Bounds   2            -12      12                Points:          25
 PW_GRID|   Bounds   3            -12      11                Points:          24
 PW_GRID| Volume element (a.u.^3)  0.2957         Volume (a.u.^3)      4435.7602
 PW_GRID| Grid span                                                    FULLSPACE
 PW_GRID|   Distribution                         Average         Max         Min
 PW_GRID|   G-Vectors                              117.2         150         100
 PW_GRID|   G-Rays                                   4.7           6           4
 PW_GRID|   Real Space Points                      117.2         192          72

 POISSON| Solver                                                        PERIODIC
 POISSON| Periodicity                                                        XYZ

 RS_GRID| Information for grid number                                          1
 RS_GRID|   Bounds   1            -66      65                Points:         132
 RS_GRID|   Bounds   2            -66      65                Points:         132
 RS_GRID|   Bounds   3            -63      62                Points:         126
 RS_GRID| Real space distribution over                                  8 groups
 RS_GRID| Real space distribution along direction                              1
 RS_GRID| Border size                                                         36
 RS_GRID| Real space distribution over                                 16 groups
 RS_GRID| Real space distribution along direction                              2
 RS_GRID| Border size                                                         36
 RS_GRID|   Distribution                         Average         Max         Min
 RS_GRID|   Planes                                  88.5          89          88
 RS_GRID|   Distribution                         Average         Max         Min
 RS_GRID|   Planes                                  80.2          81          80

 RS_GRID| Information for grid number                                          2
 RS_GRID|   Bounds   1            -37      37                Points:          75
 RS_GRID|   Bounds   2            -37      37                Points:          75
 RS_GRID|   Bounds   3            -36      35                Points:          72
 RS_GRID| Real space fully replicated
 RS_GRID| Group size                                                           1

 RS_GRID| Information for grid number                                          3
 RS_GRID|   Bounds   1            -22      21                Points:          44
 RS_GRID|   Bounds   2            -22      21                Points:          44
 RS_GRID|   Bounds   3            -21      20                Points:          42
 RS_GRID| Real space fully replicated
 RS_GRID| Group size                                                           1

 RS_GRID| Information for grid number                                          4
 RS_GRID|   Bounds   1            -12      12                Points:          25
 RS_GRID|   Bounds   2            -12      12                Points:          25
 RS_GRID|   Bounds   3            -12      11                Points:          24
 RS_GRID| Real space fully replicated
 RS_GRID| Group size                                                           1

 KPOINTS| Number of kpoint groups                                              1
 KPOINTS| Size of each kpoint group                                          128
 KPOINTS| Number of kpoints per group                                        180

 Number of electrons:                                                        396
 Number of occupied orbitals:                                                198
 Number of molecular orbitals:                                               298

 Number of orbital functions:                                                324
 Number of independent orbital functions:                                    324

 Extrapolation method: initial_guess

 Atomic guess: The first density matrix is obtained in terms of atomic orbitals
               and electronic configurations assigned to each atomic kind

 Guess for atomic kind: Au

 Electronic structure
    Total number of core electrons                                         68.00
    Total number of valence electrons                                      11.00
    Total number of electrons                                              79.00
    Multiplicity                                                   not specified
    S   [  2.00  2.00  2.00  2.00  2.00] 1.00
    P   [  6.00  6.00  6.00  6.00]
    D   [ 10.00 10.00]10.00
    F   [ 14.00]


 *******************************************************************************
                  Iteration          Convergence                     Energy [au]
 *******************************************************************************
                          1         0.00000                     -32.925420860277

 Energy components [Hartree]           Total Energy ::          -32.925420860277
                                        Band Energy ::           -1.039708645574
                                     Kinetic Energy ::           24.744064437587
                                   Potential Energy ::          -57.669485297863
                                      Virial (-V/T) ::            2.330639149576
                                        Core Energy ::          -60.089512277916
                                          XC Energy ::           -5.116883226844
                                     Coulomb Energy ::           32.280974644483
                       Total Pseudopotential Energy ::          -84.935087836392
                       Local Pseudopotential Energy ::          -67.537295193389
                    Nonlocal Pseudopotential Energy ::          -17.397792643003
                                        Confinement ::            1.015111208892

 Orbital energies  State     L     Occupation   Energy[a.u.]          Energy[eV]

                       1     0          1.000      -0.207365           -5.642685

                       1     2         10.000      -0.083234           -2.264923


 Total Electron Density at R=0:                                         0.000035
 Re-scaling the density matrix to get the right number of electrons
                  # Electrons              Trace(P)               Scaling factor
                          396               396.000                        1.000


 SCF WAVEFUNCTION OPTIMIZATION

  Step     Update method      Time    Convergence         Total energy    Change
  ------------------------------------------------------------------------------
     1 NoMix/Diag. 0.30E+00   14.6     0.29162520     -1197.3217982918 -1.20E+03
     2 Broy./Diag. 0.30E+00   13.4     0.02576721     -1220.4537139326 -2.31E+01
     3 Broy./Diag. 0.30E+00   14.6     0.03234715     -1203.7159153420  1.67E+01
     4 Broy./Diag. 0.30E+00   13.4     0.00073205     -1196.8937822812  6.82E+00
     5 Broy./Diag. 0.30E+00   13.4     0.00034861     -1196.7293005747  1.64E-01
     6 Broy./Diag. 0.30E+00   13.5     0.00002744     -1196.7300036487 -7.03E-04
     7 Broy./Diag. 0.30E+00   13.4     0.00000836     -1196.7388512815 -8.85E-03
     8 Broy./Diag. 0.30E+00   13.4     0.00000156     -1196.7388091328  4.21E-05
     9 Broy./Diag. 0.30E+00   13.4     0.00000054     -1196.7385247357  2.84E-04
    10 Broy./Diag. 0.30E+00   13.4     0.00000019     -1196.7385160426  8.69E-06
    11 Broy./Diag. 0.30E+00   13.4     0.00000004     -1196.7385184216 -2.38E-06
    12 Broy./Diag. 0.30E+00   13.4     0.00000002     -1196.7385165088  1.91E-06
    13 Broy./Diag. 0.30E+00   13.4     5.2017E-09     -1196.7385158759  6.33E-07

  *** SCF run converged in    13 steps ***


  Electronic density on regular grids:       -396.0000000009       -0.0000000009
  Core density on regular grids:              395.9999999350       -0.0000000650
  Total charge density on r-space grids:       -0.0000000659
  Total charge density g-space grids:          -0.0000000659

  Overlap energy of the core charge distribution:               0.00000010153265
  Self energy of the core charge distribution:              -2082.72019146951425
  Core Hamiltonian energy:                                    665.54337756283746
  Hartree energy:                                             409.78526932501018
  Exchange-correlation energy:                               -189.34625906422400
  Electronic entropic energy:                                  -0.00071233150348
  Fermi energy:                                                 0.34523241319998

  Total energy:                                             -1196.73851587585773

 The electron density is written in cube file format to the file:

 bulk-ELECTRON_DENSITY-1_0.cube

 !-----------------------------------------------------------------------------!
                     Mulliken Population Analysis

 #  Atom  Element  Kind  Atomic population                           Net charge
       1     Au       1         11.000106                             -0.000106
       2     Au       1         10.999690                              0.000310
       3     Au       1         11.000106                             -0.000106
       4     Au       1         10.999690                              0.000310
       5     Au       1         11.000167                             -0.000167
       6     Au       1         10.999935                              0.000065
       7     Au       1         11.000168                             -0.000168
       8     Au       1         10.999936                              0.000064
       9     Au       1         10.999923                              0.000077
      10     Au       1         10.999874                              0.000126
      11     Au       1         10.999923                              0.000077
      12     Au       1         10.999874                              0.000126
      13     Au       1         10.999865                              0.000135
      14     Au       1         10.999888                              0.000112
      15     Au       1         10.999866                              0.000134
      16     Au       1         10.999888                              0.000112
      17     Au       1         10.999927                              0.000073
      18     Au       1         11.000133                             -0.000133
      19     Au       1         10.999927                              0.000073
      20     Au       1         11.000134                             -0.000134
      21     Au       1         10.999682                              0.000318
      22     Au       1         11.000072                             -0.000072
      23     Au       1         10.999682                              0.000318
      24     Au       1         11.000072                             -0.000072
      25     Au       1         11.000150                             -0.000150
      26     Au       1         10.999993                              0.000007
      27     Au       1         11.000150                             -0.000150
      28     Au       1         10.999993                              0.000007
      29     Au       1         11.000212                             -0.000212
      30     Au       1         11.000238                             -0.000238
      31     Au       1         11.000212                             -0.000212
      32     Au       1         11.000238                             -0.000238
      33     Au       1         10.999967                              0.000033
      34     Au       1         11.000176                             -0.000176
      35     Au       1         10.999967                              0.000033
      36     Au       1         11.000177                             -0.000177
 # Total charge                            396.000000                 -0.000000

 !-----------------------------------------------------------------------------!

 !-----------------------------------------------------------------------------!
                           Hirshfeld Charges

  #Atom  Element  Kind  Ref Charge     Population                    Net charge
      1       Au     1      11.000         11.000                        -0.000
      2       Au     1      11.000         11.000                         0.000
      3       Au     1      11.000         11.000                        -0.000
      4       Au     1      11.000         11.000                         0.000
      5       Au     1      11.000         11.000                        -0.000
      6       Au     1      11.000         11.000                         0.000
      7       Au     1      11.000         11.000                        -0.000
      8       Au     1      11.000         11.000                         0.000
      9       Au     1      11.000         11.000                         0.000
     10       Au     1      11.000         11.000                         0.000
     11       Au     1      11.000         11.000                         0.000
     12       Au     1      11.000         11.000                         0.000
     13       Au     1      11.000         11.000                         0.000
     14       Au     1      11.000         11.000                         0.000
     15       Au     1      11.000         11.000                         0.000
     16       Au     1      11.000         11.000                         0.000
     17       Au     1      11.000         11.000                         0.000
     18       Au     1      11.000         11.000                        -0.000
     19       Au     1      11.000         11.000                         0.000
     20       Au     1      11.000         11.000                        -0.000
     21       Au     1      11.000         11.000                         0.000
     22       Au     1      11.000         11.000                        -0.000
     23       Au     1      11.000         11.000                         0.000
     24       Au     1      11.000         11.000                        -0.000
     25       Au     1      11.000         11.000                        -0.000
     26       Au     1      11.000         11.000                         0.000
     27       Au     1      11.000         11.000                        -0.000
     28       Au     1      11.000         11.000                         0.000
     29       Au     1      11.000         11.000                        -0.000
     30       Au     1      11.000         11.000                        -0.000
     31       Au     1      11.000         11.000                        -0.000
     32       Au     1      11.000         11.000                        -0.000
     33       Au     1      11.000         11.000                         0.000
     34       Au     1      11.000         11.000                        -0.000
     35       Au     1      11.000         11.000                         0.000
     36       Au     1      11.000         11.000                        -0.000

  Total Charge                                                           -0.000
 !-----------------------------------------------------------------------------!

 BULKTRANSP| E_FERMI [a.u.] =                                   3.4523241320E-01
 BULKTRANSP| HartreeLeadsBottom [a.u.] =                       -4.0217674225E-01

 ENERGY| Total FORCE_EVAL ( QS ) energy [a.u.]:            -1196.738515875857729

 -------------------------------------------------------------------------------
 -                                                                             -
 -                                DBCSR STATISTICS                             -
 -                                                                             -
 -------------------------------------------------------------------------------
 COUNTER                                    TOTAL       BLAS       SMM       ACC
 flops inhomo. stacks                           0       0.0%      0.0%      0.0%
 flops total                         0.000000E+00       0.0%      0.0%      0.0%
 flops max/rank                      0.000000E+00       0.0%      0.0%      0.0%
 matmuls inhomo. stacks                         0       0.0%      0.0%      0.0%
 matmuls total                                  0       0.0%      0.0%      0.0%
 number of processed stacks                     0       0.0%      0.0%      0.0%
 average stack size                                     0.0       0.0       0.0
 marketing flops                     0.000000E+00
 -------------------------------------------------------------------------------
 -                                                                             -
 -                      DBCSR MESSAGE PASSING PERFORMANCE                      -
 -                                                                             -
 -------------------------------------------------------------------------------
 ROUTINE             CALLS      AVE VOLUME [Bytes]
 MP_Bcast                1                     12.
 MP_Allreduce         1814                      8.
 MP_Alltoall        195228                  48018.
 -------------------------------------------------------------------------------

 -------------------------------------------------------------------------------
 -                                                                             -
 -                                DBM STATISTICS                               -
 -                                                                             -
 -------------------------------------------------------------------------------
    M  x    N  x    K                                          COUNT     PERCENT
 -------------------------------------------------------------------------------

 -------------------------------------------------------------------------------
 -                                                                             -
 -                                GRID STATISTICS                              -
 -                                                                             -
 -------------------------------------------------------------------------------
 LP    KERNEL             BACKEND                              COUNT     PERCENT
 4     collocate ortho    REF                                 492912      47.90%
 4     integrate ortho    REF                                 457704      44.48%
 0     collocate general  REF                                  41472       4.03%
 0     integrate general  REF                                  36864       3.58%
 -------------------------------------------------------------------------------

 MEMORY| Estimated peak process memory [MiB]                                 281

 -------------------------------------------------------------------------------
 ----                             MULTIGRID INFO                            ----
 -------------------------------------------------------------------------------
 count for grid        1:          23652          cutoff [a.u.]          300.00
 count for grid        2:          67836          cutoff [a.u.]          100.00
 count for grid        3:          33360          cutoff [a.u.]           33.33
 count for grid        4:          33240          cutoff [a.u.]           11.11
 total gridlevel count  :         158088

 -------------------------------------------------------------------------------
 -                                                                             -
 -                         MESSAGE PASSING PERFORMANCE                         -
 -                                                                             -
 -------------------------------------------------------------------------------

 ROUTINE             CALLS      AVE VOLUME [Bytes]
 MP_Group                5
 MP_Bcast            87105                   2987.
 MP_Allreduce         1459                   4049.
 MP_Sync                58
 MP_Alltoall           335                 753673.
 MP_ISendRecv        10287                  12128.
 MP_Wait             83571
 MP_ISend           103872                   3175.
 MP_IRecv           105660                   3154.
 MP_Recv              1035                  54432.
 MP_Write_All            2                 218988.
 -------------------------------------------------------------------------------


 -------------------------------------------------------------------------------
 -                                                                             -
 -                           R E F E R E N C E S                               -
 -                                                                             -
 -------------------------------------------------------------------------------
 
 CP2K version 2022.1 (Development Version), the CP2K developers group (2022).
 CP2K is freely available from https://www.cp2k.org/ .

 Kuehne,Thomas D.; Iannuzzi,Marcella; Del Ben,Mauro;
 Rybkin,Vladimir V.; Seewald,Patrick; Stein,Frederick; Laino,Teodoro;
 Khaliullin,Rustam Z.; Schuett,Ole; Schiffmann,Florian; Golze,Dorothea;
 Wilhelm,Jan; Chulkov,Sergey; Bani-Hashemian,Mohammad Hossein;
 Weber,Valery; Borstnik,Urban; Taillefumier,Mathieu;
 Jakobovits,Alice Shoshana; Lazzaro,Alfio; Pabst,Hans; Mueller,Tiziano;
 Schade,Robert; Guidon,Manuel; Andermatt,Samuel; Holmberg,Nico;
 Schenter,Gregory K.; Hehn,Anna; Bussy,Augustin; Belleflamme,Fabian;
 Tabacchi,Gloria; Gloess,Andreas; Lass,Michael; Bethune,Iain;
 Mundy,Christopher J.; Plessl,Christian; Watkins,Matt;
 VandeVondele,Joost; Krack,Matthias; Hutter,Juerg. 
 The Journal of Chemical Physics, 152 (19), (2020). 
 CP2K: An electronic structure and molecular dynamics software package -
 Quickstep: Efficient and accurate electronic structure calculations.
 https://doi.org/10.1063/5.0007045

 Schuett, Ole; Messmer, Peter; Hutter, Juerg; VandeVondele, Joost. 
 Electronic Structure Calculations on Graphics Processing Units, John
 Wiley & Sons, Ltd, 173-190 (2016). 
 GPU-Accelerated Sparse Matrix-Matrix Multiplication for
 Linear Scaling Density Functional Theory.
 https://doi.org/10.1002/9781118670712.ch8

 Heinecke, A; Henry, G; Hutchinson, M; Pabst, H. 
 Proceedings of Intl. Supercomputing Conference, 981-991 (2016). 
 LIBXSMM: Accelerating Small Matrix Multiplications
 by Runtime Code Generation.
 https://doi.org/10.1109/SC.2016.83

 Borstnik, U; VandeVondele, J; Weber, V; Hutter, J. 
 PARALLEL COMPUTING, 40 (5-6), 47-58 (2014). 
 Sparse matrix multiplication: The distributed block-compressed sparse
 row library.
 https://doi.org/10.1016/j.parco.2014.03.012

 Hutter, J; Iannuzzi, M; Schiffmann, F; VandeVondele, J. 
 WIREs Comput Mol Sci., 4 (1), 15-25 (2014). 
 CP2K: atomistic simulations of condensed matter systems.
 https://doi.org/10.1002/wcms.1159

 Marek, A; Blum, V; Johanni, R; Havu, V; Lang, B; Auckenthaler, T;
 Heinecke, A; Bungartz, H; Lederer, H. 
 Journal of Physics: Condensed Matter, 26 (21), (2014). 
 The ELPA library: scalable parallel eigenvalue solutions for
 electronic structure
 theory and computational science.
 https://doi.org/10.1088/0953-8984/26/21/213201

 VandeVondele, J; Hutter, J. 
 JOURNAL OF CHEMICAL PHYSICS, 127 (11), 114105 (2007). 
 Gaussian basis sets for accurate calculations on molecular systems in
 gas and condensed phases.
 https://doi.org/10.1063/1.2770708

 Krack, M. 
 THEORETICAL CHEMISTRY ACCOUNTS, 114 (1-3), 145-152 (2005). 
 Pseudopotentials for H to Kr optimized for gradient-corrected
 exchange-correlation functionals.
 https://doi.org/10.1007/s00214-005-0655-y

 VandeVondele, J; Krack, M; Mohamed, F; Parrinello, M; Chassaing, T;
 Hutter, J. COMPUTER PHYSICS COMMUNICATIONS, 167 (2), 103-128 (2005). 
 QUICKSTEP: Fast and accurate density functional calculations using a
 mixed Gaussian and plane waves approach.
 https://doi.org/10.1016/j.cpc.2004.12.014

 Frigo, M; Johnson, SG. 
 PROCEEDINGS OF THE IEEE, 93 (2), 216-231 (2005). 
 The design and implementation of FFTW3.
 https://doi.org/10.1109/JPROC.2004.840301

 Hartwigsen, C; Goedecker, S; Hutter, J. 
 PHYSICAL REVIEW B, 58 (7), 3641-3662 (1998). 
 Relativistic separable dual-space Gaussian pseudopotentials from H to Rn.
 https://doi.org/10.1103/PhysRevB.58.3641

 Lippert, G; Hutter, J; Parrinello, M. 
 MOLECULAR PHYSICS, 92 (3), 477-487 (1997). 
 A hybrid Gaussian and plane wave density functional scheme.
 https://doi.org/10.1080/002689797170220

 Perdew, JP; Burke, K; Ernzerhof, M. 
 PHYSICAL REVIEW LETTERS, 77 (18), 3865-3868 (1996). 
 Generalized gradient approximation made simple.
 https://doi.org/10.1103/PhysRevLett.77.3865

 Goedecker, S; Teter, M; Hutter, J. 
 PHYSICAL REVIEW B, 54 (3), 1703-1710 (1996). 
 Separable dual-space Gaussian pseudopotentials.
 https://doi.org/10.1103/PhysRevB.54.1703


 -------------------------------------------------------------------------------
 -                                                                             -
 -                                T I M I N G                                  -
 -                                                                             -
 -------------------------------------------------------------------------------
 SUBROUTINE                       CALLS  ASD         SELF TIME        TOTAL TIME
                                MAXIMUM       AVERAGE  MAXIMUM  AVERAGE  MAXIMUM
 CP2K                                 1  1.0    0.285    0.316  199.430  199.431
 qs_energies                          1  2.0    0.001    0.002  197.114  197.132
 scf_env_do_scf                       1  3.0    0.001    0.002  177.401  177.402
 scf_env_do_scf_inner_loop           13  4.0    0.008    0.016  177.400  177.401
 qs_scf_new_mos_kp                   13  5.0    0.000    0.000  173.291  173.302
 do_general_diag_kp                  13  6.0    0.072    0.077  173.291  173.301
 cp_cfm_geeig                      2340  7.0    0.038    0.050  152.638  152.747
 cp_cfm_heevd                      2340  8.0  119.319  121.330  119.319  121.330
 cp_cfm_triangular_multiply        7020  8.0   17.152   18.870   17.152   18.870
 run_smeagol_bulktrans                1  3.0    0.131   15.717   17.144   17.162
 convert_dbcsr_to_replsiesta          4  4.0    0.106    0.108   15.786   15.910
 mp_max_iv                            6  5.0   15.406   15.532   15.406   15.532
 cp_cfm_cholesky_decompose         2340  8.0    7.612   12.011    7.612   12.011
 kpoint_density_matrices             14  6.9    0.127    0.139   11.280   11.307
 cp_cfm_to_cfm_columns             2340  8.0    6.035   11.185    6.035   11.185
 cp_gemm                          10080  7.9    0.011    0.013   11.146   11.177
 cp_gemm_fm_gemm                  10080  8.9    0.012    0.014   11.135   11.166
 cp_fm_gemm                       10080  9.9   11.123   11.155   11.123   11.155
 copy_dbcsr_to_fm                  9429  7.0    0.080    0.083    4.425    4.555
 dbcsr_complete_redistribute      14469  8.3    0.548    0.623    3.917    4.044
 -------------------------------------------------------------------------------

 The number of warnings for this run is : 1
 
 -------------------------------------------------------------------------------
  **** **** ******  **  PROGRAM ENDED AT                 2023-04-03 14:06:00.363
 ***** ** ***  *** **   PROGRAM RAN ON                                 nid003584
 **    ****   ******    PROGRAM RAN BY                                    cahart
 ***** **    ** ** **   PROGRAM PROCESS ID                                 75466
  **** **  *******  **  PROGRAM STOPPED IN /mnt/lustre/a2fs-work2/work/e05/e05/c
                                           ahart/postdoc/transport/AuH2/cp2k-sme
                                           agol/archer_lda/leads/kpoints-3-3-20_
                                           hlb-auto
