 DBCSR| CPU Multiplication driver                                           BLAS
 DBCSR| Multrec recursion limit                                              512
 DBCSR| Multiplication stack size                                           1000
 DBCSR| Maximum elements for images                                    UNLIMITED
 DBCSR| Multiplicative factor virtual images                                   1
 DBCSR| Use multiplication densification                                       T
 DBCSR| Multiplication size stacks                                             3
 DBCSR| Use memory pool for CPU allocation                                     F
 DBCSR| Number of 3D layers                                               SINGLE
 DBCSR| Use MPI memory allocation                                              F
 DBCSR| Use RMA algorithm                                                      F
 DBCSR| Use Communication thread                                               T
 DBCSR| Communication thread load                                             83
 DBCSR| MPI: My node id                                                        0
 DBCSR| MPI: Number of nodes                                                  64
 DBCSR| OMP: Current number of threads                                         2
 DBCSR| OMP: Max number of threads                                             2
 DBCSR| Split modifier for TAS multiplication algorithm                  1.0E+00


  **** **** ******  **  PROGRAM STARTED AT               2023-11-28 13:28:13.844
 ***** ** ***  *** **   PROGRAM STARTED ON                             nid002685
 **    ****   ******    PROGRAM STARTED BY                                cahart
 ***** **    ** ** **   PROGRAM PROCESS ID                                227223
  **** **  *******  **  PROGRAM STARTED IN /mnt/lustre/a2fs-work2/work/e05/e05/c
                                           ahart/postdoc/transport/cp2k-smeagol-
                                           examples/au-bdt/cp2k-smeagol/transmis
                                           sion/kpoints-1-1-20

 CP2K| version string:                 CP2K version 2022.1 (Development Version)
 CP2K| source code revision number:                                  git:215a478
 CP2K| cp2kflags: omp libint fftw3 libxc elpa parallel mpi3 scalapack mkl       
 CP2K| is freely available from                            https://www.cp2k.org/
 CP2K| Program compiled at                          Mon 30 Oct 16:32:24 GMT 2023
 CP2K| Program compiled on                                                  ln03
 CP2K| Program compiled for                                                local
 CP2K| Data directory path    /work/e05/e05/cahart/smeagol/smgl/cp2k-private-ser
 CP2K| Input file name                                                  3_0V.inp

 GLOBAL| Force Environment number                                              1
 GLOBAL| Basis set file name                                        BASIS_MOLOPT
 GLOBAL| Potential file name                                      GTH_POTENTIALS
 GLOBAL| MM Potential file name                                     MM_POTENTIAL
 GLOBAL| Coordinate file name                                             em.xyz
 GLOBAL| Method name                                                        CP2K
 GLOBAL| Project name                                                         0V
 GLOBAL| Run type                                                         ENERGY
 GLOBAL| FFT library                                                       FFTW3
 GLOBAL| Diagonalization library                                            ELPA
 GLOBAL| Minimum number of eigenvectors for ELPA usage                        16
 GLOBAL| Orthonormality check for eigenvectors                          DISABLED
 GLOBAL| Matrix multiplication library                                 ScaLAPACK
 GLOBAL| All-to-all communication in single precision                          F
 GLOBAL| FFTs using library dependent lengths                                  T
 GLOBAL| Grid backend                                                       AUTO
 GLOBAL| Global print level                                               MEDIUM
 GLOBAL| MPI I/O enabled                                                       T
 GLOBAL| Total number of message passing processes                            64
 GLOBAL| Number of threads for this process                                    2
 GLOBAL| This output is from process                                           0
 GLOBAL| Stack size for threads created by OpenMP (OMP_STACKSIZE)        default
 GLOBAL| CPU model name                          AMD EPYC 7742 64-Core Processor
 GLOBAL| CPUID                                                              1002

 MEMORY| system memory details [Kb]
 MEMORY|                        rank 0           min           max       average
 MEMORY| MemTotal            263341976     263341976     263341976     263341976
 MEMORY| MemFree             242471352     242471352     242472360     242471470
 MEMORY| Buffers                     0             0             0             0
 MEMORY| Cached                4121404       4121404       4121404       4121404
 MEMORY| Slab                  3156624       3156624       3156624       3156624
 MEMORY| SReclaimable           125304        125304        125304        125304
 MEMORY| MemLikelyFree       246718060     246718060     246719068     246718178


 *** Fundamental physical constants (SI units) ***

 *** Literature: B. J. Mohr and B. N. Taylor,
 ***             CODATA recommended values of the fundamental physical
 ***             constants: 2006, Web Version 5.1
 ***             http://physics.nist.gov/constants

 Speed of light in vacuum [m/s]                             2.99792458000000E+08
 Magnetic constant or permeability of vacuum [N/A**2]       1.25663706143592E-06
 Electric constant or permittivity of vacuum [F/m]          8.85418781762039E-12
 Planck constant (h) [J*s]                                  6.62606896000000E-34
 Planck constant (h-bar) [J*s]                              1.05457162825177E-34
 Elementary charge [C]                                      1.60217648700000E-19
 Electron mass [kg]                                         9.10938215000000E-31
 Electron g factor [ ]                                     -2.00231930436220E+00
 Proton mass [kg]                                           1.67262163700000E-27
 Fine-structure constant                                    7.29735253760000E-03
 Rydberg constant [1/m]                                     1.09737315685270E+07
 Avogadro constant [1/mol]                                  6.02214179000000E+23
 Boltzmann constant [J/K]                                   1.38065040000000E-23
 Atomic mass unit [kg]                                      1.66053878200000E-27
 Bohr radius [m]                                            5.29177208590000E-11

 *** Conversion factors ***

 [u] -> [a.u.]                                              1.82288848426455E+03
 [Angstrom] -> [Bohr] = [a.u.]                              1.88972613288564E+00
 [a.u.] = [Bohr] -> [Angstrom]                              5.29177208590000E-01
 [a.u.] -> [s]                                              2.41888432650478E-17
 [a.u.] -> [fs]                                             2.41888432650478E-02
 [a.u.] -> [J]                                              4.35974393937059E-18
 [a.u.] -> [N]                                              8.23872205491840E-08
 [a.u.] -> [K]                                              3.15774647902944E+05
 [a.u.] -> [kJ/mol]                                         2.62549961709828E+03
 [a.u.] -> [kcal/mol]                                       6.27509468713739E+02
 [a.u.] -> [Pa]                                             2.94210107994716E+13
 [a.u.] -> [bar]                                            2.94210107994716E+08
 [a.u.] -> [atm]                                            2.90362800883016E+08
 [a.u.] -> [eV]                                             2.72113838565563E+01
 [a.u.] -> [Hz]                                             6.57968392072181E+15
 [a.u.] -> [1/cm] (wave numbers)                            2.19474631370540E+05
 [a.u./Bohr**2] -> [1/cm]                                   5.14048714338585E+03
 

 CELL_TOP| Volume [angstrom^3]:                                      2373.775782
 CELL_TOP| Vector a [angstrom     8.292     0.000     0.000   |a| =     8.292000
 CELL_TOP| Vector b [angstrom     0.000     8.292     0.000   |b| =     8.292000
 CELL_TOP| Vector c [angstrom     0.000     0.000    34.524   |c| =    34.524000
 CELL_TOP| Angle (b,c), alpha [degree]:                                90.000000
 CELL_TOP| Angle (a,c), beta  [degree]:                                90.000000
 CELL_TOP| Angle (a,b), gamma [degree]:                                90.000000
 CELL_TOP| Numerically orthorhombic:                                         YES
 CELL_TOP| Periodicity                                                       XYZ

 GENERATE|  Preliminary Number of Bonds generated:                             0
 GENERATE|  Achieved consistency in connectivity generation.

 CELL| Volume [angstrom^3]:                                          2373.775782
 CELL| Vector a [angstrom]:       8.292     0.000     0.000   |a| =     8.292000
 CELL| Vector b [angstrom]:       0.000     8.292     0.000   |b| =     8.292000
 CELL| Vector c [angstrom]:       0.000     0.000    34.524   |c| =    34.524000
 CELL| Angle (b,c), alpha [degree]:                                    90.000000
 CELL| Angle (a,c), beta  [degree]:                                    90.000000
 CELL| Angle (a,b), gamma [degree]:                                    90.000000
 CELL| Numerically orthorhombic:                                             YES
 CELL| Periodicity                                                           XYZ

 CELL_REF| Volume [angstrom^3]:                                      2373.775782
 CELL_REF| Vector a [angstrom     8.292     0.000     0.000   |a| =     8.292000
 CELL_REF| Vector b [angstrom     0.000     8.292     0.000   |b| =     8.292000
 CELL_REF| Vector c [angstrom     0.000     0.000    34.524   |c| =    34.524000
 CELL_REF| Angle (b,c), alpha [degree]:                                90.000000
 CELL_REF| Angle (a,c), beta  [degree]:                                90.000000
 CELL_REF| Angle (a,b), gamma [degree]:                                90.000000
 CELL_REF| Numerically orthorhombic:                                         YES
 CELL_REF| Periodicity                                                       XYZ

 *** WARNING in cryssym.F:165 :: Symmetry library SPGLIB not available ***


 *******************************************************************************
                                    Kpoints
 *******************************************************************************
 BRILLOUIN| K-point scheme                                        Monkhorst-Pack
 BRILLOUIN| K-Point grid                                             1    1    1
 BRILLOUIN| Accuracy in Symmetry determination                      0.100000E-07
 BRILLOUIN| K-Point point group symmetrization                               OFF
 BRILLOUIN| Wavefunction type                                            COMPLEX
 BRILLOUIN| Use full k-point grid     
 BRILLOUIN| List of Kpoints [2 Pi/Bohr]                                        1
 BRILLOUIN| Number           Weight            X              Y              Z
 BRILLOUIN|     1           1.00000        0.00000        0.00000        0.00000
 *******************************************************************************

 *******************************************************************************
 *******************************************************************************
 **                                                                           **
 **     #####                         ##              ##                      **
 **    ##   ##            ##          ##              ##                      **
 **   ##     ##                       ##            ######                    **
 **   ##     ##  ##   ##  ##   #####  ##  ##   ####   ##    #####    #####    **
 **   ##     ##  ##   ##  ##  ##      ## ##   ##      ##   ##   ##  ##   ##   **
 **   ##  ## ##  ##   ##  ##  ##      ####     ###    ##   ######   ######    **
 **    ##  ###   ##   ##  ##  ##      ## ##      ##   ##   ##       ##        **
 **     #######   #####   ##   #####  ##  ##  ####    ##    #####   ##        **
 **           ##                                                    ##        **
 **                                                                           **
 **                                                ... make the atoms dance   **
 **                                                                           **
 **            Copyright (C) by CP2K developers group (2000-2022)             **
 **                      J. Chem. Phys. 152, 194103 (2020)                    **
 **                                                                           **
 *******************************************************************************

 DFT| Spin restricted Kohn-Sham (RKS) calculation                            RKS
 DFT| Multiplicity                                                             1
 DFT| Number of spin states                                                    1
 DFT| Charge                                                                   0
 DFT| Self-interaction correction (SIC)                                       NO
 DFT| Cutoffs: density                                              1.000000E-10
 DFT|          gradient                                             1.000000E-10
 DFT|          tau                                                  1.000000E-10
 DFT|          cutoff_smoothing_range                               0.000000E+00
 DFT| XC density smoothing                                                  NONE
 DFT| XC derivatives                                                          PW

 FUNCTIONAL| PADE:
 FUNCTIONAL| S. Goedecker, M. Teter and J. Hutter, Phys. Rev. B 54, 1703 (1996) 


 QS| Method:                                                                 GPW
 QS| Density plane wave grid type                        NON-SPHERICAL FULLSPACE
 QS| Number of grid levels:                                                    4
 QS| Density cutoff [a.u.]:                                                200.0
 QS| Multi grid cutoff [a.u.]: 1) grid level                               200.0
 QS|                           2) grid level                                66.7
 QS|                           3) grid level                                22.2
 QS|                           4) grid level                                 7.4
 QS| Grid level progression factor:                                          3.0
 QS| Relative density cutoff [a.u.]:                                        20.0
 QS| Interaction thresholds: eps_pgf_orb:                                1.0E-05
 QS|                         eps_filter_matrix:                          0.0E+00
 QS|                         eps_core_charge:                            1.0E-12
 QS|                         eps_rho_gspace:                             1.0E-10
 QS|                         eps_rho_rspace:                             1.0E-10
 QS|                         eps_gvg_rspace:                             1.0E-05
 QS|                         eps_ppl:                                    1.0E-02
 QS|                         eps_ppnl:                                   1.0E-07


 ATOMIC KIND INFORMATION

  1. Atomic kind: Au                                    Number of atoms:     104

     Orbital Basis Set                                         SZV-MOLOPT-SR-GTH

       Number of orbital shell sets:                                           1
       Number of orbital shells:                                               3
       Number of primitive Cartesian functions:                                5
       Number of Cartesian basis functions:                                   10
       Number of spherical basis functions:                                    9
       Norm type:                                                              2

       Normalised Cartesian orbitals:

                        Set   Shell   Orbital            Exponent    Coefficient

                          1       1    2s                2.950008       0.074626
                                                         1.563057      -0.007898
                                                         0.666664      -0.297688
                                                         0.251083       0.136809
                                                         0.081714       0.088198

                          1       2    3px               2.950008       0.148824
                                                         1.563057       0.025430
                                                         0.666664      -0.123003
                                                         0.251083       0.033648
                                                         0.081714       0.059008
                          1       2    3py               2.950008       0.148824
                                                         1.563057       0.025430
                                                         0.666664      -0.123003
                                                         0.251083       0.033648
                                                         0.081714       0.059008
                          1       2    3pz               2.950008       0.148824
                                                         1.563057       0.025430
                                                         0.666664      -0.123003
                                                         0.251083       0.033648
                                                         0.081714       0.059008

                          1       3    4dx2              2.950008      -0.139595
                                                         1.563057       1.319655
                                                         0.666664       0.377081
                                                         0.251083       0.046872
                                                         0.081714       0.001393
                          1       3    4dxy              2.950008      -0.241786
                                                         1.563057       2.285709
                                                         0.666664       0.653124
                                                         0.251083       0.081185
                                                         0.081714       0.002412
                          1       3    4dxz              2.950008      -0.241786
                                                         1.563057       2.285709
                                                         0.666664       0.653124
                                                         0.251083       0.081185
                                                         0.081714       0.002412
                          1       3    4dy2              2.950008      -0.139595
                                                         1.563057       1.319655
                                                         0.666664       0.377081
                                                         0.251083       0.046872
                                                         0.081714       0.001393
                          1       3    4dyz              2.950008      -0.241786
                                                         1.563057       2.285709
                                                         0.666664       0.653124
                                                         0.251083       0.081185
                                                         0.081714       0.002412
                          1       3    4dz2              2.950008      -0.139595
                                                         1.563057       1.319655
                                                         0.666664       0.377081
                                                         0.251083       0.046872
                                                         0.081714       0.001393

       Atomic covalent radius [Angstrom]:                                  1.340

       Atomic van der Waals radius [Angstrom]:                             1.660

     GTH Potential information for                                  GTH-PADE-q11

       Description:                       Goedecker-Teter-Hutter pseudopotential
                                           Goedecker et al., PRB 54, 1703 (1996)
                                          Hartwigsen et al., PRB 58, 3641 (1998)
                                                      Krack, TCA 114, 145 (2005)

       Gaussian exponent of the core charge distribution:               1.436369
       Electronic configuration (s p d ...):                           1   0  10

       Parameters of the local part of the GTH pseudopotential:

                          rloc        C1          C2          C3          C4
                        0.590000   11.604428

       Parameters of the non-local part of the GTH pseudopotential:

                   l      r(l)      h(i,j,l)

                   0    0.521180    2.538614   -1.046137
                                   -1.046137    2.701113
                   1    0.630613    0.394853   -0.869592
                                   -0.869592    2.057831
                   2    0.440706   -4.719070    0.727771
                                    0.727771   -1.650429

  2. Atomic kind: S                                     Number of atoms:       2

     Orbital Basis Set                                        DZVP-MOLOPT-SR-GTH

       Number of orbital shell sets:                                           1
       Number of orbital shells:                                               5
       Number of primitive Cartesian functions:                                4
       Number of Cartesian basis functions:                                   14
       Number of spherical basis functions:                                   13
       Norm type:                                                              2

       Normalised Cartesian orbitals:

                        Set   Shell   Orbital            Exponent    Coefficient

                          1       1    2s                2.215855       0.308496
                                                         1.131471       0.138505
                                                         0.410168      -0.373736
                                                         0.140587      -0.040370

                          1       2    3s                2.215855      -0.329528
                                                         1.131471      -0.517509
                                                         0.410168       0.787368
                                                         0.140587      -0.322786

                          1       3    3px               2.215855       0.420434
                                                         1.131471      -0.319283
                                                         0.410168      -0.335323
                                                         0.140587      -0.030976
                          1       3    3py               2.215855       0.420434
                                                         1.131471      -0.319283
                                                         0.410168      -0.335323
                                                         0.140587      -0.030976
                          1       3    3pz               2.215855       0.420434
                                                         1.131471      -0.319283
                                                         0.410168      -0.335323
                                                         0.140587      -0.030976

                          1       4    4px               2.215855       0.241296
                                                         1.131471      -0.170582
                                                         0.410168      -0.186977
                                                         0.140587       0.153509
                          1       4    4py               2.215855       0.241296
                                                         1.131471      -0.170582
                                                         0.410168      -0.186977
                                                         0.140587       0.153509
                          1       4    4pz               2.215855       0.241296
                                                         1.131471      -0.170582
                                                         0.410168      -0.186977
                                                         0.140587       0.153509

                          1       5    4dx2              2.215855       0.573559
                                                         1.131471       0.544926
                                                         0.410168       0.228284
                                                         0.140587       0.008811
                          1       5    4dxy              2.215855       0.993434
                                                         1.131471       0.943840
                                                         0.410168       0.395400
                                                         0.140587       0.015260
                          1       5    4dxz              2.215855       0.993434
                                                         1.131471       0.943840
                                                         0.410168       0.395400
                                                         0.140587       0.015260
                          1       5    4dy2              2.215855       0.573559
                                                         1.131471       0.544926
                                                         0.410168       0.228284
                                                         0.140587       0.008811
                          1       5    4dyz              2.215855       0.993434
                                                         1.131471       0.943840
                                                         0.410168       0.395400
                                                         0.140587       0.015260
                          1       5    4dz2              2.215855       0.573559
                                                         1.131471       0.544926
                                                         0.410168       0.228284
                                                         0.140587       0.008811

       Atomic covalent radius [Angstrom]:                                  1.020

       Atomic van der Waals radius [Angstrom]:                             1.800

     GTH Potential information for                                   GTH-PADE-q6

       Description:                       Goedecker-Teter-Hutter pseudopotential
                                           Goedecker et al., PRB 54, 1703 (1996)
                                          Hartwigsen et al., PRB 58, 3641 (1998)
                                                      Krack, TCA 114, 145 (2005)

       Gaussian exponent of the core charge distribution:               2.834467
       Electronic configuration (s p d ...):                               2   4

       Parameters of the local part of the GTH pseudopotential:

                          rloc        C1          C2          C3          C4
                        0.420000   -6.554492

       Parameters of the non-local part of the GTH pseudopotential:

                   l      r(l)      h(i,j,l)

                   0    0.361757    7.905303   -1.731881
                                   -1.731881    4.471698
                   1    0.405285    3.866579

  3. Atomic kind: C                                     Number of atoms:       6

     Orbital Basis Set                                        DZVP-MOLOPT-SR-GTH

       Number of orbital shell sets:                                           1
       Number of orbital shells:                                               5
       Number of primitive Cartesian functions:                                5
       Number of Cartesian basis functions:                                   14
       Number of spherical basis functions:                                   13
       Norm type:                                                              2

       Normalised Cartesian orbitals:

                        Set   Shell   Orbital            Exponent    Coefficient

                          1       1    2s                5.605331       0.322515
                                                         2.113016       0.213043
                                                         0.769911      -0.209686
                                                         0.348157      -0.219794
                                                         0.128212      -0.022789

                          1       2    3s                5.605331       0.552234
                                                         2.113016       0.082072
                                                         0.769911       0.007843
                                                         0.348157       0.136893
                                                         0.128212       0.074283

                          1       3    3px               5.605331      -0.703879
                                                         2.113016      -0.642521
                                                         0.769911      -0.374851
                                                         0.348157      -0.139743
                                                         0.128212      -0.027849
                          1       3    3py               5.605331      -0.703879
                                                         2.113016      -0.642521
                                                         0.769911      -0.374851
                                                         0.348157      -0.139743
                                                         0.128212      -0.027849
                          1       3    3pz               5.605331      -0.703879
                                                         2.113016      -0.642521
                                                         0.769911      -0.374851
                                                         0.348157      -0.139743
                                                         0.128212      -0.027849

                          1       4    4px               5.605331      -0.480376
                                                         2.113016      -0.552894
                                                         0.769911      -0.316145
                                                         0.348157       0.210505
                                                         0.128212       0.076095
                          1       4    4py               5.605331      -0.480376
                                                         2.113016      -0.552894
                                                         0.769911      -0.316145
                                                         0.348157       0.210505
                                                         0.128212       0.076095
                          1       4    4pz               5.605331      -0.480376
                                                         2.113016      -0.552894
                                                         0.769911      -0.316145
                                                         0.348157       0.210505
                                                         0.128212       0.076095

                          1       5    4dx2              5.605331       0.640026
                                                         2.113016       0.274300
                                                         0.769911       0.446711
                                                         0.348157       0.028674
                                                         0.128212       0.029790
                          1       5    4dxy              5.605331       1.108557
                                                         2.113016       0.475102
                                                         0.769911       0.773726
                                                         0.348157       0.049666
                                                         0.128212       0.051599
                          1       5    4dxz              5.605331       1.108557
                                                         2.113016       0.475102
                                                         0.769911       0.773726
                                                         0.348157       0.049666
                                                         0.128212       0.051599
                          1       5    4dy2              5.605331       0.640026
                                                         2.113016       0.274300
                                                         0.769911       0.446711
                                                         0.348157       0.028674
                                                         0.128212       0.029790
                          1       5    4dyz              5.605331       1.108557
                                                         2.113016       0.475102
                                                         0.769911       0.773726
                                                         0.348157       0.049666
                                                         0.128212       0.051599
                          1       5    4dz2              5.605331       0.640026
                                                         2.113016       0.274300
                                                         0.769911       0.446711
                                                         0.348157       0.028674
                                                         0.128212       0.029790

       Atomic covalent radius [Angstrom]:                                  0.770

       Atomic van der Waals radius [Angstrom]:                             1.700

     GTH Potential information for                                   GTH-PADE-q4

       Description:                       Goedecker-Teter-Hutter pseudopotential
                                           Goedecker et al., PRB 54, 1703 (1996)
                                          Hartwigsen et al., PRB 58, 3641 (1998)
                                                      Krack, TCA 114, 145 (2005)

       Gaussian exponent of the core charge distribution:               4.109048
       Electronic configuration (s p d ...):                               2   2

       Parameters of the local part of the GTH pseudopotential:

                          rloc        C1          C2          C3          C4
                        0.348830   -8.513771    1.228432

       Parameters of the non-local part of the GTH pseudopotential:

                   l      r(l)      h(i,j,l)

                   0    0.304553    9.522842
                   1    0.232677

  4. Atomic kind: H                                     Number of atoms:       4

     Orbital Basis Set                                        DZVP-MOLOPT-SR-GTH

       Number of orbital shell sets:                                           1
       Number of orbital shells:                                               3
       Number of primitive Cartesian functions:                                5
       Number of Cartesian basis functions:                                    5
       Number of spherical basis functions:                                    5
       Norm type:                                                              2

       Normalised Cartesian orbitals:

                        Set   Shell   Orbital            Exponent    Coefficient

                          1       1    2s               10.068468      -0.133023
                                                         2.680223      -0.177618
                                                         0.791502      -0.258419
                                                         0.239116      -0.107525
                                                         0.082193      -0.014019

                          1       2    3s               10.068468       0.344673
                                                         2.680223       1.819821
                                                         0.791502      -0.999069
                                                         0.239116       0.017430
                                                         0.082193       0.082660

                          1       3    3px              10.068468       0.155326
                                                         2.680223       0.367157
                                                         0.791502       0.311480
                                                         0.239116       0.080105
                                                         0.082193       0.033440
                          1       3    3py              10.068468       0.155326
                                                         2.680223       0.367157
                                                         0.791502       0.311480
                                                         0.239116       0.080105
                                                         0.082193       0.033440
                          1       3    3pz              10.068468       0.155326
                                                         2.680223       0.367157
                                                         0.791502       0.311480
                                                         0.239116       0.080105
                                                         0.082193       0.033440

       Atomic covalent radius [Angstrom]:                                  0.320

       Atomic van der Waals radius [Angstrom]:                             1.090

     GTH Potential information for                                   GTH-PADE-q1

       Description:                       Goedecker-Teter-Hutter pseudopotential
                                           Goedecker et al., PRB 54, 1703 (1996)
                                          Hartwigsen et al., PRB 58, 3641 (1998)
                                                      Krack, TCA 114, 145 (2005)

       Gaussian exponent of the core charge distribution:              12.500000
       Electronic configuration (s p d ...):                                   1

       Parameters of the local part of the GTH pseudopotential:

                          rloc        C1          C2          C3          C4
                        0.200000   -4.180237    0.725075


 MOLECULE KIND INFORMATION


 All atoms are their own molecule, skipping detailed information


 TOTAL NUMBERS AND MAXIMUM NUMBERS

  Total number of            - Atomic kinds:                                   4
                             - Atoms:                                        116
                             - Shell sets:                                   116
                             - Shells:                                       364
                             - Primitive Cartesian functions:                578
                             - Cartesian basis functions:                   1172
                             - Spherical basis functions:                   1060

  Maximum angular momentum of- Orbital basis functions:                        2
                             - Local part of the GTH pseudopotential:          2
                             - Non-local part of the GTH pseudopotential:      4


 MODULE QUICKSTEP: ATOMIC COORDINATES IN ANGSTROM

   Atom Kind Element         X             Y             Z       Z(eff)     Mass
      1    1 Au   79      0.000000      0.000000      0.000000  11.0000 196.9666
      2    1 Au   79      0.000000      4.146000      0.000000  11.0000 196.9666
      3    1 Au   79      2.073000      2.073000      0.000000  11.0000 196.9666
      4    1 Au   79      2.073000      6.219000      0.000000  11.0000 196.9666
      5    1 Au   79      4.146000      0.000000      0.000000  11.0000 196.9666
      6    1 Au   79      4.146000      4.146000      0.000000  11.0000 196.9666
      7    1 Au   79      6.219000      2.073000      0.000000  11.0000 196.9666
      8    1 Au   79      6.219000      6.219000      0.000000  11.0000 196.9666
      9    1 Au   79      0.000000      2.073000      2.073000  11.0000 196.9666
     10    1 Au   79      0.000000      6.219000      2.073000  11.0000 196.9666
     11    1 Au   79      2.073000      0.000000      2.073000  11.0000 196.9666
     12    1 Au   79      2.073000      4.146000      2.073000  11.0000 196.9666
     13    1 Au   79      4.146000      2.073000      2.073000  11.0000 196.9666
     14    1 Au   79      4.146000      6.219000      2.073000  11.0000 196.9666
     15    1 Au   79      6.219000      0.000000      2.073000  11.0000 196.9666
     16    1 Au   79      6.219000      4.146000      2.073000  11.0000 196.9666
     17    1 Au   79      0.000000      0.000000      4.146000  11.0000 196.9666
     18    1 Au   79      0.000000      4.146000      4.146000  11.0000 196.9666
     19    1 Au   79      2.073000      2.073000      4.146000  11.0000 196.9666
     20    1 Au   79      2.073000      6.219000      4.146000  11.0000 196.9666
     21    1 Au   79      4.146000      0.000000      4.146000  11.0000 196.9666
     22    1 Au   79      4.146000      4.146000      4.146000  11.0000 196.9666
     23    1 Au   79      6.219000      2.073000      4.146000  11.0000 196.9666
     24    1 Au   79      6.219000      6.219000      4.146000  11.0000 196.9666
     25    1 Au   79      0.000000      2.073000      6.219000  11.0000 196.9666
     26    1 Au   79      0.000000      6.219000      6.219000  11.0000 196.9666
     27    1 Au   79      2.073000      0.000000      6.219000  11.0000 196.9666
     28    1 Au   79      2.073000      4.146000      6.219000  11.0000 196.9666
     29    1 Au   79      4.146000      2.073000      6.219000  11.0000 196.9666
     30    1 Au   79      4.146000      6.219000      6.219000  11.0000 196.9666
     31    1 Au   79      6.219000      0.000000      6.219000  11.0000 196.9666
     32    1 Au   79      6.219000      4.146000      6.219000  11.0000 196.9666
     33    1 Au   79      0.000000      0.000000      8.292000  11.0000 196.9666
     34    1 Au   79      0.000000      4.146000      8.292000  11.0000 196.9666
     35    1 Au   79      2.073000      2.073000      8.292000  11.0000 196.9666
     36    1 Au   79      2.073000      6.219000      8.292000  11.0000 196.9666
     37    1 Au   79      4.146000      0.000000      8.292000  11.0000 196.9666
     38    1 Au   79      4.146000      4.146000      8.292000  11.0000 196.9666
     39    1 Au   79      6.219000      2.073000      8.292000  11.0000 196.9666
     40    1 Au   79      6.219000      6.219000      8.292000  11.0000 196.9666
     41    1 Au   79      0.000000      2.073000     10.365000  11.0000 196.9666
     42    1 Au   79      0.000000      6.219000     10.365000  11.0000 196.9666
     43    1 Au   79      2.073000      0.000000     10.365000  11.0000 196.9666
     44    1 Au   79      2.073000      4.146000     10.365000  11.0000 196.9666
     45    1 Au   79      4.146000      2.073000     10.365000  11.0000 196.9666
     46    1 Au   79      4.146000      6.219000     10.365000  11.0000 196.9666
     47    1 Au   79      6.219000      0.000000     10.365000  11.0000 196.9666
     48    1 Au   79      6.219000      4.146000     10.365000  11.0000 196.9666
     49    1 Au   79      0.000000      0.000000     12.438000  11.0000 196.9666
     50    1 Au   79      0.000000      4.146000     12.438000  11.0000 196.9666
     51    1 Au   79      2.073000      2.073000     12.438000  11.0000 196.9666
     52    1 Au   79      2.073000      6.219000     12.438000  11.0000 196.9666
     53    1 Au   79      4.146000      0.000000     12.438000  11.0000 196.9666
     54    1 Au   79      4.146000      4.146000     12.438000  11.0000 196.9666
     55    1 Au   79      6.219000      2.073000     12.438000  11.0000 196.9666
     56    1 Au   79      6.219000      6.219000     12.438000  11.0000 196.9666
     57    2 S    16      4.146000      2.073000     14.089000   6.0000  32.0650
     58    3 C     6      4.149000      2.077000     15.850000   4.0000  12.0107
     59    4 H     1      2.047000      2.103000     16.033000   1.0000   1.0079
     60    4 H     1      6.244000      2.103000     16.039000   1.0000   1.0079
     61    3 C     6      2.940000      2.083000     16.551000   4.0000  12.0107
     62    3 C     6      5.348000      2.083000     16.551000   4.0000  12.0107
     63    3 C     6      2.933000      2.061000     17.974000   4.0000  12.0107
     64    3 C     6      5.341000      2.061000     17.974000   4.0000  12.0107
     65    4 H     1      2.037000      2.041000     18.485000   1.0000   1.0079
     66    4 H     1      6.234000      2.041000     18.491000   1.0000   1.0079
     67    3 C     6      4.132000      2.067000     18.674000   4.0000  12.0107
     68    2 S    16      4.146000      2.073000     20.436000   6.0000  32.0650
     69    1 Au   79      0.000000      0.000000     22.086000  11.0000 196.9666
     70    1 Au   79      0.000000      4.146000     22.086000  11.0000 196.9666
     71    1 Au   79      2.073000      2.073000     22.086000  11.0000 196.9666
     72    1 Au   79      2.073000      6.219000     22.086000  11.0000 196.9666
     73    1 Au   79      4.146000      0.000000     22.086000  11.0000 196.9666
     74    1 Au   79      4.146000      4.146000     22.086000  11.0000 196.9666
     75    1 Au   79      6.219000      2.073000     22.086000  11.0000 196.9666
     76    1 Au   79      6.219000      6.219000     22.086000  11.0000 196.9666
     77    1 Au   79      0.000000      2.073000     24.159000  11.0000 196.9666
     78    1 Au   79      0.000000      6.219000     24.159000  11.0000 196.9666
     79    1 Au   79      2.073000      0.000000     24.159000  11.0000 196.9666
     80    1 Au   79      2.073000      4.146000     24.159000  11.0000 196.9666
     81    1 Au   79      4.146000      2.073000     24.159000  11.0000 196.9666
     82    1 Au   79      4.146000      6.219000     24.159000  11.0000 196.9666
     83    1 Au   79      6.219000      0.000000     24.159000  11.0000 196.9666
     84    1 Au   79      6.219000      4.146000     24.159000  11.0000 196.9666
     85    1 Au   79      0.000000      0.000000     26.232000  11.0000 196.9666
     86    1 Au   79      0.000000      4.146000     26.232000  11.0000 196.9666
     87    1 Au   79      2.073000      2.073000     26.232000  11.0000 196.9666
     88    1 Au   79      2.073000      6.219000     26.232000  11.0000 196.9666
     89    1 Au   79      4.146000      0.000000     26.232000  11.0000 196.9666
     90    1 Au   79      4.146000      4.146000     26.232000  11.0000 196.9666
     91    1 Au   79      6.219000      2.073000     26.232000  11.0000 196.9666
     92    1 Au   79      6.219000      6.219000     26.232000  11.0000 196.9666
     93    1 Au   79      0.000000      2.073000     28.305000  11.0000 196.9666
     94    1 Au   79      0.000000      6.219000     28.305000  11.0000 196.9666
     95    1 Au   79      2.073000      0.000000     28.305000  11.0000 196.9666
     96    1 Au   79      2.073000      4.146000     28.305000  11.0000 196.9666
     97    1 Au   79      4.146000      2.073000     28.305000  11.0000 196.9666
     98    1 Au   79      4.146000      6.219000     28.305000  11.0000 196.9666
     99    1 Au   79      6.219000      0.000000     28.305000  11.0000 196.9666
    100    1 Au   79      6.219000      4.146000     28.305000  11.0000 196.9666
    101    1 Au   79      0.000000      0.000000     30.378000  11.0000 196.9666
    102    1 Au   79      0.000000      4.146000     30.378000  11.0000 196.9666
    103    1 Au   79      2.073000      2.073000     30.378000  11.0000 196.9666
    104    1 Au   79      2.073000      6.219000     30.378000  11.0000 196.9666
    105    1 Au   79      4.146000      0.000000     30.378000  11.0000 196.9666
    106    1 Au   79      4.146000      4.146000     30.378000  11.0000 196.9666
    107    1 Au   79      6.219000      2.073000     30.378000  11.0000 196.9666
    108    1 Au   79      6.219000      6.219000     30.378000  11.0000 196.9666
    109    1 Au   79      0.000000      2.073000     32.451000  11.0000 196.9666
    110    1 Au   79      0.000000      6.219000     32.451000  11.0000 196.9666
    111    1 Au   79      2.073000      0.000000     32.451000  11.0000 196.9666
    112    1 Au   79      2.073000      4.146000     32.451000  11.0000 196.9666
    113    1 Au   79      4.146000      2.073000     32.451000  11.0000 196.9666
    114    1 Au   79      4.146000      6.219000     32.451000  11.0000 196.9666
    115    1 Au   79      6.219000      0.000000     32.451000  11.0000 196.9666
    116    1 Au   79      6.219000      4.146000     32.451000  11.0000 196.9666



 SCF PARAMETERS         Density guess:                                    ATOMIC
                        --------------------------------------------------------
                        max_scf:                                             500
                        max_scf_history:                                       0
                        max_diis:                                              4
                        --------------------------------------------------------
                        eps_scf:                                        1.00E-07
                        eps_scf_history:                                0.00E+00
                        eps_diis:                                       1.00E-01
                        eps_eigval:                                     1.00E-05
                        --------------------------------------------------------
                        level_shift [a.u.]:                             0.000000
                        added MOs                                       100    0
                        --------------------------------------------------------
                        Mixing method:                            BROYDEN_MIXING
                                                charge density mixing in g-space
                        --------------------------------------------------------
                        Smear method:                                FERMI_DIRAC
                        Electronic temperature [K]:                        300.0
                        Electronic temperature [a.u.]:                  9.50E-04
                        Accuracy threshold:                             1.00E-10
                        --------------------------------------------------------
                        No outer SCF

 PW_GRID| Information for grid number                                          1
 PW_GRID| Grid distributed over                                    64 processors
 PW_GRID| Real space group dimensions                                    64    1
 PW_GRID| the grid is blocked:                                                NO
 PW_GRID| Cutoff [a.u.]                                                    200.0
 PW_GRID| spherical cutoff:                                                   NO
 PW_GRID|   Bounds   1            -49      49                Points:          99
 PW_GRID|   Bounds   2            -49      49                Points:          99
 PW_GRID|   Bounds   3           -210     209                Points:         420
 PW_GRID| Volume element (a.u.^3)  0.3891E-02     Volume (a.u.^3)     16019.0332
 PW_GRID| Grid span                                                    FULLSPACE
 PW_GRID|   Distribution                         Average         Max         Min
 PW_GRID|   G-Vectors                            64319.1       64350       64251
 PW_GRID|   G-Rays                                 649.7         650         649
 PW_GRID|   Real Space Points                    64319.1       83160       41580

 PW_GRID| Information for grid number                                          2
 PW_GRID| Number of the reference grid                                         1
 PW_GRID| Grid distributed over                                    64 processors
 PW_GRID| Real space group dimensions                                     8    8
 PW_GRID| the grid is blocked:                                                NO
 PW_GRID| Cutoff [a.u.]                                                     66.7
 PW_GRID| spherical cutoff:                                                   NO
 PW_GRID|   Bounds   1            -30      29                Points:          60
 PW_GRID|   Bounds   2            -30      29                Points:          60
 PW_GRID|   Bounds   3           -120     119                Points:         240
 PW_GRID| Volume element (a.u.^3)  0.1854E-01     Volume (a.u.^3)     16019.0332
 PW_GRID| Grid span                                                    FULLSPACE
 PW_GRID|   Distribution                         Average         Max         Min
 PW_GRID|   G-Vectors                            13500.0       13800       13200
 PW_GRID|   G-Rays                                 225.0         230         220
 PW_GRID|   Real Space Points                    13500.0       15360       11760

 PW_GRID| Information for grid number                                          3
 PW_GRID| Number of the reference grid                                         1
 PW_GRID| Grid distributed over                                    64 processors
 PW_GRID| Real space group dimensions                                     8    8
 PW_GRID| the grid is blocked:                                                NO
 PW_GRID| Cutoff [a.u.]                                                     22.2
 PW_GRID| spherical cutoff:                                                   NO
 PW_GRID|   Bounds   1            -16      16                Points:          33
 PW_GRID|   Bounds   2            -16      16                Points:          33
 PW_GRID|   Bounds   3            -70      69                Points:         140
 PW_GRID| Volume element (a.u.^3)  0.1051         Volume (a.u.^3)     16019.0332
 PW_GRID| Grid span                                                    FULLSPACE
 PW_GRID|   Distribution                         Average         Max         Min
 PW_GRID|   G-Vectors                             2382.2        2640        2079
 PW_GRID|   G-Rays                                  72.2          80          63
 PW_GRID|   Real Space Points                     2382.2        3500        2240

 PW_GRID| Information for grid number                                          4
 PW_GRID| Number of the reference grid                                         1
 PW_GRID| Grid distributed over                                    64 processors
 PW_GRID| Real space group dimensions                                     8    8
 PW_GRID| the grid is blocked:                                                NO
 PW_GRID| Cutoff [a.u.]                                                      7.4
 PW_GRID| spherical cutoff:                                                   NO
 PW_GRID|   Bounds   1            -10       9                Points:          20
 PW_GRID|   Bounds   2            -10       9                Points:          20
 PW_GRID|   Bounds   3            -40      39                Points:          80
 PW_GRID| Volume element (a.u.^3)  0.5006         Volume (a.u.^3)     16019.0332
 PW_GRID| Grid span                                                    FULLSPACE
 PW_GRID|   Distribution                         Average         Max         Min
 PW_GRID|   G-Vectors                              500.0         600         400
 PW_GRID|   G-Rays                                  25.0          30          20
 PW_GRID|   Real Space Points                      500.0         720         320

 POISSON| Solver                                                        PERIODIC
 POISSON| Periodicity                                                        XYZ

 RS_GRID| Information for grid number                                          1
 RS_GRID|   Bounds   1            -49      49                Points:          99
 RS_GRID|   Bounds   2            -49      49                Points:          99
 RS_GRID|   Bounds   3           -210     209                Points:         420
 RS_GRID| Real space distribution over                                 64 groups
 RS_GRID| Real space distribution along direction                              3
 RS_GRID| Border size                                                         29
 RS_GRID|   Distribution                         Average         Max         Min
 RS_GRID|   Planes                                  64.6          65          64

 RS_GRID| Information for grid number                                          2
 RS_GRID|   Bounds   1            -30      29                Points:          60
 RS_GRID|   Bounds   2            -30      29                Points:          60
 RS_GRID|   Bounds   3           -120     119                Points:         240
 RS_GRID| Real space distribution over                                 64 groups
 RS_GRID| Real space distribution along direction                              3
 RS_GRID| Border size                                                         22
 RS_GRID|   Distribution                         Average         Max         Min
 RS_GRID|   Planes                                  47.8          48          47

 RS_GRID| Information for grid number                                          3
 RS_GRID|   Bounds   1            -16      16                Points:          33
 RS_GRID|   Bounds   2            -16      16                Points:          33
 RS_GRID|   Bounds   3            -70      69                Points:         140
 RS_GRID| Real space fully replicated
 RS_GRID| Group size                                                           1

 RS_GRID| Information for grid number                                          4
 RS_GRID|   Bounds   1            -10       9                Points:          20
 RS_GRID|   Bounds   2            -10       9                Points:          20
 RS_GRID|   Bounds   3            -40      39                Points:          80
 RS_GRID| Real space fully replicated
 RS_GRID| Group size                                                           1

 KPOINTS| Number of kpoint groups                                              1
 KPOINTS| Size of each kpoint group                                           64
 KPOINTS| Number of kpoints per group                                          1

 Number of electrons:                                                       1184
 Number of occupied orbitals:                                                592
 Number of molecular orbitals:                                               692

 Number of orbital functions:                                               1060
 Number of independent orbital functions:                                   1060

 Extrapolation method: initial_guess

 Atomic guess: The first density matrix is obtained in terms of atomic orbitals
               and electronic configurations assigned to each atomic kind

 Guess for atomic kind: Au

 Electronic structure
    Total number of core electrons                                         68.00
    Total number of valence electrons                                      11.00
    Total number of electrons                                              79.00
    Multiplicity                                                   not specified
    S   [  2.00  2.00  2.00  2.00  2.00] 1.00
    P   [  6.00  6.00  6.00  6.00]
    D   [ 10.00 10.00]10.00
    F   [ 14.00]


 *******************************************************************************
                  Iteration          Convergence                     Energy [au]
 *******************************************************************************
                          1         0.00000                     -33.033218197848

 Energy components [Hartree]           Total Energy ::          -33.033218197848
                                        Band Energy ::           -1.147505983145
                                     Kinetic Energy ::           24.744064437587
                                   Potential Energy ::          -57.777282635435
                                      Virial (-V/T) ::            2.334995642336
                                        Core Energy ::          -60.197309615488
                                          XC Energy ::           -5.116883226844
                                     Coulomb Energy ::           32.280974644483
                       Total Pseudopotential Energy ::          -85.042885173964
                       Local Pseudopotential Energy ::          -66.341694915099
                    Nonlocal Pseudopotential Energy ::          -18.701190258865
                                        Confinement ::            1.015111208892

 Orbital energies  State     L     Occupation   Energy[a.u.]          Energy[eV]

                       1     0          1.000      -0.213792           -5.817572

                       1     2         10.000      -0.093371           -2.540765


 Total Electron Density at R=0:                                         0.000035

 Guess for atomic kind: S

 Electronic structure
    Total number of core electrons                                         10.00
    Total number of valence electrons                                       6.00
    Total number of electrons                                              16.00
    Multiplicity                                                   not specified
    S   [  2.00  2.00] 2.00
    P   [  6.00] 4.00


 *******************************************************************************
                  Iteration          Convergence                     Energy [au]
 *******************************************************************************
                          1        0.660537E-01                  -9.999037742061
                          2        0.355079E-01                  -9.999866133925
                          3        0.643643E-04                 -10.000216348790
                          4        0.796885E-07                 -10.000216349869

 Energy components [Hartree]           Total Energy ::          -10.000216349869
                                        Band Energy ::           -2.121494693893
                                     Kinetic Energy ::            3.789396533726
                                   Potential Energy ::          -13.789612883596
                                      Virial (-V/T) ::            3.638999709021
                                        Core Energy ::          -16.443520246889
                                          XC Energy ::           -2.069152856162
                                     Coulomb Energy ::            8.512456753182
                       Total Pseudopotential Energy ::          -20.288997453216
                       Local Pseudopotential Energy ::          -22.511640900540
                    Nonlocal Pseudopotential Energy ::            2.222643447324
                                        Confinement ::            0.560806726004

 Orbital energies  State     L     Occupation   Energy[a.u.]          Energy[eV]

                       1     0          2.000      -0.602923          -16.406376

                       1     1          4.000      -0.228912           -6.229013


 Total Electron Density at R=0:                                         0.000007

 Guess for atomic kind: C

 Electronic structure
    Total number of core electrons                                          2.00
    Total number of valence electrons                                       4.00
    Total number of electrons                                               6.00
    Multiplicity                                                   not specified
    S   [  2.00] 2.00
    P      2.00


 *******************************************************************************
                  Iteration          Convergence                     Energy [au]
 *******************************************************************************
                          1        0.186766E-01                  -5.268668754005
                          2        0.653829E-02                  -5.268804464977
                          3        0.876072E-04                  -5.268823127995
                          4        0.591072E-08                  -5.268823131348

 Energy components [Hartree]           Total Energy ::           -5.268823131348
                                        Band Energy ::           -1.059831606115
                                     Kinetic Energy ::            3.570408314829
                                   Potential Energy ::           -8.839231446178
                                      Virial (-V/T) ::            2.475692040449
                                        Core Energy ::           -8.468185581767
                                          XC Energy ::           -1.456932885419
                                     Coulomb Energy ::            4.656295335838
                       Total Pseudopotential Energy ::          -12.068029384961
                       Local Pseudopotential Energy ::          -12.916317339773
                    Nonlocal Pseudopotential Energy ::            0.848287954812
                                        Confinement ::            0.294354883653

 Orbital energies  State     L     Occupation   Energy[a.u.]          Energy[eV]

                       1     0          2.000      -0.408420          -11.113669

                       1     1          2.000      -0.121496           -3.306073


 Total Electron Density at R=0:                                         0.001169

 Guess for atomic kind: H

 Electronic structure
    Total number of core electrons                                          0.00
    Total number of valence electrons                                       1.00
    Total number of electrons                                               1.00
    Multiplicity                                                   not specified
    S      1.00


 *******************************************************************************
                  Iteration          Convergence                     Energy [au]
 *******************************************************************************
                          1        0.250941E-02                  -0.375252439250
                          2        0.570686E-04                  -0.375254289096
                          3        0.832213E-09                  -0.375254290053

 Energy components [Hartree]           Total Energy ::           -0.375254290053
                                        Band Energy ::           -0.076313317586
                                     Kinetic Energy ::            0.771359175731
                                   Potential Energy ::           -1.146613465784
                                      Virial (-V/T) ::            1.486484509239
                                        Core Energy ::           -0.456086259369
                                          XC Energy ::           -0.314218638424
                                     Coulomb Energy ::            0.395050607740
                       Total Pseudopotential Energy ::           -1.238480442282
                       Local Pseudopotential Energy ::           -1.238480442282
                    Nonlocal Pseudopotential Energy ::            0.000000000000
                                        Confinement ::            0.110350071812

 Orbital energies  State     L     Occupation   Energy[a.u.]          Energy[eV]

                       1     0          1.000      -0.076313           -2.076591


 Total Electron Density at R=0:                                         0.425028
 Re-scaling the density matrix to get the right number of electrons
                  # Electrons              Trace(P)               Scaling factor
                         1184              1184.000                        1.000


 SCF WAVEFUNCTION OPTIMIZATION

  Step     Update method      Time    Convergence         Total energy    Change
  ------------------------------------------------------------------------------
 SMEAGOL DEBUG| Number of electrons in the unit cell =      1183.9999999741
     1 NoMix/SMGL  0.30E+00   18.1     1.96677224     -3519.3141113901 -3.52E+03
 SMEAGOL DEBUG| Number of electrons in the unit cell =      1181.3400471522
     2 Broy./SMGL  0.30E+00    2.1     0.41846867     -3597.4223338634 -7.81E+01
 SMEAGOL DEBUG| Number of electrons in the unit cell =      1185.8304674943
     3 Broy./SMGL  0.30E+00    1.8     0.28744783     -3528.1916008416  6.92E+01
 SMEAGOL DEBUG| Number of electrons in the unit cell =      1184.9590608992
     4 Broy./SMGL  0.30E+00    1.8     0.23842713     -3556.5469452094 -2.84E+01
 SMEAGOL DEBUG| Number of electrons in the unit cell =      1184.2845767113
     5 Broy./SMGL  0.30E+00    1.8     0.22874135     -3557.3686908553 -8.22E-01
 SMEAGOL DEBUG| Number of electrons in the unit cell =      1184.0081335169
     6 Broy./SMGL  0.30E+00    1.8     0.17046030     -3538.4147673232  1.90E+01
 SMEAGOL DEBUG| Number of electrons in the unit cell =      1184.2447225971
     7 Broy./SMGL  0.30E+00    1.8     0.15630040     -3520.9015012020  1.75E+01
 SMEAGOL DEBUG| Number of electrons in the unit cell =      1184.1062670978
     8 Broy./SMGL  0.30E+00    1.8     0.05862358     -3523.6674281729 -2.77E+00
 SMEAGOL DEBUG| Number of electrons in the unit cell =      1183.9345972198
     9 Broy./SMGL  0.30E+00    1.8     0.02764834     -3516.9514645881  6.72E+00
 SMEAGOL DEBUG| Number of electrons in the unit cell =      1183.8972960086
    10 Broy./SMGL  0.30E+00    1.8     0.01591581     -3518.4461586326 -1.49E+00
 SMEAGOL DEBUG| Number of electrons in the unit cell =      1183.9319473897
    11 Broy./SMGL  0.30E+00    1.8     0.04050931     -3517.1754837424  1.27E+00
 SMEAGOL DEBUG| Number of electrons in the unit cell =      1183.9153586832
    12 Broy./SMGL  0.30E+00    1.8     0.03031905     -3519.6829171700 -2.51E+00
 SMEAGOL DEBUG| Number of electrons in the unit cell =      1183.9538564456
    13 Broy./SMGL  0.30E+00    1.8     0.00355187     -3517.8676227489  1.82E+00
 SMEAGOL DEBUG| Number of electrons in the unit cell =      1183.9944110872
    14 Broy./SMGL  0.30E+00    1.8     0.00735098     -3517.7325864390  1.35E-01
 SMEAGOL DEBUG| Number of electrons in the unit cell =      1184.0110842587
    15 Broy./SMGL  0.30E+00    1.8     0.00412634     -3518.1118516468 -3.79E-01
 SMEAGOL DEBUG| Number of electrons in the unit cell =      1184.0150040338
    16 Broy./SMGL  0.30E+00    1.8     0.00069016     -3517.8993494097  2.13E-01
 SMEAGOL DEBUG| Number of electrons in the unit cell =      1184.0219087665
    17 Broy./SMGL  0.30E+00    1.8     0.00122422     -3517.9143311874 -1.50E-02
 SMEAGOL DEBUG| Number of electrons in the unit cell =      1184.0245160147
    18 Broy./SMGL  0.30E+00    1.8     0.00043992     -3517.9757464724 -6.14E-02
 SMEAGOL DEBUG| Number of electrons in the unit cell =      1184.0220094357
    19 Broy./SMGL  0.30E+00    1.8     0.00044470     -3518.0027868458 -2.70E-02
 SMEAGOL DEBUG| Number of electrons in the unit cell =      1184.0222659263
    20 Broy./SMGL  0.30E+00    1.8     0.00021281     -3517.9657313070  3.71E-02
 SMEAGOL DEBUG| Number of electrons in the unit cell =      1184.0204303139
    21 Broy./SMGL  0.30E+00    1.8     0.00013827     -3517.9803612985 -1.46E-02
 SMEAGOL DEBUG| Number of electrons in the unit cell =      1184.0199646728
    22 Broy./SMGL  0.30E+00    1.8     0.00003108     -3517.9743617927  6.00E-03
 SMEAGOL DEBUG| Number of electrons in the unit cell =      1184.0196912194
    23 Broy./SMGL  0.30E+00    1.8     0.00005269     -3517.9739401524  4.22E-04
 SMEAGOL DEBUG| Number of electrons in the unit cell =      1184.0197311049
    24 Broy./SMGL  0.30E+00    1.8     0.00003028     -3517.9705573836  3.38E-03
 SMEAGOL DEBUG| Number of electrons in the unit cell =      1184.0194764264
    25 Broy./SMGL  0.30E+00    1.8     0.00001200     -3517.9726064420 -2.05E-03
 SMEAGOL DEBUG| Number of electrons in the unit cell =      1184.0194849411
    26 Broy./SMGL  0.30E+00    1.8     0.00001032     -3517.9731414916 -5.35E-04
 SMEAGOL DEBUG| Number of electrons in the unit cell =      1184.0194677235
    27 Broy./SMGL  0.30E+00    1.8     0.00000917     -3517.9727936204  3.48E-04
 SMEAGOL DEBUG| Number of electrons in the unit cell =      1184.0194641006
    28 Broy./SMGL  0.30E+00    1.8     0.00000909     -3517.9725684580  2.25E-04
 SMEAGOL DEBUG| Number of electrons in the unit cell =      1184.0194944056
    29 Broy./SMGL  0.30E+00    1.8     0.00000691     -3517.9728388935 -2.70E-04
 SMEAGOL DEBUG| Number of electrons in the unit cell =      1184.0195112490
    30 Broy./SMGL  0.30E+00    1.8     0.00000201     -3517.9724329200  4.06E-04
 SMEAGOL DEBUG| Number of electrons in the unit cell =      1184.0195225237
    31 Broy./SMGL  0.30E+00    1.8     0.00000200     -3517.9724627738 -2.99E-05
 SMEAGOL DEBUG| Number of electrons in the unit cell =      1184.0195198781
    32 Broy./SMGL  0.30E+00    1.8     0.00000443     -3517.9726090198 -1.46E-04
 SMEAGOL DEBUG| Number of electrons in the unit cell =      1184.0195158495
    33 Broy./SMGL  0.30E+00    1.8     0.00000256     -3517.9729122494 -3.03E-04
 SMEAGOL DEBUG| Number of electrons in the unit cell =      1184.0195107174
    34 Broy./SMGL  0.30E+00    1.8     0.00000277     -3517.9727480993  1.64E-04
 SMEAGOL DEBUG| Number of electrons in the unit cell =      1184.0194953258
    35 Broy./SMGL  0.30E+00    1.8     0.00000178     -3517.9728832420 -1.35E-04
 SMEAGOL DEBUG| Number of electrons in the unit cell =      1184.0194834202
    36 Broy./SMGL  0.30E+00    1.8     0.00000069     -3517.9727919193  9.13E-05
 SMEAGOL DEBUG| Number of electrons in the unit cell =      1184.0194554202
    37 Broy./SMGL  0.30E+00    1.8     0.00000171     -3517.9727428247  4.91E-05
 SMEAGOL DEBUG| Number of electrons in the unit cell =      1184.0194596108
    38 Broy./SMGL  0.30E+00    1.8     0.00000156     -3517.9726303053  1.13E-04
 SMEAGOL DEBUG| Number of electrons in the unit cell =      1184.0194503609
    39 Broy./SMGL  0.30E+00    1.8     0.00000069     -3517.9727483026 -1.18E-04
 SMEAGOL DEBUG| Number of electrons in the unit cell =      1184.0194520750
    40 Broy./SMGL  0.30E+00    1.8     0.00000016     -3517.9726945139  5.38E-05
 SMEAGOL DEBUG| Number of electrons in the unit cell =      1184.0194525018
    41 Broy./SMGL  0.30E+00    1.8     0.00000016     -3517.9727007253 -6.21E-06
 SMEAGOL DEBUG| Number of electrons in the unit cell =      1184.0194518295
    42 Broy./SMGL  0.30E+00    1.8     0.00000005     -3517.9727074486 -6.72E-06

  *** SCF run converged in    42 steps ***


  Electronic density on regular grids:      -1184.0194518295       -0.0194518295
  Core density on regular grids:             1183.9999998087       -0.0000001913
  Total charge density on r-space grids:       -0.0194520208
  Total charge density g-space grids:          -0.0194520208

  Overlap energy of the core charge distribution:               0.00001343631297
  Self energy of the core charge distribution:              -6148.38221378166963
  Core Hamiltonian energy:                                   1941.50216084883141
  Hartree energy:                                            1244.26764336915926
  Exchange-correlation energy:                               -555.36031132120604
  Electronic entropic energy:                                   0.00000000000000
  Fermi energy:                                                 0.00000000000000

  Total energy:                                             -3517.97270744857224

 The electron density is written in cube file format to the file:

 0V-ELECTRON_DENSITY-1_0.cube

 !-----------------------------------------------------------------------------!
                     Mulliken Population Analysis

 #  Atom  Element  Kind  Atomic population                           Net charge
       1     Au       1         10.999993                              0.000007
       2     Au       1         10.999994                              0.000006
       3     Au       1         10.999994                              0.000006
       4     Au       1         10.999994                              0.000006
       5     Au       1         10.999994                              0.000006
       6     Au       1         10.999995                              0.000005
       7     Au       1         10.999994                              0.000006
       8     Au       1         10.999994                              0.000006
       9     Au       1         10.999819                              0.000181
      10     Au       1         10.999827                              0.000173
      11     Au       1         10.999878                              0.000122
      12     Au       1         10.999878                              0.000122
      13     Au       1         10.999957                              0.000043
      14     Au       1         10.999825                              0.000175
      15     Au       1         10.999878                              0.000122
      16     Au       1         10.999878                              0.000122
      17     Au       1         10.997004                              0.002996
      18     Au       1         10.996992                              0.003008
      19     Au       1         10.996615                              0.003385
      20     Au       1         10.997179                              0.002821
      21     Au       1         10.996657                              0.003343
      22     Au       1         10.996645                              0.003355
      23     Au       1         10.996613                              0.003387
      24     Au       1         10.997175                              0.002825
      25     Au       1         10.994885                              0.005115
      26     Au       1         11.003965                             -0.003965
      27     Au       1         10.995058                              0.004942
      28     Au       1         10.995089                              0.004911
      29     Au       1         11.005780                             -0.005780
[...]
     16       Au     1      11.000         11.000                        -0.000
     17       Au     1      11.000         11.000                         0.000
     18       Au     1      11.000         11.000                         0.000
     19       Au     1      11.000         11.000                         0.000
     20       Au     1      11.000         11.000                         0.000
     21       Au     1      11.000         11.000                         0.000
     22       Au     1      11.000         11.000                         0.000
     23       Au     1      11.000         11.000                         0.000
     24       Au     1      11.000         11.000                         0.000
     25       Au     1      11.000         11.002                        -0.002
     26       Au     1      11.000         11.004                        -0.004
     27       Au     1      11.000         11.002                        -0.002
     28       Au     1      11.000         11.002                        -0.002
     29       Au     1      11.000         11.003                        -0.003
     30       Au     1      11.000         11.001                        -0.001
     31       Au     1      11.000         11.002                        -0.002
     32       Au     1      11.000         11.002                        -0.002
     33       Au     1      11.000         11.001                        -0.001
     34       Au     1      11.000         11.001                        -0.001
     35       Au     1      11.000         10.999                         0.001
     36       Au     1      11.000         11.001                        -0.001
     37       Au     1      11.000         11.000                         0.000
     38       Au     1      11.000         11.000                         0.000
     39       Au     1      11.000         10.999                         0.001
     40       Au     1      11.000         11.001                        -0.001
     41       Au     1      11.000         10.978                         0.022
     42       Au     1      11.000         10.985                         0.015
     43       Au     1      11.000         10.991                         0.009
     44       Au     1      11.000         10.991                         0.009
     45       Au     1      11.000         10.983                         0.017
     46       Au     1      11.000         10.977                         0.023
     47       Au     1      11.000         10.991                         0.009
     48       Au     1      11.000         10.991                         0.009
     49       Au     1      11.000         11.024                        -0.024
     50       Au     1      11.000         11.025                        -0.025
     51       Au     1      11.000         10.989                         0.011
     52       Au     1      11.000         11.021                        -0.021
     53       Au     1      11.000         10.990                         0.010
     54       Au     1      11.000         10.990                         0.010
     55       Au     1      11.000         10.989                         0.011
     56       Au     1      11.000         11.021                        -0.021
     57       S      2       6.000          6.037                        -0.037
     58       C      3       4.000          4.017                        -0.017
     59       H      4       1.000          0.953                         0.047
     60       H      4       1.000          0.952                         0.048
     61       C      3       4.000          4.048                        -0.048
     62       C      3       4.000          4.049                        -0.049
     63       C      3       4.000          4.049                        -0.049
     64       C      3       4.000          4.048                        -0.048
     65       H      4       1.000          0.952                         0.048
     66       H      4       1.000          0.953                         0.047
     67       C      3       4.000          4.017                        -0.017
     68       S      2       6.000          6.038                        -0.038
     69       Au     1      11.000         11.023                        -0.023
     70       Au     1      11.000         11.023                        -0.023
     71       Au     1      11.000         10.988                         0.012
     72       Au     1      11.000         11.020                        -0.020
     73       Au     1      11.000         10.989                         0.011
     74       Au     1      11.000         10.989                         0.011
     75       Au     1      11.000         10.988                         0.012
     76       Au     1      11.000         11.020                        -0.020
     77       Au     1      11.000         10.977                         0.023
     78       Au     1      11.000         10.984                         0.016
     79       Au     1      11.000         10.990                         0.010
     80       Au     1      11.000         10.990                         0.010
     81       Au     1      11.000         10.983                         0.017
     82       Au     1      11.000         10.976                         0.024
     83       Au     1      11.000         10.990                         0.010
     84       Au     1      11.000         10.990                         0.010
     85       Au     1      11.000         11.002                        -0.002
     86       Au     1      11.000         11.002                        -0.002
     87       Au     1      11.000         11.003                        -0.003
     88       Au     1      11.000         11.002                        -0.002
     89       Au     1      11.000         11.004                        -0.004
     90       Au     1      11.000         11.004                        -0.004
     91       Au     1      11.000         11.003                        -0.003
     92       Au     1      11.000         11.002                        -0.002
     93       Au     1      11.000         11.001                        -0.001
     94       Au     1      11.000         11.002                        -0.002
     95       Au     1      11.000         11.001                        -0.001
     96       Au     1      11.000         11.001                        -0.001
     97       Au     1      11.000         11.002                        -0.002
     98       Au     1      11.000         11.001                        -0.001
     99       Au     1      11.000         11.001                        -0.001
    100       Au     1      11.000         11.001                        -0.001
    101       Au     1      11.000         11.000                        -0.000
    102       Au     1      11.000         11.000                        -0.000
    103       Au     1      11.000         11.000                        -0.000
    104       Au     1      11.000         11.000                        -0.000
    105       Au     1      11.000         11.000                        -0.000
    106       Au     1      11.000         11.000                        -0.000
    107       Au     1      11.000         11.000                        -0.000
    108       Au     1      11.000         11.000                        -0.000
    109       Au     1      11.000         11.000                         0.000
    110       Au     1      11.000         11.000                         0.000
    111       Au     1      11.000         11.000                         0.000
    112       Au     1      11.000         11.000                        -0.000
    113       Au     1      11.000         11.000                        -0.000
    114       Au     1      11.000         11.000                        -0.000
    115       Au     1      11.000         11.000                         0.000
    116       Au     1      11.000         11.000                        -0.000

  Total Charge                                                           -0.019
 !-----------------------------------------------------------------------------!
 Calculating transmission coefficient

 ENERGY| Total FORCE_EVAL ( QS ) energy [a.u.]:            -3517.972707448572237

 -------------------------------------------------------------------------------
 -                                                                             -
 -                                DBCSR STATISTICS                             -
 -                                                                             -
 -------------------------------------------------------------------------------
 COUNTER                                    TOTAL       BLAS       SMM       ACC
 flops inhomo. stacks                           0       0.0%      0.0%      0.0%
 flops total                         0.000000E+00       0.0%      0.0%      0.0%
 flops max/rank                      0.000000E+00       0.0%      0.0%      0.0%
 matmuls inhomo. stacks                         0       0.0%      0.0%      0.0%
 matmuls total                                  0       0.0%      0.0%      0.0%
 number of processed stacks                     0       0.0%      0.0%      0.0%
 average stack size                                     0.0       0.0       0.0
 marketing flops                     0.000000E+00
 -------------------------------------------------------------------------------
 -                                                                             -
 -                      DBCSR MESSAGE PASSING PERFORMANCE                      -
 -                                                                             -
 -------------------------------------------------------------------------------
 ROUTINE             CALLS      AVE VOLUME [Bytes]
 MP_Bcast                1                     12.
 MP_Allreduce         4304                      8.
 MP_Alltoall          1836                  63961.
 -------------------------------------------------------------------------------

 -------------------------------------------------------------------------------
 -                                                                             -
 -                                DBM STATISTICS                               -
 -                                                                             -
 -------------------------------------------------------------------------------
    M  x    N  x    K                                          COUNT     PERCENT
 -------------------------------------------------------------------------------

 -------------------------------------------------------------------------------
 -                                                                             -
 -                                GRID STATISTICS                              -
 -                                                                             -
 -------------------------------------------------------------------------------
 LP    KERNEL             BACKEND                              COUNT     PERCENT
 4     collocate ortho    REF                                4333841      47.78%
 4     integrate ortho    REF                                4233054      46.67%
 3     collocate ortho    REF                                 173978       1.92%
 3     integrate ortho    REF                                 169932       1.87%
 0     collocate general  REF                                  66816       0.74%
 0     integrate general  REF                                  59392       0.65%
 2     collocate ortho    REF                                  17114       0.19%
 2     integrate ortho    REF                                  16716       0.18%
 -------------------------------------------------------------------------------

 MEMORY| Estimated peak process memory [MiB]                                 501

 -------------------------------------------------------------------------------
 ----                             MULTIGRID INFO                            ----
 -------------------------------------------------------------------------------
 count for grid        1:         455058          cutoff [a.u.]          200.00
 count for grid        2:         626225          cutoff [a.u.]           66.67
 count for grid        3:         340559          cutoff [a.u.]           22.22
 count for grid        4:         142589          cutoff [a.u.]            7.41
 total gridlevel count  :        1564431

 -------------------------------------------------------------------------------
 -                                                                             -
 -                         MESSAGE PASSING PERFORMANCE                         -
 -                                                                             -
 -------------------------------------------------------------------------------

 ROUTINE             CALLS      AVE VOLUME [Bytes]
 MP_Group                5
 MP_Bcast             2896                 225808.
 MP_Allreduce         3139                    353.
 MP_Sync                 4
 MP_Alltoall           824                1573533.
 MP_ISendRecv        10710                  16880.
 MP_Wait             25443
 MP_ISend            17350                  37392.
 MP_IRecv            18362                  35865.
 MP_Recv              5049                 271360.
 MP_Write_All            2                1094940.
 -------------------------------------------------------------------------------


 -------------------------------------------------------------------------------
 -                                                                             -
 -                           R E F E R E N C E S                               -
 -                                                                             -
 -------------------------------------------------------------------------------
 
 CP2K version 2022.1 (Development Version), the CP2K developers group (2022).
 CP2K is freely available from https://www.cp2k.org/ .

 Kuehne,Thomas D.; Iannuzzi,Marcella; Del Ben,Mauro;
 Rybkin,Vladimir V.; Seewald,Patrick; Stein,Frederick; Laino,Teodoro;
 Khaliullin,Rustam Z.; Schuett,Ole; Schiffmann,Florian; Golze,Dorothea;
 Wilhelm,Jan; Chulkov,Sergey; Bani-Hashemian,Mohammad Hossein;
 Weber,Valery; Borstnik,Urban; Taillefumier,Mathieu;
 Jakobovits,Alice Shoshana; Lazzaro,Alfio; Pabst,Hans; Mueller,Tiziano;
 Schade,Robert; Guidon,Manuel; Andermatt,Samuel; Holmberg,Nico;
 Schenter,Gregory K.; Hehn,Anna; Bussy,Augustin; Belleflamme,Fabian;
 Tabacchi,Gloria; Gloess,Andreas; Lass,Michael; Bethune,Iain;
 Mundy,Christopher J.; Plessl,Christian; Watkins,Matt;
 VandeVondele,Joost; Krack,Matthias; Hutter,Juerg. 
 The Journal of Chemical Physics, 152 (19), (2020). 
 CP2K: An electronic structure and molecular dynamics software package -
 Quickstep: Efficient and accurate electronic structure calculations.
 https://doi.org/10.1063/5.0007045

 Schuett, Ole; Messmer, Peter; Hutter, Juerg; VandeVondele, Joost. 
 Electronic Structure Calculations on Graphics Processing Units, John
 Wiley & Sons, Ltd, 173-190 (2016). 
 GPU-Accelerated Sparse Matrix-Matrix Multiplication for
 Linear Scaling Density Functional Theory.
 https://doi.org/10.1002/9781118670712.ch8

 Borstnik, U; VandeVondele, J; Weber, V; Hutter, J. 
 PARALLEL COMPUTING, 40 (5-6), 47-58 (2014). 
 Sparse matrix multiplication: The distributed block-compressed sparse
 row library.
 https://doi.org/10.1016/j.parco.2014.03.012

 Hutter, J; Iannuzzi, M; Schiffmann, F; VandeVondele, J. 
 WIREs Comput Mol Sci., 4 (1), 15-25 (2014). 
 CP2K: atomistic simulations of condensed matter systems.
 https://doi.org/10.1002/wcms.1159

 Marek, A; Blum, V; Johanni, R; Havu, V; Lang, B; Auckenthaler, T;
 Heinecke, A; Bungartz, H; Lederer, H. 
 Journal of Physics: Condensed Matter, 26 (21), (2014). 
 The ELPA library: scalable parallel eigenvalue solutions for
 electronic structure
 theory and computational science.
 https://doi.org/10.1088/0953-8984/26/21/213201

 VandeVondele, J; Hutter, J. 
 JOURNAL OF CHEMICAL PHYSICS, 127 (11), 114105 (2007). 
 Gaussian basis sets for accurate calculations on molecular systems in
 gas and condensed phases.
 https://doi.org/10.1063/1.2770708

 Krack, M. 
 THEORETICAL CHEMISTRY ACCOUNTS, 114 (1-3), 145-152 (2005). 
 Pseudopotentials for H to Kr optimized for gradient-corrected
 exchange-correlation functionals.
 https://doi.org/10.1007/s00214-005-0655-y

 VandeVondele, J; Krack, M; Mohamed, F; Parrinello, M; Chassaing, T;
 Hutter, J. COMPUTER PHYSICS COMMUNICATIONS, 167 (2), 103-128 (2005). 
 QUICKSTEP: Fast and accurate density functional calculations using a
 mixed Gaussian and plane waves approach.
 https://doi.org/10.1016/j.cpc.2004.12.014

 Frigo, M; Johnson, SG. 
 PROCEEDINGS OF THE IEEE, 93 (2), 216-231 (2005). 
 The design and implementation of FFTW3.
 https://doi.org/10.1109/JPROC.2004.840301

 Hartwigsen, C; Goedecker, S; Hutter, J. 
 PHYSICAL REVIEW B, 58 (7), 3641-3662 (1998). 
 Relativistic separable dual-space Gaussian pseudopotentials from H to Rn.
 https://doi.org/10.1103/PhysRevB.58.3641

 Lippert, G; Hutter, J; Parrinello, M. 
 MOLECULAR PHYSICS, 92 (3), 477-487 (1997). 
 A hybrid Gaussian and plane wave density functional scheme.
 https://doi.org/10.1080/002689797170220

 Goedecker, S; Teter, M; Hutter, J. 
 PHYSICAL REVIEW B, 54 (3), 1703-1710 (1996). 
 Separable dual-space Gaussian pseudopotentials.
 https://doi.org/10.1103/PhysRevB.54.1703


 -------------------------------------------------------------------------------
 -                                                                             -
 -                                T I M I N G                                  -
 -                                                                             -
 -------------------------------------------------------------------------------
 SUBROUTINE                       CALLS  ASD         SELF TIME        TOTAL TIME
                                MAXIMUM       AVERAGE  MAXIMUM  AVERAGE  MAXIMUM
 CP2K                                 1  1.0    0.024    0.038  121.512  121.514
 qs_energies                          1  2.0    0.002    0.003  121.284  121.286
 run_smeagol_emtrans                 43  5.9  107.346  108.693  110.573  110.594
 scf_env_do_scf                       1  3.0    0.000    0.001   95.233   95.244
 scf_env_do_scf_inner_loop           42  4.0    0.007    0.009   95.233   95.244
 qs_scf_new_mos_kp                   42  5.0    0.001    0.001   85.812   85.834
 qs_ks_update_qs_env                 42  5.0    0.001    0.001    3.246    3.251
 rebuild_ks_matrix                   42  6.0    0.001    0.001    3.094    3.099
 qs_ks_build_kohn_sham_matrix        42  7.0    0.050    0.216    3.093    3.098
 qs_rho_update_rho_low               43  5.0    0.000    0.001    3.000    3.011
 calculate_rho_elec                  43  6.0    0.018    0.023    3.000    3.010
 -------------------------------------------------------------------------------

 The number of warnings for this run is : 1
 
 -------------------------------------------------------------------------------
  **** **** ******  **  PROGRAM ENDED AT                 2023-11-28 13:30:15.741
 ***** ** ***  *** **   PROGRAM RAN ON                                 nid002685
 **    ****   ******    PROGRAM RAN BY                                    cahart
 ***** **    ** ** **   PROGRAM PROCESS ID                                227223
  **** **  *******  **  PROGRAM STOPPED IN /mnt/lustre/a2fs-work2/work/e05/e05/c
                                           ahart/postdoc/transport/cp2k-smeagol-
                                           examples/au-bdt/cp2k-smeagol/transmis
                                           sion/kpoints-1-1-20
