 DBCSR| CPU Multiplication driver                                           XSMM
 DBCSR| Multrec recursion limit                                              512
 DBCSR| Multiplication stack size                                           1000
 DBCSR| Maximum elements for images                                    UNLIMITED
 DBCSR| Multiplicative factor virtual images                                   1
 DBCSR| Use multiplication densification                                       T
 DBCSR| Multiplication size stacks                                             3
 DBCSR| Use memory pool for CPU allocation                                     F
 DBCSR| Number of 3D layers                                               SINGLE
 DBCSR| Use MPI memory allocation                                              F
 DBCSR| Use RMA algorithm                                                      F
 DBCSR| Use Communication thread                                               T
 DBCSR| Communication thread load                                             87
 DBCSR| MPI: My node id                                                        0
 DBCSR| MPI: Number of nodes                                                 512
 DBCSR| OMP: Current number of threads                                         1
 DBCSR| OMP: Max number of threads                                             1
 DBCSR| Split modifier for TAS multiplication algorithm                  1.0E+00


  **** **** ******  **  PROGRAM STARTED AT               2023-04-03 23:11:58.206
 ***** ** ***  *** **   PROGRAM STARTED ON                             nid002861
 **    ****   ******    PROGRAM STARTED BY                                cahart
 ***** **    ** ** **   PROGRAM PROCESS ID                                170626
  **** **  *******  **  PROGRAM STARTED IN /mnt/lustre/a2fs-work2/work/e05/e05/c
                                           ahart/postdoc/transport/AuH2/cp2k-sme
                                           agol/archer_lda/geo_opt/bias/0.9

 CP2K| version string:                 CP2K version 2022.1 (Development Version)
 CP2K| source code revision number:                                  git:17dad85
 CP2K| cp2kflags: omp libint fftw3 libxc elpa parallel mpi3 scalapack xsmm plume
 CP2K|            d2 mkl
 CP2K| is freely available from                            https://www.cp2k.org/
 CP2K| Program compiled at                          Thu 30 Mar 21:01:20 BST 2023
 CP2K| Program compiled on                                                  ln03
 CP2K| Program compiled for                                                local
 CP2K| Data directory path      /work/y07/shared/apps/core/cp2k/cp2k-2022.1/data
 CP2K| Input file name                                                   4_V.inp

 GLOBAL| Force Environment number                                              1
 GLOBAL| Basis set file name                                        BASIS_MOLOPT
 GLOBAL| Potential file name                                      GTH_POTENTIALS
 GLOBAL| MM Potential file name                                     MM_POTENTIAL
 GLOBAL| Coordinate file name                                             em.xyz
 GLOBAL| Method name                                                        CP2K
 GLOBAL| Project name                                                          V
 GLOBAL| Run type                                                        GEO_OPT
 GLOBAL| FFT library                                                       FFTW3
 GLOBAL| Diagonalization library                                            ELPA
 GLOBAL| Minimum number of eigenvectors for ELPA usage                        16
 GLOBAL| Orthonormality check for eigenvectors                          DISABLED
 GLOBAL| Matrix multiplication library                                 ScaLAPACK
 GLOBAL| All-to-all communication in single precision                          F
 GLOBAL| FFTs using library dependent lengths                                  T
 GLOBAL| Grid backend                                                       AUTO
 GLOBAL| Global print level                                               MEDIUM
 GLOBAL| MPI I/O enabled                                                       T
 GLOBAL| Total number of message passing processes                           512
 GLOBAL| Number of threads for this process                                    1
 GLOBAL| This output is from process                                           0
 GLOBAL| Stack size for threads created by OpenMP (OMP_STACKSIZE)        default
 GLOBAL| CPU model name                          AMD EPYC 7742 64-Core Processor
 GLOBAL| CPUID                                                              1002

 MEMORY| system memory details [Kb]
 MEMORY|                        rank 0           min           max       average
 MEMORY| MemTotal            527769216     527769212     527769216     527769213
 MEMORY| MemFree             500972812     500972812     503931976     503121665
 MEMORY| Buffers                 27100         18568         27100         24697
 MEMORY| Cached                3128152        551088       3128156       1212002
 MEMORY| Slab                  1889636       1554708       1889636       1647380
 MEMORY| SReclaimable           116452         99120        116452        104042
 MEMORY| MemLikelyFree       504244516     504244516     504601608     504462407


 *** Fundamental physical constants (SI units) ***

 *** Literature: B. J. Mohr and B. N. Taylor,
 ***             CODATA recommended values of the fundamental physical
 ***             constants: 2006, Web Version 5.1
 ***             http://physics.nist.gov/constants

 Speed of light in vacuum [m/s]                             2.99792458000000E+08
 Magnetic constant or permeability of vacuum [N/A**2]       1.25663706143592E-06
 Electric constant or permittivity of vacuum [F/m]          8.85418781762039E-12
 Planck constant (h) [J*s]                                  6.62606896000000E-34
 Planck constant (h-bar) [J*s]                              1.05457162825177E-34
 Elementary charge [C]                                      1.60217648700000E-19
 Electron mass [kg]                                         9.10938215000000E-31
 Electron g factor [ ]                                     -2.00231930436220E+00
 Proton mass [kg]                                           1.67262163700000E-27
 Fine-structure constant                                    7.29735253760000E-03
 Rydberg constant [1/m]                                     1.09737315685270E+07
 Avogadro constant [1/mol]                                  6.02214179000000E+23
 Boltzmann constant [J/K]                                   1.38065040000000E-23
 Atomic mass unit [kg]                                      1.66053878200000E-27
 Bohr radius [m]                                            5.29177208590000E-11

 *** Conversion factors ***

 [u] -> [a.u.]                                              1.82288848426455E+03
 [Angstrom] -> [Bohr] = [a.u.]                              1.88972613288564E+00
 [a.u.] = [Bohr] -> [Angstrom]                              5.29177208590000E-01
 [a.u.] -> [s]                                              2.41888432650478E-17
 [a.u.] -> [fs]                                             2.41888432650478E-02
 [a.u.] -> [J]                                              4.35974393937059E-18
 [a.u.] -> [N]                                              8.23872205491840E-08
 [a.u.] -> [K]                                              3.15774647902944E+05
 [a.u.] -> [kJ/mol]                                         2.62549961709828E+03
 [a.u.] -> [kcal/mol]                                       6.27509468713739E+02
 [a.u.] -> [Pa]                                             2.94210107994716E+13
 [a.u.] -> [bar]                                            2.94210107994716E+08
 [a.u.] -> [atm]                                            2.90362800883016E+08
 [a.u.] -> [eV]                                             2.72113838565563E+01
 [a.u.] -> [Hz]                                             6.57968392072181E+15
 [a.u.] -> [1/cm] (wave numbers)                            2.19474631370540E+05
 [a.u./Bohr**2] -> [1/cm]                                   5.14048714338585E+03
 

 CELL_TOP| Volume [angstrom^3]:                                      3044.391638
 CELL_TOP| Vector a [angstrom     8.867     0.000     0.000   |a| =     8.867120
 CELL_TOP| Vector b [angstrom     0.000     8.867     0.000   |b| =     8.867120
 CELL_TOP| Vector c [angstrom     0.000     0.000    38.720   |c| =    38.720000
 CELL_TOP| Angle (b,c), alpha [degree]:                                90.000000
 CELL_TOP| Angle (a,c), beta  [degree]:                                90.000000
 CELL_TOP| Angle (a,b), gamma [degree]:                                90.000000
 CELL_TOP| Numerically orthorhombic:                                         YES
 CELL_TOP| Periodicity                                                       XYZ

 GENERATE|  Preliminary Number of Bonds generated:                             0
 GENERATE|  Achieved consistency in connectivity generation.

 CELL| Volume [angstrom^3]:                                          3044.391638
 CELL| Vector a [angstrom]:       8.867     0.000     0.000   |a| =     8.867120
 CELL| Vector b [angstrom]:       0.000     8.867     0.000   |b| =     8.867120
 CELL| Vector c [angstrom]:       0.000     0.000    38.720   |c| =    38.720000
 CELL| Angle (b,c), alpha [degree]:                                    90.000000
 CELL| Angle (a,c), beta  [degree]:                                    90.000000
 CELL| Angle (a,b), gamma [degree]:                                    90.000000
 CELL| Numerically orthorhombic:                                             YES
 CELL| Periodicity                                                           XYZ

 CELL_REF| Volume [angstrom^3]:                                      3044.391638
 CELL_REF| Vector a [angstrom     8.867     0.000     0.000   |a| =     8.867120
 CELL_REF| Vector b [angstrom     0.000     8.867     0.000   |b| =     8.867120
 CELL_REF| Vector c [angstrom     0.000     0.000    38.720   |c| =    38.720000
 CELL_REF| Angle (b,c), alpha [degree]:                                90.000000
 CELL_REF| Angle (a,c), beta  [degree]:                                90.000000
 CELL_REF| Angle (a,b), gamma [degree]:                                90.000000
 CELL_REF| Numerically orthorhombic:                                         YES
 CELL_REF| Periodicity                                                       XYZ

 *** WARNING in cryssym.F:165 :: Symmetry library SPGLIB not available ***


 *******************************************************************************
                                    Kpoints
 *******************************************************************************
 BRILLOUIN| K-point scheme                                        Monkhorst-Pack
 BRILLOUIN| K-Point grid                                             3    3    1
 BRILLOUIN| Accuracy in Symmetry determination                      0.100000E-07
 BRILLOUIN| K-Point point group symmetrization                               OFF
 BRILLOUIN| Wavefunction type                                            COMPLEX
 BRILLOUIN| Use full k-point grid     
 BRILLOUIN| List of Kpoints [2 Pi/Bohr]                                        9
 BRILLOUIN| Number           Weight            X              Y              Z
 BRILLOUIN|     1           0.11111       -0.33333       -0.33333        0.00000
 BRILLOUIN|     2           0.11111       -0.33333        0.00000        0.00000
 BRILLOUIN|     3           0.11111       -0.33333        0.33333        0.00000
 BRILLOUIN|     4           0.11111        0.00000       -0.33333        0.00000
 BRILLOUIN|     5           0.11111        0.00000        0.00000        0.00000
 BRILLOUIN|     6           0.11111        0.00000        0.33333        0.00000
 BRILLOUIN|     7           0.11111        0.33333       -0.33333        0.00000
 BRILLOUIN|     8           0.11111        0.33333        0.00000        0.00000
 BRILLOUIN|     9           0.11111        0.33333        0.33333        0.00000
 *******************************************************************************

 *******************************************************************************
 *******************************************************************************
 **                                                                           **
 **     #####                         ##              ##                      **
 **    ##   ##            ##          ##              ##                      **
 **   ##     ##                       ##            ######                    **
 **   ##     ##  ##   ##  ##   #####  ##  ##   ####   ##    #####    #####    **
 **   ##     ##  ##   ##  ##  ##      ## ##   ##      ##   ##   ##  ##   ##   **
 **   ##  ## ##  ##   ##  ##  ##      ####     ###    ##   ######   ######    **
 **    ##  ###   ##   ##  ##  ##      ## ##      ##   ##   ##       ##        **
 **     #######   #####   ##   #####  ##  ##  ####    ##    #####   ##        **
 **           ##                                                    ##        **
 **                                                                           **
 **                                                ... make the atoms dance   **
 **                                                                           **
 **            Copyright (C) by CP2K developers group (2000-2022)             **
 **                      J. Chem. Phys. 152, 194103 (2020)                    **
 **                                                                           **
 *******************************************************************************

 DFT| Spin restricted Kohn-Sham (RKS) calculation                            RKS
 DFT| Multiplicity                                                             2
 DFT| Number of spin states                                                    1
 DFT| Charge                                                                   0
 DFT| Self-interaction correction (SIC)                                       NO
 DFT| Cutoffs: density                                              1.000000E-10
 DFT|          gradient                                             1.000000E-10
 DFT|          tau                                                  1.000000E-10
 DFT|          cutoff_smoothing_range                               0.000000E+00
 DFT| XC density smoothing                                                  NONE
 DFT| XC derivatives                                                          PW

 FUNCTIONAL| PBE:
 FUNCTIONAL| J.P.Perdew, K.Burke, M.Ernzerhof, Phys. Rev. Letter, vol. 77, n 18,
 FUNCTIONAL|  pp. 3865-3868, (1996){spin unpolarized}                           


 QS| Method:                                                                 GPW
 QS| Density plane wave grid type                        NON-SPHERICAL FULLSPACE
 QS| Number of grid levels:                                                    4
 QS| Density cutoff [a.u.]:                                                300.0
 QS| Multi grid cutoff [a.u.]: 1) grid level                               300.0
 QS|                           2) grid level                               100.0
 QS|                           3) grid level                                33.3
 QS|                           4) grid level                                11.1
 QS| Grid level progression factor:                                          3.0
 QS| Relative density cutoff [a.u.]:                                        30.0
 QS| Interaction thresholds: eps_pgf_orb:                                1.0E-05
 QS|                         eps_filter_matrix:                          0.0E+00
 QS|                         eps_core_charge:                            1.0E-12
 QS|                         eps_rho_gspace:                             1.0E-10
 QS|                         eps_rho_rspace:                             1.0E-10
 QS|                         eps_gvg_rspace:                             1.0E-05
 QS|                         eps_ppl:                                    1.0E-02
 QS|                         eps_ppnl:                                   1.0E-07


 ATOMIC KIND INFORMATION

  1. Atomic kind: Au                                    Number of atoms:     111

     Orbital Basis Set                                         SZV-MOLOPT-SR-GTH

       Number of orbital shell sets:                                           1
       Number of orbital shells:                                               3
       Number of primitive Cartesian functions:                                5
       Number of Cartesian basis functions:                                   10
       Number of spherical basis functions:                                    9
       Norm type:                                                              2

       Normalised Cartesian orbitals:

                        Set   Shell   Orbital            Exponent    Coefficient

                          1       1    2s                2.950008       0.074626
                                                         1.563057      -0.007898
                                                         0.666664      -0.297688
                                                         0.251083       0.136809
                                                         0.081714       0.088198

                          1       2    3px               2.950008       0.148824
                                                         1.563057       0.025430
                                                         0.666664      -0.123003
                                                         0.251083       0.033648
                                                         0.081714       0.059008
                          1       2    3py               2.950008       0.148824
                                                         1.563057       0.025430
                                                         0.666664      -0.123003
                                                         0.251083       0.033648
                                                         0.081714       0.059008
                          1       2    3pz               2.950008       0.148824
                                                         1.563057       0.025430
                                                         0.666664      -0.123003
                                                         0.251083       0.033648
                                                         0.081714       0.059008

                          1       3    4dx2              2.950008      -0.139595
                                                         1.563057       1.319655
                                                         0.666664       0.377081
                                                         0.251083       0.046872
                                                         0.081714       0.001393
                          1       3    4dxy              2.950008      -0.241786
                                                         1.563057       2.285709
                                                         0.666664       0.653124
                                                         0.251083       0.081185
                                                         0.081714       0.002412
                          1       3    4dxz              2.950008      -0.241786
                                                         1.563057       2.285709
                                                         0.666664       0.653124
                                                         0.251083       0.081185
                                                         0.081714       0.002412
                          1       3    4dy2              2.950008      -0.139595
                                                         1.563057       1.319655
                                                         0.666664       0.377081
                                                         0.251083       0.046872
                                                         0.081714       0.001393
                          1       3    4dyz              2.950008      -0.241786
                                                         1.563057       2.285709
                                                         0.666664       0.653124
                                                         0.251083       0.081185
                                                         0.081714       0.002412
                          1       3    4dz2              2.950008      -0.139595
                                                         1.563057       1.319655
                                                         0.666664       0.377081
                                                         0.251083       0.046872
                                                         0.081714       0.001393

       Atomic covalent radius [Angstrom]:                                  1.340

       Atomic van der Waals radius [Angstrom]:                             1.660

     GTH Potential information for                                   GTH-PBE-q11

       Description:                       Goedecker-Teter-Hutter pseudopotential
                                           Goedecker et al., PRB 54, 1703 (1996)
                                          Hartwigsen et al., PRB 58, 3641 (1998)
                                                      Krack, TCA 114, 145 (2005)

       Gaussian exponent of the core charge distribution:               1.436369
       Electronic configuration (s p d ...):                           1   0  10

       Parameters of the local part of the GTH pseudopotential:

                          rloc        C1          C2          C3          C4
                        0.590000   10.517179

       Parameters of the non-local part of the GTH pseudopotential:

                   l      r(l)      h(i,j,l)

                   0    0.543847    5.786811   -2.250680
                                   -2.250680    2.905615
                   1    0.609173    4.284049   -4.071285
                                   -4.071285    4.817210
                   2    0.437309   -7.403281    3.010193
                                    3.010193   -3.413238

  2. Atomic kind: H                                     Number of atoms:       2

     Orbital Basis Set                                        DZVP-MOLOPT-SR-GTH

       Number of orbital shell sets:                                           1
       Number of orbital shells:                                               3
       Number of primitive Cartesian functions:                                5
       Number of Cartesian basis functions:                                    5
       Number of spherical basis functions:                                    5
       Norm type:                                                              2

       Normalised Cartesian orbitals:

                        Set   Shell   Orbital            Exponent    Coefficient

                          1       1    2s               10.068468      -0.133023
                                                         2.680223      -0.177618
                                                         0.791502      -0.258419
                                                         0.239116      -0.107525
                                                         0.082193      -0.014019

                          1       2    3s               10.068468       0.344673
                                                         2.680223       1.819821
                                                         0.791502      -0.999069
                                                         0.239116       0.017430
                                                         0.082193       0.082660

                          1       3    3px              10.068468       0.155326
                                                         2.680223       0.367157
                                                         0.791502       0.311480
                                                         0.239116       0.080105
                                                         0.082193       0.033440
                          1       3    3py              10.068468       0.155326
                                                         2.680223       0.367157
                                                         0.791502       0.311480
                                                         0.239116       0.080105
                                                         0.082193       0.033440
                          1       3    3pz              10.068468       0.155326
                                                         2.680223       0.367157
                                                         0.791502       0.311480
                                                         0.239116       0.080105
                                                         0.082193       0.033440

       Atomic covalent radius [Angstrom]:                                  0.320

       Atomic van der Waals radius [Angstrom]:                             1.090

     GTH Potential information for                                    GTH-PBE-q1

       Description:                       Goedecker-Teter-Hutter pseudopotential
                                           Goedecker et al., PRB 54, 1703 (1996)
                                          Hartwigsen et al., PRB 58, 3641 (1998)
                                                      Krack, TCA 114, 145 (2005)

       Gaussian exponent of the core charge distribution:              12.500000
       Electronic configuration (s p d ...):                                   1

       Parameters of the local part of the GTH pseudopotential:

                          rloc        C1          C2          C3          C4
                        0.200000   -4.178900    0.724463


 MOLECULE KIND INFORMATION


 All atoms are their own molecule, skipping detailed information


 TOTAL NUMBERS AND MAXIMUM NUMBERS

  Total number of            - Atomic kinds:                                   2
                             - Atoms:                                        113
                             - Shell sets:                                   113
                             - Shells:                                       339
                             - Primitive Cartesian functions:                565
                             - Cartesian basis functions:                   1120
                             - Spherical basis functions:                   1009

  Maximum angular momentum of- Orbital basis functions:                        2
                             - Local part of the GTH pseudopotential:          2
                             - Non-local part of the GTH pseudopotential:      4


 MODULE QUICKSTEP: ATOMIC COORDINATES IN ANGSTROM

   Atom Kind Element         X             Y             Z       Z(eff)     Mass
      1    1 Au   79      1.787000      1.281000      0.000000  11.0000 196.9666
      2    1 Au   79      0.309000      2.759000      2.090000  11.0000 196.9666
      3    1 Au   79      1.787000      1.281000      4.180000  11.0000 196.9666
      4    1 Au   79      0.309000      2.759000      6.270000  11.0000 196.9666
      5    1 Au   79      4.743000      1.281000      0.000000  11.0000 196.9666
      6    1 Au   79      3.265000      2.759000      2.090000  11.0000 196.9666
      7    1 Au   79      4.743000      1.281000      4.180000  11.0000 196.9666
      8    1 Au   79      3.265000      2.759000      6.270000  11.0000 196.9666
      9    1 Au   79      7.699000      1.281000      0.000000  11.0000 196.9666
     10    1 Au   79      6.221000      2.759000      2.090000  11.0000 196.9666
     11    1 Au   79      7.699000      1.281000      4.180000  11.0000 196.9666
     12    1 Au   79      6.221000      2.759000      6.270000  11.0000 196.9666
     13    1 Au   79      1.787000      4.236000      0.000000  11.0000 196.9666
     14    1 Au   79      0.309000      5.714000      2.090000  11.0000 196.9666
     15    1 Au   79      1.787000      4.236000      4.180000  11.0000 196.9666
     16    1 Au   79      0.309000      5.714000      6.270000  11.0000 196.9666
     17    1 Au   79      4.743000      4.236000      0.000000  11.0000 196.9666
     18    1 Au   79      3.265000      5.714000      2.090000  11.0000 196.9666
     19    1 Au   79      4.743000      4.236000      4.180000  11.0000 196.9666
     20    1 Au   79      3.265000      5.714000      6.270000  11.0000 196.9666
     21    1 Au   79      7.699000      4.236000      0.000000  11.0000 196.9666
     22    1 Au   79      6.221000      5.714000      2.090000  11.0000 196.9666
     23    1 Au   79      7.699000      4.236000      4.180000  11.0000 196.9666
     24    1 Au   79      6.221000      5.714000      6.270000  11.0000 196.9666
     25    1 Au   79      1.787000      7.192000      0.000000  11.0000 196.9666
     26    1 Au   79      0.309000      8.670000      2.090000  11.0000 196.9666
     27    1 Au   79      1.787000      7.192000      4.180000  11.0000 196.9666
     28    1 Au   79      0.309000      8.670000      6.270000  11.0000 196.9666
     29    1 Au   79      4.743000      7.192000      0.000000  11.0000 196.9666
     30    1 Au   79      3.265000      8.670000      2.090000  11.0000 196.9666
     31    1 Au   79      4.743000      7.192000      4.180000  11.0000 196.9666
     32    1 Au   79      3.265000      8.670000      6.270000  11.0000 196.9666
     33    1 Au   79      7.699000      7.192000      0.000000  11.0000 196.9666
     34    1 Au   79      6.221000      8.670000      2.090000  11.0000 196.9666
     35    1 Au   79      7.699000      7.192000      4.180000  11.0000 196.9666
     36    1 Au   79      6.221000      8.670000      6.270000  11.0000 196.9666
     37    1 Au   79      1.787000      1.281000      8.360000  11.0000 196.9666
     38    1 Au   79      1.787000      4.236000      8.360000  11.0000 196.9666
     39    1 Au   79      1.787000      7.192000      8.360000  11.0000 196.9666
     40    1 Au   79      4.743000      1.281000      8.360000  11.0000 196.9666
     41    1 Au   79      4.743000      4.236000      8.360000  11.0000 196.9666
     42    1 Au   79      4.743000      7.192000      8.360000  11.0000 196.9666
     43    1 Au   79      7.699000      1.281000      8.360000  11.0000 196.9666
     44    1 Au   79      7.699000      4.236000      8.360000  11.0000 196.9666
     45    1 Au   79      7.699000      7.192000      8.360000  11.0000 196.9666
     46    1 Au   79      0.309000      2.759000     10.450000  11.0000 196.9666
     47    1 Au   79      0.309000      5.714000     10.450000  11.0000 196.9666
     48    1 Au   79      0.309000      8.670000     10.450000  11.0000 196.9666
     49    1 Au   79      3.265000      2.759000     10.450000  11.0000 196.9666
     50    1 Au   79      3.265000      5.714000     10.450000  11.0000 196.9666
     51    1 Au   79      3.265000      8.670000     10.450000  11.0000 196.9666
     52    1 Au   79      6.221000      2.759000     10.450000  11.0000 196.9666
     53    1 Au   79      6.221000      5.714000     10.450000  11.0000 196.9666
     54    1 Au   79      6.221000      8.670000     10.450000  11.0000 196.9666
     55    1 Au   79      1.767000      4.215000     12.446000  11.0000 196.9666
     56    1 Au   79      1.766000      7.214000     12.446000  11.0000 196.9666
     57    1 Au   79      4.765000      4.213000     12.446000  11.0000 196.9666
     58    1 Au   79      4.767000      7.214000     12.445000  11.0000 196.9666
     59    1 Au   79      3.268000      5.717000     14.396000  11.0000 196.9666
     60    1 Au   79      3.267000      5.744000     17.050000  11.0000 196.9666
     61    2 H     1      3.254000      5.720000     18.927000   1.0000   1.0079
     62    2 H     1      3.260000      5.726000     19.796000   1.0000   1.0079
     63    1 Au   79      3.233000      5.712000     21.672000  11.0000 196.9666
     64    1 Au   79      3.264000      5.714000     24.326000  11.0000 196.9666
     65    1 Au   79      1.765000      4.213000     26.275000  11.0000 196.9666
     66    1 Au   79      1.765000      7.214000     26.274000  11.0000 196.9666
     67    1 Au   79      4.765000      4.214000     26.274000  11.0000 196.9666
     68    1 Au   79      4.765000      7.214000     26.275000  11.0000 196.9666
     69    1 Au   79      0.309000      2.759000     28.270000  11.0000 196.9666
     70    1 Au   79      0.309000      5.714000     28.270000  11.0000 196.9666
     71    1 Au   79      0.309000      8.670000     28.270000  11.0000 196.9666
     72    1 Au   79      3.265000      2.759000     28.270000  11.0000 196.9666
     73    1 Au   79      3.265000      5.714000     28.270000  11.0000 196.9666
     74    1 Au   79      3.265000      8.670000     28.270000  11.0000 196.9666
     75    1 Au   79      6.221000      2.759000     28.270000  11.0000 196.9666
     76    1 Au   79      6.221000      5.714000     28.270000  11.0000 196.9666
     77    1 Au   79      6.221000      8.670000     28.270000  11.0000 196.9666
     78    1 Au   79      1.787000      1.281000     30.360000  11.0000 196.9666
     79    1 Au   79      0.309000      2.759000     32.450000  11.0000 196.9666
     80    1 Au   79      1.787000      1.281000     34.540000  11.0000 196.9666
     81    1 Au   79      0.309000      2.759000     36.630000  11.0000 196.9666
     82    1 Au   79      4.743000      1.281000     30.360000  11.0000 196.9666
     83    1 Au   79      3.265000      2.759000     32.450000  11.0000 196.9666
     84    1 Au   79      4.743000      1.281000     34.540000  11.0000 196.9666
     85    1 Au   79      3.265000      2.759000     36.630000  11.0000 196.9666
     86    1 Au   79      7.699000      1.281000     30.360000  11.0000 196.9666
     87    1 Au   79      6.221000      2.759000     32.450000  11.0000 196.9666
     88    1 Au   79      7.699000      1.281000     34.540000  11.0000 196.9666
     89    1 Au   79      6.221000      2.759000     36.630000  11.0000 196.9666
     90    1 Au   79      1.787000      4.236000     30.360000  11.0000 196.9666
     91    1 Au   79      0.309000      5.714000     32.450000  11.0000 196.9666
     92    1 Au   79      1.787000      4.236000     34.540000  11.0000 196.9666
     93    1 Au   79      0.309000      5.714000     36.630000  11.0000 196.9666
     94    1 Au   79      4.743000      4.236000     30.360000  11.0000 196.9666
     95    1 Au   79      3.265000      5.714000     32.450000  11.0000 196.9666
     96    1 Au   79      4.743000      4.236000     34.540000  11.0000 196.9666
     97    1 Au   79      3.265000      5.714000     36.630000  11.0000 196.9666
     98    1 Au   79      7.699000      4.236000     30.360000  11.0000 196.9666
     99    1 Au   79      6.221000      5.714000     32.450000  11.0000 196.9666
    100    1 Au   79      7.699000      4.236000     34.540000  11.0000 196.9666
    101    1 Au   79      6.221000      5.714000     36.630000  11.0000 196.9666
    102    1 Au   79      1.787000      7.192000     30.360000  11.0000 196.9666
    103    1 Au   79      0.309000      8.670000     32.450000  11.0000 196.9666
    104    1 Au   79      1.787000      7.192000     34.540000  11.0000 196.9666
    105    1 Au   79      0.309000      8.670000     36.630000  11.0000 196.9666
    106    1 Au   79      4.743000      7.192000     30.360000  11.0000 196.9666
    107    1 Au   79      3.265000      8.670000     32.450000  11.0000 196.9666
    108    1 Au   79      4.743000      7.192000     34.540000  11.0000 196.9666
    109    1 Au   79      3.265000      8.670000     36.630000  11.0000 196.9666
    110    1 Au   79      7.699000      7.192000     30.360000  11.0000 196.9666
    111    1 Au   79      6.221000      8.670000     32.450000  11.0000 196.9666
    112    1 Au   79      7.699000      7.192000     34.540000  11.0000 196.9666
    113    1 Au   79      6.221000      8.670000     36.630000  11.0000 196.9666



 SCF PARAMETERS         Density guess:                                   RESTART
                        --------------------------------------------------------
                        max_scf:                                             500
                        max_scf_history:                                       0
                        max_diis:                                              4
                        --------------------------------------------------------
                        eps_scf:                                        1.00E-08
                        eps_scf_history:                                0.00E+00
                        eps_diis:                                       1.00E-01
                        eps_eigval:                                     1.00E-05
                        --------------------------------------------------------
                        level_shift [a.u.]:                             0.000000
                        added MOs                                       100    0
                        --------------------------------------------------------
                        Mixing method:                            BROYDEN_MIXING
                                                charge density mixing in g-space
                        --------------------------------------------------------
                        Smear method:                                FERMI_DIRAC
                        Electronic temperature [K]:                        300.0
                        Electronic temperature [a.u.]:                  9.50E-04
                        Accuracy threshold:                             1.00E-10
                        --------------------------------------------------------
                        No outer SCF

 PW_GRID| Information for grid number                                          1
 PW_GRID| Grid distributed over                                   512 processors
 PW_GRID| Real space group dimensions                                    16   32
 PW_GRID| the grid is blocked:                                               YES
 PW_GRID| Cutoff [a.u.]                                                    300.0
 PW_GRID| spherical cutoff:                                                   NO
 PW_GRID|   Bounds   1            -66      65                Points:         132
 PW_GRID|   Bounds   2            -66      65                Points:         132
 PW_GRID|   Bounds   3           -288     287                Points:         576
 PW_GRID| Volume element (a.u.^3)  0.2047E-02     Volume (a.u.^3)     20544.5734
 PW_GRID| Grid span                                                    FULLSPACE
 PW_GRID|   Distribution                         Average         Max         Min
 PW_GRID|   G-Vectors                            19602.0       21384       19008
 PW_GRID|   G-Rays                                 148.5         162         144
 PW_GRID|   Real Space Points                    19602.0       21384       19008

 PW_GRID| Information for grid number                                          2
 PW_GRID| Number of the reference grid                                         1
 PW_GRID| Grid distributed over                                   512 processors
 PW_GRID| Real space group dimensions                                    16   32
 PW_GRID| the grid is blocked:                                                NO
 PW_GRID| Cutoff [a.u.]                                                    100.0
 PW_GRID| spherical cutoff:                                                   NO
 PW_GRID|   Bounds   1            -37      37                Points:          75
 PW_GRID|   Bounds   2            -37      37                Points:          75
 PW_GRID|   Bounds   3           -165     164                Points:         330
 PW_GRID| Volume element (a.u.^3)  0.1107E-01     Volume (a.u.^3)     20544.5734
 PW_GRID| Grid span                                                    FULLSPACE
 PW_GRID|   Distribution                         Average         Max         Min
 PW_GRID|   G-Vectors                             3625.5       12150           0
 PW_GRID|   G-Rays                                  48.3         162           0
 PW_GRID|   Real Space Points                     3625.5        4950        2640

 PW_GRID| Information for grid number                                          3
 PW_GRID| Number of the reference grid                                         1
 PW_GRID| Grid distributed over                                   512 processors
 PW_GRID| Real space group dimensions                                    16   32
 PW_GRID| the grid is blocked:                                                NO
 PW_GRID| Cutoff [a.u.]                                                     33.3
 PW_GRID| spherical cutoff:                                                   NO
 PW_GRID|   Bounds   1            -22      21                Points:          44
 PW_GRID|   Bounds   2            -22      21                Points:          44
 PW_GRID|   Bounds   3            -96      95                Points:         192
 PW_GRID| Volume element (a.u.^3)  0.5527E-01     Volume (a.u.^3)     20544.5734
 PW_GRID| Grid span                                                    FULLSPACE
 PW_GRID|   Distribution                         Average         Max         Min
 PW_GRID|   G-Vectors                              726.0        7128           0
 PW_GRID|   G-Rays                                  16.5         162           0
 PW_GRID|   Real Space Points                      726.0        1152         384

 PW_GRID| Information for grid number                                          4
 PW_GRID| Number of the reference grid                                         1
 PW_GRID| Grid distributed over                                   512 processors
 PW_GRID| Real space group dimensions                                    16   32
 PW_GRID| the grid is blocked:                                                NO
 PW_GRID| Cutoff [a.u.]                                                     11.1
 PW_GRID| spherical cutoff:                                                   NO
 PW_GRID|   Bounds   1            -12      12                Points:          25
 PW_GRID|   Bounds   2            -12      12                Points:          25
 PW_GRID|   Bounds   3            -55      54                Points:         110
 PW_GRID| Volume element (a.u.^3)  0.2988         Volume (a.u.^3)     20544.5734
 PW_GRID| Grid span                                                    FULLSPACE
 PW_GRID|   Distribution                         Average         Max         Min
 PW_GRID|   G-Vectors                              134.3        3600           0
 PW_GRID|   G-Rays                                   5.4         144           0
 PW_GRID|   Real Space Points                      134.3         220           0

 POISSON| Solver                                                        PERIODIC
 POISSON| Periodicity                                                        XYZ

 RS_GRID| Information for grid number                                          1
 RS_GRID|   Bounds   1            -66      65                Points:         132
 RS_GRID|   Bounds   2            -66      65                Points:         132
 RS_GRID|   Bounds   3           -288     287                Points:         576
 RS_GRID| Real space distribution over                                  8 groups
 RS_GRID| Real space distribution along direction                              2
 RS_GRID| Border size                                                         35
 RS_GRID| Real space distribution over                                 64 groups
 RS_GRID| Real space distribution along direction                              3
 RS_GRID| Border size                                                         35
 RS_GRID|   Distribution                         Average         Max         Min
 RS_GRID|   Planes                                  86.5          87          86
 RS_GRID|   Distribution                         Average         Max         Min
 RS_GRID|   Planes                                  79.0          79          79

 RS_GRID| Information for grid number                                          2
 RS_GRID|   Bounds   1            -37      37                Points:          75
 RS_GRID|   Bounds   2            -37      37                Points:          75
 RS_GRID|   Bounds   3           -165     164                Points:         330
 RS_GRID| Real space distribution over                                  8 groups
 RS_GRID| Real space distribution along direction                              2
 RS_GRID| Border size                                                         24
 RS_GRID| Real space distribution over                                 64 groups
 RS_GRID| Real space distribution along direction                              3
 RS_GRID| Border size                                                         24
 RS_GRID|   Distribution                         Average         Max         Min
 RS_GRID|   Planes                                  57.4          58          57
 RS_GRID|   Distribution                         Average         Max         Min
 RS_GRID|   Planes                                  53.2          54          53

 RS_GRID| Information for grid number                                          3
 RS_GRID|   Bounds   1            -22      21                Points:          44
 RS_GRID|   Bounds   2            -22      21                Points:          44
 RS_GRID|   Bounds   3            -96      95                Points:         192
 RS_GRID| Real space fully replicated
 RS_GRID| Group size                                                           1

 RS_GRID| Information for grid number                                          4
 RS_GRID|   Bounds   1            -12      12                Points:          25
 RS_GRID|   Bounds   2            -12      12                Points:          25
 RS_GRID|   Bounds   3            -55      54                Points:         110
 RS_GRID| Real space fully replicated
 RS_GRID| Group size                                                           1

 KPOINTS| Number of kpoint groups                                              1
 KPOINTS| Size of each kpoint group                                          512
 KPOINTS| Number of kpoints per group                                          9

 BFGS| Use rational function optimization for step estimation:                NO
 BFGS| Use model Hessian for initial guess:                                  YES
 BFGS| Restart Hessian:                                                       NO
 BFGS| Trust radius:                                                       0.472

 *******************************************************************************
 ***                     STARTING GEOMETRY OPTIMIZATION                      ***
 ***                                   BFGS                                  ***
 *******************************************************************************

 Number of electrons:                                                       1223
 Number of occupied orbitals:                                                612
 Number of molecular orbitals:                                               712

 Number of orbital functions:                                               1009
 Number of independent orbital functions:                                   1009

 Extrapolation method: initial_guess


 SCF WAVEFUNCTION OPTIMIZATION

  Step     Update method      Time    Convergence         Total energy    Change
  ------------------------------------------------------------------------------
 SMEAGOL DEBUG| Number of electrons in the unit cell =      1223.0000000003
     1 NoMix/SMGL  0.30E+00  194.8     1.68886035     -3690.6583110547 -3.69E+03
 SMEAGOL DEBUG| Number of electrons in the unit cell =      1223.3930064834
     2 Broy./SMGL  0.30E+00   87.3     0.44895426     -3688.2713653796  2.39E+00
 SMEAGOL DEBUG| Number of electrons in the unit cell =      1222.6365022956
     3 Broy./SMGL  0.30E+00   85.9     0.44345669     -3700.2905395223 -1.20E+01
 SMEAGOL DEBUG| Number of electrons in the unit cell =      1223.0223732367
     4 Broy./SMGL  0.30E+00   82.5     0.10284271     -3690.1191141772  1.02E+01
 SMEAGOL DEBUG| Number of electrons in the unit cell =      1223.2223541813
     5 Broy./SMGL  0.30E+00   85.2     0.01409863     -3689.8324595769  2.87E-01
 SMEAGOL DEBUG| Number of electrons in the unit cell =      1223.1560915581
     6 Broy./SMGL  0.30E+00   82.7     0.01186287     -3690.7184850272 -8.86E-01
 SMEAGOL DEBUG| Number of electrons in the unit cell =      1223.2191185012
     7 Broy./SMGL  0.30E+00   82.7     0.01284392     -3690.4228044388  2.96E-01
 SMEAGOL DEBUG| Number of electrons in the unit cell =      1223.1187327167
     8 Broy./SMGL  0.30E+00   84.9     0.00357250     -3690.9591569719 -5.36E-01
 SMEAGOL DEBUG| Number of electrons in the unit cell =      1223.0083602523
     9 Broy./SMGL  0.30E+00   83.1     0.00420001     -3690.8376086637  1.22E-01
 SMEAGOL DEBUG| Number of electrons in the unit cell =      1222.9650309474
    10 Broy./SMGL  0.30E+00   87.6     0.00781111     -3690.7192637588  1.18E-01
 SMEAGOL DEBUG| Number of electrons in the unit cell =      1222.9506842582
    11 Broy./SMGL  0.30E+00   87.5     0.00784984     -3690.6557778035  6.35E-02
 SMEAGOL DEBUG| Number of electrons in the unit cell =      1222.9548764320
    12 Broy./SMGL  0.30E+00  136.0     0.00783944     -3690.6256416147  3.01E-02
 SMEAGOL DEBUG| Number of electrons in the unit cell =      1222.9612499079
    13 Broy./SMGL  0.30E+00  112.2     0.00285102     -3690.6241515695  1.49E-03
 SMEAGOL DEBUG| Number of electrons in the unit cell =      1222.9654111715
    14 Broy./SMGL  0.30E+00   88.3     0.00285632     -3690.6300351332 -5.88E-03
 SMEAGOL DEBUG| Number of electrons in the unit cell =      1222.9631427157
    15 Broy./SMGL  0.30E+00  123.9     0.00285635     -3690.6349085677 -4.87E-03
 SMEAGOL DEBUG| Number of electrons in the unit cell =      1222.9609917080
    16 Broy./SMGL  0.30E+00  103.9     0.00285263     -3690.6340795939  8.29E-04
 SMEAGOL DEBUG| Number of electrons in the unit cell =      1222.9610671934
    17 Broy./SMGL  0.30E+00  126.1     0.00185501     -3690.6346540560 -5.74E-04
 SMEAGOL DEBUG| Number of electrons in the unit cell =      1222.9600247956
    18 Broy./SMGL  0.30E+00  102.7     0.00285654     -3690.6347406585 -8.66E-05
 SMEAGOL DEBUG| Number of electrons in the unit cell =      1222.9600702979
    19 Broy./SMGL  0.30E+00  138.2     0.00185270     -3690.6346908658  4.98E-05
 SMEAGOL DEBUG| Number of electrons in the unit cell =      1222.9606063853
    20 Broy./SMGL  0.30E+00  121.7     0.00121294     -3690.6347325439 -4.17E-05
 SMEAGOL DEBUG| Number of electrons in the unit cell =      1222.9604785289
    21 Broy./SMGL  0.30E+00  130.7     0.00046811     -3690.6349144840 -1.82E-04
 SMEAGOL DEBUG| Number of electrons in the unit cell =      1222.9606493307
    22 Broy./SMGL  0.30E+00  120.9     0.00046813     -3690.6346111939  3.03E-04
 SMEAGOL DEBUG| Number of electrons in the unit cell =      1222.9606381077
    23 Broy./SMGL  0.30E+00  103.5     0.00046811     -3690.6346913807 -8.02E-05
 SMEAGOL DEBUG| Number of electrons in the unit cell =      1222.9607834229
    24 Broy./SMGL  0.30E+00  100.9     0.00028781     -3690.6345348967  1.56E-04
 SMEAGOL DEBUG| Number of electrons in the unit cell =      1222.9608057411
    25 Broy./SMGL  0.30E+00   87.4     0.00045390     -3690.6346600714 -1.25E-04
 SMEAGOL DEBUG| Number of electrons in the unit cell =      1222.9608307426
    26 Broy./SMGL  0.30E+00   90.2     0.00000085     -3690.6346140164  4.61E-05
 SMEAGOL DEBUG| Number of electrons in the unit cell =      1222.9608054645
    27 Broy./SMGL  0.30E+00   98.9     0.00000211     -3690.6346422611 -2.82E-05
 SMEAGOL DEBUG| Number of electrons in the unit cell =      1222.9607975800
    28 Broy./SMGL  0.30E+00   85.0     0.00000296     -3690.6346151289  2.71E-05
 SMEAGOL DEBUG| Number of electrons in the unit cell =      1222.9607942099
    29 Broy./SMGL  0.30E+00   91.3     0.00000117     -3690.6346116318  3.50E-06
 SMEAGOL DEBUG| Number of electrons in the unit cell =      1222.9608046566
    30 Broy./SMGL  0.30E+00   82.2     0.00000062     -3690.6346013542  1.03E-05
 SMEAGOL DEBUG| Number of electrons in the unit cell =      1222.9608066090
    31 Broy./SMGL  0.30E+00   93.5     0.00000010     -3690.6346154232 -1.41E-05
 SMEAGOL DEBUG| Number of electrons in the unit cell =      1222.9608042320
    32 Broy./SMGL  0.30E+00   86.6     0.00000030     -3690.6346134676  1.96E-06
 SMEAGOL DEBUG| Number of electrons in the unit cell =      1222.9608044112
    33 Broy./SMGL  0.30E+00   90.9     0.00000014     -3690.6346094860  3.98E-06
 SMEAGOL DEBUG| Number of electrons in the unit cell =      1222.9608047026
    34 Broy./SMGL  0.30E+00  119.8     0.00000022     -3690.6346078975  1.59E-06
 SMEAGOL DEBUG| Number of electrons in the unit cell =      1222.9608051960
    35 Broy./SMGL  0.30E+00  100.7     0.00000002     -3690.6346074174  4.80E-07
 SMEAGOL DEBUG| Number of electrons in the unit cell =      1222.9608053502
    36 Broy./SMGL  0.30E+00   95.5     0.00000004     -3690.6346078102 -3.93E-07
 SMEAGOL DEBUG| Number of electrons in the unit cell =      1222.9608047312
    37 Broy./SMGL  0.30E+00   89.4     0.00000004     -3690.6346078430 -3.27E-08
 SMEAGOL DEBUG| Number of electrons in the unit cell =      1222.9608048982
    38 Broy./SMGL  0.30E+00   94.8     0.00000002     -3690.6346070687  7.74E-07
 SMEAGOL DEBUG| Number of electrons in the unit cell =      1222.9608049753
    39 Broy./SMGL  0.30E+00   84.8     6.3695E-09     -3690.6346073194 -2.51E-07

  *** SCF run converged in    39 steps ***


  Electronic density on regular grids:      -1222.9608049753        0.0391950247
  Core density on regular grids:             1222.9999997993       -0.0000002007
  Total charge density on r-space grids:        0.0391948240
  Total charge density g-space grids:           0.0391948240

  Overlap energy of the core charge distribution:               0.00000048998631
  Self energy of the core charge distribution:              -6424.54153828207382
  Core Hamiltonian energy:                                   2053.17791772815463
  Hartree energy:                                            1264.25616011163288
  Exchange-correlation energy:                               -583.52714736711278
  Electronic entropic energy:                                   0.00000000000000
  Fermi energy:                                                 0.00000000000000

  Total energy:                                             -3690.63460731941177

 The electron density is written in cube file format to the file:

 V-ELECTRON_DENSITY-1_0.cube

 !-----------------------------------------------------------------------------!
                     Mulliken Population Analysis

 #  Atom  Element  Kind  Atomic population                           Net charge
       1     Au       1         11.000099                             -0.000099
       2     Au       1         10.999267                              0.000733
       3     Au       1         10.987100                              0.012900
       4     Au       1         10.985677                              0.014323
       5     Au       1         11.000161                             -0.000161
       6     Au       1         10.999524                              0.000476
       7     Au       1         10.987150                              0.012850
       8     Au       1         10.978769                              0.021231
       9     Au       1         10.999915                              0.000085
      10     Au       1         10.999451                              0.000549
      11     Au       1         10.987331                              0.012669
      12     Au       1         10.985866                              0.014134
      13     Au       1         10.999858                              0.000142
      14     Au       1         10.999477                              0.000523
      15     Au       1         10.987448                              0.012552
      16     Au       1         10.978741                              0.021259
      17     Au       1         10.999920                              0.000080
      18     Au       1         10.999796                              0.000204
      19     Au       1         10.987513                              0.012487
      20     Au       1         10.975331                              0.024669
      21     Au       1         10.999675                              0.000325
      22     Au       1         10.999662                              0.000338
      23     Au       1         10.986675                              0.013325
      24     Au       1         10.978922                              0.021078
      25     Au       1         11.000143                             -0.000143
      26     Au       1         10.999572                              0.000428
      27     Au       1         10.987735                              0.012265
      28     Au       1         10.986016                              0.013984
      29     Au       1         11.000204                             -0.000204
      30     Au       1         10.999829                              0.000171
      31     Au       1         10.987800                              0.012200
      32     Au       1         10.979157                              0.020843
      33     Au       1         10.999960                              0.000040
      34     Au       1         10.999756                              0.000244
      35     Au       1         10.986925                              0.013075
      36     Au       1         10.986222                              0.013778
      37     Au       1         10.988435                              0.011565
      38     Au       1         10.948519                              0.051481
      39     Au       1         10.948985                              0.051015
      40     Au       1         10.988684                              0.011316
      41     Au       1         10.948767                              0.051233
      42     Au       1         10.949228                              0.050772
      43     Au       1         11.021379                             -0.021379
      44     Au       1         10.987966                              0.012034
      45     Au       1         10.988401                              0.011599
      46     Au       1         11.081482                             -0.081482
      47     Au       1         11.029182                             -0.029182
      48     Au       1         11.081675                             -0.081675
      49     Au       1         11.029236                             -0.029236
      50     Au       1         10.888162                              0.111838
      51     Au       1         11.029565                             -0.029565
      52     Au       1         11.081572                             -0.081572
      53     Au       1         11.029123                             -0.029123
      54     Au       1         11.081664                             -0.081664
      55     Au       1         11.007832                             -0.007832
      56     Au       1         11.007164                             -0.007164
      57     Au       1         11.007553                             -0.007553
      58     Au       1         11.006925                             -0.006925
      59     Au       1         11.126466                             -0.126466
      60     Au       1         11.086960                             -0.086960
      61     H        2          0.948513                              0.051487
      62     H        2          0.955200                              0.044800
      63     Au       1         11.076140                             -0.076140
      64     Au       1         11.164978                             -0.164978
      65     Au       1         11.005170                             -0.005170
      66     Au       1         11.005234                             -0.005234
      67     Au       1         11.005629                             -0.005629
      68     Au       1         11.005678                             -0.005678
      69     Au       1         11.028888                             -0.028888
      70     Au       1         10.986912                              0.013088
      71     Au       1         11.029238                             -0.029238
      72     Au       1         10.987139                              0.012861
      73     Au       1         10.866416                              0.133584
      74     Au       1         10.987485                              0.012515
      75     Au       1         11.029172                             -0.029172
      76     Au       1         10.987127                              0.012873
      77     Au       1         11.029323                             -0.029323
      78     Au       1         11.001470                             -0.001470
      79     Au       1         10.988685                              0.011315
      80     Au       1         10.999810                              0.000190
      81     Au       1         10.999683                              0.000317
      82     Au       1         11.001603                             -0.001603
      83     Au       1         10.988076                              0.011924
      84     Au       1         10.999874                              0.000126
      85     Au       1         10.999930                              0.000070
      86     Au       1         11.026153                             -0.026153
      87     Au       1         10.988803                              0.011197
      88     Au       1         10.999630                              0.000370
      89     Au       1         10.999867                              0.000133
      90     Au       1         10.967808                              0.032192
      91     Au       1         10.988027                              0.011973
      92     Au       1         10.999564                              0.000436
      93     Au       1         10.999882                              0.000118
      94     Au       1         10.967853                              0.032147
      95     Au       1         10.991807                              0.008193
      96     Au       1         10.999627                              0.000373
      97     Au       1         11.000129                             -0.000129
      98     Au       1         11.001071                             -0.001071
      99     Au       1         10.988199                              0.011801
     100     Au       1         10.999386                              0.000614
     101     Au       1         11.000066                             -0.000066
     102     Au       1         10.968121                              0.031879
     103     Au       1         10.988984                              0.011016
     104     Au       1         10.999850                              0.000150
     105     Au       1         10.999986                              0.000014
     106     Au       1         10.968179                              0.031821
     107     Au       1         10.988380                              0.011620
     108     Au       1         10.999913                              0.000087
     109     Au       1         11.000232                             -0.000232
     110     Au       1         11.001391                             -0.001391
     111     Au       1         10.989105                              0.010895
     112     Au       1         10.999672                              0.000328
     113     Au       1         11.000170                             -0.000170
 # Total charge                           1222.960805                  0.039195

 !-----------------------------------------------------------------------------!

 !-----------------------------------------------------------------------------!
                           Hirshfeld Charges

  #Atom  Element  Kind  Ref Charge     Population                    Net charge
      1       Au     1      11.000         11.000                        -0.000
      2       Au     1      11.000         11.000                         0.000
      3       Au     1      11.000         10.999                         0.001
      4       Au     1      11.000         10.989                         0.011
      5       Au     1      11.000         11.000                        -0.000
      6       Au     1      11.000         11.000                         0.000
      7       Au     1      11.000         10.999                         0.001
      8       Au     1      11.000         10.992                         0.008
      9       Au     1      11.000         11.000                         0.000
     10       Au     1      11.000         11.000                         0.000
     11       Au     1      11.000         10.999                         0.001
     12       Au     1      11.000         10.989                         0.011
     13       Au     1      11.000         11.000                         0.000
     14       Au     1      11.000         11.000                         0.000
     15       Au     1      11.000         10.999                         0.001
     16       Au     1      11.000         10.992                         0.008
     17       Au     1      11.000         11.000                         0.000
     18       Au     1      11.000         11.000                        -0.000
     19       Au     1      11.000         10.999                         0.001
     20       Au     1      11.000         10.990                         0.010
     21       Au     1      11.000         11.000                         0.000
     22       Au     1      11.000         11.000                        -0.000
     23       Au     1      11.000         10.999                         0.001
     24       Au     1      11.000         10.992                         0.008
     25       Au     1      11.000         11.000                        -0.000
     26       Au     1      11.000         11.000                         0.000
     27       Au     1      11.000         10.999                         0.001
     28       Au     1      11.000         10.989                         0.011
     29       Au     1      11.000         11.000                        -0.000
     30       Au     1      11.000         11.000                        -0.000
     31       Au     1      11.000         10.999                         0.001
     32       Au     1      11.000         10.992                         0.008
     33       Au     1      11.000         11.000                         0.000
     34       Au     1      11.000         11.000                        -0.000
     35       Au     1      11.000         10.999                         0.001
     36       Au     1      11.000         10.989                         0.011
     37       Au     1      11.000         10.996                         0.004
     38       Au     1      11.000         10.997                         0.003
     39       Au     1      11.000         10.998                         0.002
     40       Au     1      11.000         10.996                         0.004
     41       Au     1      11.000         10.998                         0.002
     42       Au     1      11.000         10.998                         0.002
     43       Au     1      11.000         10.996                         0.004
     44       Au     1      11.000         10.996                         0.004
     45       Au     1      11.000         10.996                         0.004
     46       Au     1      11.000         11.032                        -0.032
     47       Au     1      11.000         11.012                        -0.012
     48       Au     1      11.000         11.032                        -0.032
     49       Au     1      11.000         11.012                        -0.012
     50       Au     1      11.000         10.972                         0.028
     51       Au     1      11.000         11.012                        -0.012
     52       Au     1      11.000         11.032                        -0.032
     53       Au     1      11.000         11.012                        -0.012
     54       Au     1      11.000         11.032                        -0.032
     55       Au     1      11.000         10.980                         0.020
     56       Au     1      11.000         10.979                         0.021
     57       Au     1      11.000         10.980                         0.020
     58       Au     1      11.000         10.979                         0.021
     59       Au     1      11.000         11.017                        -0.017
     60       Au     1      11.000         11.018                        -0.018
     61       H      2       1.000          1.037                        -0.037
     62       H      2       1.000          1.046                        -0.046
     63       Au     1      11.000         10.997                         0.003
     64       Au     1      11.000         11.044                        -0.044
     65       Au     1      11.000         10.973                         0.027
     66       Au     1      11.000         10.973                         0.027
     67       Au     1      11.000         10.973                         0.027
     68       Au     1      11.000         10.973                         0.027
     69       Au     1      11.000         11.031                        -0.031
     70       Au     1      11.000         11.013                        -0.013
     71       Au     1      11.000         11.031                        -0.031
     72       Au     1      11.000         11.013                        -0.013
     73       Au     1      11.000         10.976                         0.024
     74       Au     1      11.000         11.013                        -0.013
     75       Au     1      11.000         11.031                        -0.031
     76       Au     1      11.000         11.013                        -0.013
     77       Au     1      11.000         11.031                        -0.031
     78       Au     1      11.000         10.980                         0.020
     79       Au     1      11.000         10.999                         0.001
     80       Au     1      11.000         11.000                        -0.000
     81       Au     1      11.000         11.000                         0.000
     82       Au     1      11.000         10.980                         0.020
     83       Au     1      11.000         10.998                         0.002
     84       Au     1      11.000         11.000                        -0.000
     85       Au     1      11.000         11.000                         0.000
     86       Au     1      11.000         10.984                         0.016
     87       Au     1      11.000         10.999                         0.001
     88       Au     1      11.000         11.000                         0.000
     89       Au     1      11.000         11.000                         0.000
     90       Au     1      11.000         10.983                         0.017
     91       Au     1      11.000         10.998                         0.002
     92       Au     1      11.000         11.000                         0.000
     93       Au     1      11.000         11.000                         0.000
     94       Au     1      11.000         10.983                         0.017
     95       Au     1      11.000         10.999                         0.001
     96       Au     1      11.000         11.000                         0.000
     97       Au     1      11.000         11.000                        -0.000
     98       Au     1      11.000         10.980                         0.020
     99       Au     1      11.000         10.998                         0.002
    100       Au     1      11.000         11.000                         0.000
    101       Au     1      11.000         11.000                        -0.000
    102       Au     1      11.000         10.983                         0.017
    103       Au     1      11.000         10.999                         0.001
    104       Au     1      11.000         11.000                        -0.000
    105       Au     1      11.000         11.000                         0.000
    106       Au     1      11.000         10.983                         0.017
    107       Au     1      11.000         10.998                         0.002
    108       Au     1      11.000         11.000                        -0.000
    109       Au     1      11.000         11.000                        -0.000
    110       Au     1      11.000         10.980                         0.020
    111       Au     1      11.000         10.999                         0.001
    112       Au     1      11.000         11.000                         0.000
    113       Au     1      11.000         11.000                        -0.000

  Total Charge                                                            0.039
 !-----------------------------------------------------------------------------!
 Calculating transmission coefficient
 SMEAGOL DEBUG| Number of electrons in the unit cell =      1222.9608046892

 ENERGY| Total FORCE_EVAL ( QS ) energy [a.u.]:            -3690.634607293272893

 ATOMIC FORCES in [a.u.]

 # Atom   Kind   Element          X              Y              Z
      1      1      Au          0.00000000     0.00000000     0.00000000
      2      1      Au          0.00000000     0.00000000     0.00000000
      3      1      Au          0.00000000     0.00000000     0.00000000
      4      1      Au          0.00000000     0.00000000     0.00000000
      5      1      Au          0.00000000     0.00000000     0.00000000
      6      1      Au          0.00000000     0.00000000     0.00000000
      7      1      Au          0.00000000     0.00000000     0.00000000
      8      1      Au          0.00000000     0.00000000     0.00000000
      9      1      Au          0.00000000     0.00000000     0.00000000
     10      1      Au          0.00000000     0.00000000     0.00000000
     11      1      Au          0.00000000     0.00000000     0.00000000
     12      1      Au          0.00000000     0.00000000     0.00000000
     13      1      Au          0.00000000     0.00000000     0.00000000
     14      1      Au          0.00000000     0.00000000     0.00000000
     15      1      Au          0.00000000     0.00000000     0.00000000
     16      1      Au          0.00000000     0.00000000     0.00000000
     17      1      Au          0.00000000     0.00000000     0.00000000
     18      1      Au          0.00000000     0.00000000     0.00000000
     19      1      Au          0.00000000     0.00000000     0.00000000
     20      1      Au          0.00000000     0.00000000     0.00000000
     21      1      Au          0.00000000     0.00000000     0.00000000
     22      1      Au          0.00000000     0.00000000     0.00000000
     23      1      Au          0.00000000     0.00000000     0.00000000
     24      1      Au          0.00000000     0.00000000     0.00000000
     25      1      Au          0.00000000     0.00000000     0.00000000
     26      1      Au          0.00000000     0.00000000     0.00000000
     27      1      Au          0.00000000     0.00000000     0.00000000
     28      1      Au          0.00000000     0.00000000     0.00000000
     29      1      Au          0.00000000     0.00000000     0.00000000
     30      1      Au          0.00000000     0.00000000     0.00000000
     31      1      Au          0.00000000     0.00000000     0.00000000
     32      1      Au          0.00000000     0.00000000     0.00000000
     33      1      Au          0.00000000     0.00000000     0.00000000
     34      1      Au          0.00000000     0.00000000     0.00000000
     35      1      Au          0.00000000     0.00000000     0.00000000
     36      1      Au          0.00000000     0.00000000     0.00000000
     37      1      Au          0.00000000     0.00000000     0.00000000
     38      1      Au          0.00000000     0.00000000     0.00000000
     39      1      Au          0.00000000     0.00000000     0.00000000
     40      1      Au          0.00000000     0.00000000     0.00000000
     41      1      Au          0.00000000     0.00000000     0.00000000
     42      1      Au          0.00000000     0.00000000     0.00000000
     43      1      Au          0.00000000     0.00000000     0.00000000
     44      1      Au          0.00000000     0.00000000     0.00000000
     45      1      Au          0.00000000     0.00000000     0.00000000
     46      1      Au          0.00000000     0.00000000     0.00000000
     47      1      Au          0.00000000     0.00000000     0.00000000
     48      1      Au          0.00000000     0.00000000     0.00000000
     49      1      Au          0.00000000     0.00000000     0.00000000
     50      1      Au          0.00000000     0.00000000     0.00000000
     51      1      Au          0.00000000     0.00000000     0.00000000
     52      1      Au          0.00000000     0.00000000     0.00000000
     53      1      Au          0.00000000     0.00000000     0.00000000
     54      1      Au          0.00000000     0.00000000     0.00000000
     55      1      Au          0.00000000     0.00000000     0.00000000
     56      1      Au          0.00000000     0.00000000     0.00000000
     57      1      Au          0.00000000     0.00000000     0.00000000
     58      1      Au          0.00000000     0.00000000     0.00000000
     59      1      Au         -0.00004819    -0.00019788    -0.00401483
     60      1      Au          0.00003301     0.00017087     0.00862734
     61      2      H          -0.00002420    -0.00005191     0.00119663
     62      2      H          -0.00003583    -0.00001268    -0.00143759
     63      1      Au          0.00005097     0.00002134    -0.00593234
     64      1      Au         -0.00003772    -0.00002466    -0.00264375
     65      1      Au          0.00000000     0.00000000     0.00000000
     66      1      Au          0.00000000     0.00000000     0.00000000
     67      1      Au          0.00000000     0.00000000     0.00000000
     68      1      Au          0.00000000     0.00000000     0.00000000
     69      1      Au          0.00000000     0.00000000     0.00000000
     70      1      Au          0.00000000     0.00000000     0.00000000
     71      1      Au          0.00000000     0.00000000     0.00000000
     72      1      Au          0.00000000     0.00000000     0.00000000
[...]
    96 Broy./SMGL  0.30E+00  115.1     0.00000012     -3690.6351606065  5.64E-05
 SMEAGOL DEBUG| Number of electrons in the unit cell =      1222.9608908544
    97 Broy./SMGL  0.30E+00   91.4     0.00359537     -3690.6351619783 -1.37E-06
 SMEAGOL DEBUG| Number of electrons in the unit cell =      1222.9608904340
    98 Broy./SMGL  0.30E+00   93.0     0.00359535     -3690.6352172207 -5.52E-05
 SMEAGOL DEBUG| Number of electrons in the unit cell =      1222.9608903080
    99 Broy./SMGL  0.30E+00  107.0     0.00000007     -3690.6351598408  5.74E-05
 SMEAGOL DEBUG| Number of electrons in the unit cell =      1222.9608907398
   100 Broy./SMGL  0.30E+00   88.6     0.00359535     -3690.6351613671 -1.53E-06
 SMEAGOL DEBUG| Number of electrons in the unit cell =      1222.9608901607
   101 Broy./SMGL  0.30E+00  126.0     0.00359533     -3690.6352160886 -5.47E-05
 SMEAGOL DEBUG| Number of electrons in the unit cell =      1222.9608906516
   102 Broy./SMGL  0.30E+00   92.0     0.00359534     -3690.6351605119  5.56E-05
 SMEAGOL DEBUG| Number of electrons in the unit cell =      1222.9608900622
   103 Broy./SMGL  0.30E+00  108.6     0.00359534     -3690.6352156604 -5.51E-05
 SMEAGOL DEBUG| Number of electrons in the unit cell =      1222.9608906616
   104 Broy./SMGL  0.30E+00  110.5     0.00359534     -3690.6351602175  5.54E-05
 SMEAGOL DEBUG| Number of electrons in the unit cell =      1222.9608903595
   105 Broy./SMGL  0.30E+00   92.5     0.00359537     -3690.6352166021 -5.64E-05
 SMEAGOL DEBUG| Number of electrons in the unit cell =      1222.9608905728
   106 Broy./SMGL  0.30E+00  106.4     0.00000018     -3690.6351606449  5.60E-05
 SMEAGOL DEBUG| Number of electrons in the unit cell =      1222.9608909315
   107 Broy./SMGL  0.30E+00   88.7     0.00359536     -3690.6351623987 -1.75E-06
 SMEAGOL DEBUG| Number of electrons in the unit cell =      1222.9608901351
   108 Broy./SMGL  0.30E+00   94.9     0.00359532     -3690.6352168274 -5.44E-05
 SMEAGOL DEBUG| Number of electrons in the unit cell =      1222.9608907430
   109 Broy./SMGL  0.30E+00   89.9     0.00359534     -3690.6351605196  5.63E-05
 SMEAGOL DEBUG| Number of electrons in the unit cell =      1222.9608900921
   110 Broy./SMGL  0.30E+00   93.0     0.00359534     -3690.6352161100 -5.56E-05
 SMEAGOL DEBUG| Number of electrons in the unit cell =      1222.9608904562
   111 Broy./SMGL  0.30E+00   99.6     0.00359535     -3690.6351597190  5.64E-05
 SMEAGOL DEBUG| Number of electrons in the unit cell =      1222.9608906319
   112 Broy./SMGL  0.30E+00   94.3     0.00359539     -3690.6352165512 -5.68E-05
 SMEAGOL DEBUG| Number of electrons in the unit cell =      1222.9608897173
   113 Broy./SMGL  0.30E+00   85.5     0.00000062     -3690.6351590897  5.75E-05
 SMEAGOL DEBUG| Number of electrons in the unit cell =      1222.9608907494
   114 Broy./SMGL  0.30E+00   88.2     0.00359531     -3690.6351593761 -2.86E-07
 SMEAGOL DEBUG| Number of electrons in the unit cell =      1222.9608904488
   115 Broy./SMGL  0.30E+00   91.7     0.00359537     -3690.6352173249 -5.79E-05
 SMEAGOL DEBUG| Number of electrons in the unit cell =      1222.9608906213
   116 Broy./SMGL  0.30E+00   86.3     0.00359537     -3690.6351610913  5.62E-05
 SMEAGOL DEBUG| Number of electrons in the unit cell =      1222.9608904165
   117 Broy./SMGL  0.30E+00   90.2     0.00359537     -3690.6352168292 -5.57E-05
 SMEAGOL DEBUG| Number of electrons in the unit cell =      1222.9608905352
   118 Broy./SMGL  0.30E+00   91.1     0.00000015     -3690.6351607241  5.61E-05
 SMEAGOL DEBUG| Number of electrons in the unit cell =      1222.9608908459
   119 Broy./SMGL  0.30E+00   90.7     0.00359536     -3690.6351624539 -1.73E-06
 SMEAGOL DEBUG| Number of electrons in the unit cell =      1222.9608902545
   120 Broy./SMGL  0.30E+00   88.1     0.00359532     -3690.6352167474 -5.43E-05
 SMEAGOL DEBUG| Number of electrons in the unit cell =      1222.9608906095
   121 Broy./SMGL  0.30E+00   91.9     0.00359534     -3690.6351611428  5.56E-05
 SMEAGOL DEBUG| Number of electrons in the unit cell =      1222.9608901380
   122 Broy./SMGL  0.30E+00   94.8     0.00359532     -3690.6352154202 -5.43E-05
 SMEAGOL DEBUG| Number of electrons in the unit cell =      1222.9608905824
   123 Broy./SMGL  0.30E+00   86.1     0.00359532     -3690.6351606466  5.48E-05
 SMEAGOL DEBUG| Number of electrons in the unit cell =      1222.9608900033
   124 Broy./SMGL  0.30E+00   85.5     0.00359530     -3690.6352145808 -5.39E-05
 SMEAGOL DEBUG| Number of electrons in the unit cell =      1222.9608906838
   125 Broy./SMGL  0.30E+00   93.0     0.00359528     -3690.6351610059  5.36E-05
 SMEAGOL DEBUG| Number of electrons in the unit cell =      1222.9608900465
   126 Broy./SMGL  0.30E+00   89.5     0.00359527     -3690.6352143162 -5.33E-05
 SMEAGOL DEBUG| Number of electrons in the unit cell =      1222.9608902111
   127 Broy./SMGL  0.30E+00   96.4     0.00359533     -3690.6351590003  5.53E-05
 SMEAGOL DEBUG| Number of electrons in the unit cell =      1222.9608899494
   128 Broy./SMGL  0.30E+00   87.0     0.00359534     -3690.6352135435 -5.45E-05
 SMEAGOL DEBUG| Number of electrons in the unit cell =      1222.9608904089
   129 Broy./SMGL  0.30E+00   93.4     0.00000030     -3690.6351579160  5.56E-05
 SMEAGOL DEBUG| Number of electrons in the unit cell =      1222.9608904086
   130 Broy./SMGL  0.30E+00   98.1     0.00000002     -3690.6351591402 -1.22E-06
 SMEAGOL DEBUG| Number of electrons in the unit cell =      1222.9608904709
   131 Broy./SMGL  0.30E+00   93.4     0.00000028     -3690.6351602024 -1.06E-06
 SMEAGOL DEBUG| Number of electrons in the unit cell =      1222.9608908475
   132 Broy./SMGL  0.30E+00   87.3     0.00359535     -3690.6351626623 -2.46E-06
 SMEAGOL DEBUG| Number of electrons in the unit cell =      1222.9608902671
   133 Broy./SMGL  0.30E+00   93.8     0.00359529     -3690.6352161871 -5.35E-05
 SMEAGOL DEBUG| Number of electrons in the unit cell =      1222.9608905968
   134 Broy./SMGL  0.30E+00   93.4     0.00359532     -3690.6351606211  5.56E-05
 SMEAGOL DEBUG| Number of electrons in the unit cell =      1222.9608901051
   135 Broy./SMGL  0.30E+00   89.9     0.00359530     -3690.6352148473 -5.42E-05
 SMEAGOL DEBUG| Number of electrons in the unit cell =      1222.9608905732
   136 Broy./SMGL  0.30E+00   82.8     0.00359530     -3690.6351599266  5.49E-05
 SMEAGOL DEBUG| Number of electrons in the unit cell =      1222.9608899845
   137 Broy./SMGL  0.30E+00   90.7     0.00359529     -3690.6352140761 -5.41E-05
 SMEAGOL DEBUG| Number of electrons in the unit cell =      1222.9608903941
   138 Broy./SMGL  0.30E+00   99.7     0.00000059     -3690.6351582376  5.58E-05
 SMEAGOL DEBUG| Number of electrons in the unit cell =      1222.9608910390
   139 Broy./SMGL  0.30E+00   91.4     0.00359533     -3690.6351615540 -3.32E-06
 SMEAGOL DEBUG| Number of electrons in the unit cell =      1222.9608900155
   140 Broy./SMGL  0.30E+00   86.0     0.00359531     -3690.6352169987 -5.54E-05
 SMEAGOL DEBUG| Number of electrons in the unit cell =      1222.9608907123
   141 Broy./SMGL  0.30E+00   97.2     0.00359534     -3690.6351598480  5.72E-05
 SMEAGOL DEBUG| Number of electrons in the unit cell =      1222.9608904049
   142 Broy./SMGL  0.30E+00   94.1     0.00359534     -3690.6352159294 -5.61E-05
 SMEAGOL DEBUG| Number of electrons in the unit cell =      1222.9608898260
   143 Broy./SMGL  0.30E+00  102.6     0.00359541     -3690.6351586033  5.73E-05
 SMEAGOL DEBUG| Number of electrons in the unit cell =      1222.9608905751
   144 Broy./SMGL  0.30E+00   86.7     0.00359542     -3690.6352139188 -5.53E-05
 SMEAGOL DEBUG| Number of electrons in the unit cell =      1222.9608905614
   145 Broy./SMGL  0.30E+00   89.0     0.00000015     -3690.6351606024  5.33E-05
 SMEAGOL DEBUG| Number of electrons in the unit cell =      1222.9608908652
   146 Broy./SMGL  0.30E+00   92.3     0.00359536     -3690.6351622965 -1.69E-06
 SMEAGOL DEBUG| Number of electrons in the unit cell =      1222.9608906746
   147 Broy./SMGL  0.30E+00   91.4     0.00000007     -3690.6352190792 -5.68E-05
 SMEAGOL DEBUG| Number of electrons in the unit cell =      1222.9608908188
   148 Broy./SMGL  0.30E+00   91.1     0.00000005     -3690.6352180701  1.01E-06
 SMEAGOL DEBUG| Number of electrons in the unit cell =      1222.9608905748
   149 Broy./SMGL  0.30E+00   86.0     0.00359537     -3690.6352177418  3.28E-07
 SMEAGOL DEBUG| Number of electrons in the unit cell =      1222.9608904670
   150 Broy./SMGL  0.30E+00   93.7     0.00359538     -3690.6351622280  5.55E-05
 SMEAGOL DEBUG| Number of electrons in the unit cell =      1222.9608904801
   151 Broy./SMGL  0.30E+00   93.2     0.00359537     -3690.6352164842 -5.43E-05
 SMEAGOL DEBUG| Number of electrons in the unit cell =      1222.9608904389
   152 Broy./SMGL  0.30E+00   89.8     0.00359537     -3690.6351620189  5.45E-05
 SMEAGOL DEBUG| Number of electrons in the unit cell =      1222.9608903204
   153 Broy./SMGL  0.30E+00   87.9     0.00359536     -3690.6352159730 -5.40E-05
 SMEAGOL DEBUG| Number of electrons in the unit cell =      1222.9608903501
   154 Broy./SMGL  0.30E+00   91.1     0.00000012     -3690.6351608083  5.52E-05
 SMEAGOL DEBUG| Number of electrons in the unit cell =      1222.9608907376
   155 Broy./SMGL  0.30E+00   90.2     0.00359535     -3690.6351619059 -1.10E-06
 SMEAGOL DEBUG| Number of electrons in the unit cell =      1222.9608904743
   156 Broy./SMGL  0.30E+00   98.2     0.00000018     -3690.6352180601 -5.62E-05
 SMEAGOL DEBUG| Number of electrons in the unit cell =      1222.9608900031
   157 Broy./SMGL  0.30E+00   86.8     0.00359536     -3690.6352162823  1.78E-06
 SMEAGOL DEBUG| Number of electrons in the unit cell =      1222.9608907741
   158 Broy./SMGL  0.30E+00  101.5     0.00359537     -3690.6351600292  5.63E-05
 SMEAGOL DEBUG| Number of electrons in the unit cell =      1222.9608899578
   159 Broy./SMGL  0.30E+00   87.6     0.00359537     -3690.6352169978 -5.70E-05
 SMEAGOL DEBUG| Number of electrons in the unit cell =      1222.9608907293
   160 Broy./SMGL  0.30E+00   97.4     0.00359537     -3690.6351604467  5.66E-05
 SMEAGOL DEBUG| Number of electrons in the unit cell =      1222.9608899745
   161 Broy./SMGL  0.30E+00   92.9     0.00359535     -3690.6352163438 -5.59E-05
 SMEAGOL DEBUG| Number of electrons in the unit cell =      1222.9608907032
   162 Broy./SMGL  0.30E+00   81.8     0.00359535     -3690.6351603103  5.60E-05
 SMEAGOL DEBUG| Number of electrons in the unit cell =      1222.9608902402
   163 Broy./SMGL  0.30E+00   93.7     0.00359536     -3690.6352169990 -5.67E-05
 SMEAGOL DEBUG| Number of electrons in the unit cell =      1222.9608904507
   164 Broy./SMGL  0.30E+00   89.5     0.00000018     -3690.6351603099  5.67E-05
 SMEAGOL DEBUG| Number of electrons in the unit cell =      1222.9608904249
   165 Broy./SMGL  0.30E+00   89.1     0.00000002     -3690.6351611032 -7.93E-07
 SMEAGOL DEBUG| Number of electrons in the unit cell =      1222.9608905740
   166 Broy./SMGL  0.30E+00   87.7     0.00359537     -3690.6351618976 -7.94E-07
 SMEAGOL DEBUG| Number of electrons in the unit cell =      1222.9608904794
   167 Broy./SMGL  0.30E+00   87.7     0.00359534     -3690.6352164021 -5.45E-05
 SMEAGOL DEBUG| Number of electrons in the unit cell =      1222.9608903881
   168 Broy./SMGL  0.30E+00   87.2     0.00359535     -3690.6351614309  5.50E-05
 SMEAGOL DEBUG| Number of electrons in the unit cell =      1222.9608903043
   169 Broy./SMGL  0.30E+00   84.2     0.00359534     -3690.6352157602 -5.43E-05
 SMEAGOL DEBUG| Number of electrons in the unit cell =      1222.9608904038
   170 Broy./SMGL  0.30E+00   92.2     0.00359535     -3690.6351607478  5.50E-05
 SMEAGOL DEBUG| Number of electrons in the unit cell =      1222.9608902261
   171 Broy./SMGL  0.30E+00   90.2     0.00359535     -3690.6352154185 -5.47E-05
 SMEAGOL DEBUG| Number of electrons in the unit cell =      1222.9608904176
   172 Broy./SMGL  0.30E+00   95.2     0.00359535     -3690.6351606092  5.48E-05
 SMEAGOL DEBUG| Number of electrons in the unit cell =      1222.9608903178
   173 Broy./SMGL  0.30E+00   86.2     0.00359537     -3690.6352158018 -5.52E-05
 SMEAGOL DEBUG| Number of electrons in the unit cell =      1222.9608905321
   174 Broy./SMGL  0.30E+00   87.1     0.00000015     -3690.6351605210  5.53E-05
 SMEAGOL DEBUG| Number of electrons in the unit cell =      1222.9608908787
   175 Broy./SMGL  0.30E+00   98.6     0.00359537     -3690.6351618979 -1.38E-06
 SMEAGOL DEBUG| Number of electrons in the unit cell =      1222.9608900257
   176 Broy./SMGL  0.30E+00   94.3     0.00359534     -3690.6352169752 -5.51E-05
 SMEAGOL DEBUG| Number of electrons in the unit cell =      1222.9608906036
   177 Broy./SMGL  0.30E+00   91.8     0.00359536     -3690.6351597539  5.72E-05
 SMEAGOL DEBUG| Number of electrons in the unit cell =      1222.9608907360
   178 Broy./SMGL  0.30E+00   91.0     0.00359540     -3690.6352171599 -5.74E-05
 SMEAGOL DEBUG| Number of electrons in the unit cell =      1222.9608896936
   179 Broy./SMGL  0.30E+00   90.3     0.00000056     -3690.6351601903  5.70E-05
 SMEAGOL DEBUG| Number of electrons in the unit cell =      1222.9608907780
   180 Broy./SMGL  0.30E+00   83.7     0.00359533     -3690.6351592075  9.83E-07
 SMEAGOL DEBUG| Number of electrons in the unit cell =      1222.9608900644
   181 Broy./SMGL  0.30E+00   84.4     0.00359534     -3690.6352165118 -5.73E-05
 SMEAGOL DEBUG| Number of electrons in the unit cell =      1222.9608906944
   182 Broy./SMGL  0.30E+00   88.6     0.00359535     -3690.6351597764  5.67E-05
 SMEAGOL DEBUG| Number of electrons in the unit cell =      1222.9608903364
   183 Broy./SMGL  0.30E+00   90.2     0.00359537     -3690.6352171714 -5.74E-05
 SMEAGOL DEBUG| Number of electrons in the unit cell =      1222.9608904724
   184 Broy./SMGL  0.30E+00   86.5     0.00000017     -3690.6351603420  5.68E-05
 SMEAGOL DEBUG| Number of electrons in the unit cell =      1222.9608907434
   185 Broy./SMGL  0.30E+00   84.0     0.00359536     -3690.6351621870 -1.84E-06
 SMEAGOL DEBUG| Number of electrons in the unit cell =      1222.9608904286
   186 Broy./SMGL  0.30E+00   84.8     0.00359532     -3690.6352164637 -5.43E-05
 SMEAGOL DEBUG| Number of electrons in the unit cell =      1222.9608904451
   187 Broy./SMGL  0.30E+00   87.3     0.00359534     -3690.6351615572  5.49E-05
 SMEAGOL DEBUG| Number of electrons in the unit cell =      1222.9608903147
   188 Broy./SMGL  0.30E+00   84.5     0.00359532     -3690.6352152575 -5.37E-05
 SMEAGOL DEBUG| Number of electrons in the unit cell =      1222.9608903824
   189 Broy./SMGL  0.30E+00   86.3     0.00359533     -3690.6351607412  5.45E-05
 SMEAGOL DEBUG| Number of electrons in the unit cell =      1222.9608903240
   190 Broy./SMGL  0.30E+00   83.2     0.00359533     -3690.6352149600 -5.42E-05
 SMEAGOL DEBUG| Number of electrons in the unit cell =      1222.9608901457
   191 Broy./SMGL  0.30E+00   87.7     0.00359537     -3690.6351598070  5.52E-05
 SMEAGOL DEBUG| Number of electrons in the unit cell =      1222.9608903182
   192 Broy./SMGL  0.30E+00   84.3     0.00359539     -3690.6352147704 -5.50E-05
 SMEAGOL DEBUG| Number of electrons in the unit cell =      1222.9608905046
   193 Broy./SMGL  0.30E+00   85.3     0.00000013     -3690.6351599366  5.48E-05
 SMEAGOL DEBUG| Number of electrons in the unit cell =      1222.9608906301
   194 Broy./SMGL  0.30E+00   86.2     0.00000011     -3690.6351607053 -7.69E-07
 SMEAGOL DEBUG| Number of electrons in the unit cell =      1222.9608908969
   195 Broy./SMGL  0.30E+00   82.3     0.00359535     -3690.6351627365 -2.03E-06
 SMEAGOL DEBUG| Number of electrons in the unit cell =      1222.9608901476
   196 Broy./SMGL  0.30E+00   91.9     0.00359531     -3690.6352167234 -5.40E-05
 SMEAGOL DEBUG| Number of electrons in the unit cell =      1222.9608906746
   197 Broy./SMGL  0.30E+00   83.2     0.00359533     -3690.6351604418  5.63E-05
 SMEAGOL DEBUG| Number of electrons in the unit cell =      1222.9608900868
   198 Broy./SMGL  0.30E+00   88.3     0.00359531     -3690.6352155394 -5.51E-05
 SMEAGOL DEBUG| Number of electrons in the unit cell =      1222.9608905358
   199 Broy./SMGL  0.30E+00   89.1     0.00359532     -3690.6351597006  5.58E-05
 SMEAGOL DEBUG| Number of electrons in the unit cell =      1222.9608900741
   200 Broy./SMGL  0.30E+00   84.4     0.00359531     -3690.6352148779 -5.52E-05
 SMEAGOL DEBUG| Number of electrons in the unit cell =      1222.9608905256
   201 Broy./SMGL  0.30E+00   84.4     0.00359532     -3690.6351593791  5.55E-05
 SMEAGOL DEBUG| Number of electrons in the unit cell =      1222.9608902889
   202 Broy./SMGL  0.30E+00   87.7     0.00359535     -3690.6352160080 -5.66E-05
 SMEAGOL DEBUG| Number of electrons in the unit cell =      1222.9608905329
   203 Broy./SMGL  0.30E+00   89.4     0.00000025     -3690.6351597968  5.62E-05
 SMEAGOL DEBUG| Number of electrons in the unit cell =      1222.9608906597
   204 Broy./SMGL  0.30E+00   84.8     0.00359538     -3690.6351611736 -1.38E-06
 SMEAGOL DEBUG| Number of electrons in the unit cell =      1222.9608904214
   205 Broy./SMGL  0.30E+00   82.2     0.00359537     -3690.6352169375 -5.58E-05
 SMEAGOL DEBUG| Number of electrons in the unit cell =      1222.9608904791
   206 Broy./SMGL  0.30E+00   84.7     0.00000004     -3690.6351602137  5.67E-05
 SMEAGOL DEBUG| Number of electrons in the unit cell =      1222.9608908442
   207 Broy./SMGL  0.30E+00   90.0     0.00359534     -3690.6351620519 -1.84E-06
 SMEAGOL DEBUG| Number of electrons in the unit cell =      1222.9608902077
   208 Broy./SMGL  0.30E+00   88.6     0.00359531     -3690.6352165820 -5.45E-05
 SMEAGOL DEBUG| Number of electrons in the unit cell =      1222.9608906551
   209 Broy./SMGL  0.30E+00   84.1     0.00359533     -3690.6351603917  5.62E-05
 SMEAGOL DEBUG| Number of electrons in the unit cell =      1222.9608900830
   210 Broy./SMGL  0.30E+00   89.8     0.00359531     -3690.6352154854 -5.51E-05
 SMEAGOL DEBUG| Number of electrons in the unit cell =      1222.9608906155
   211 Broy./SMGL  0.30E+00   84.3     0.00359532     -3690.6351595658  5.59E-05
 SMEAGOL DEBUG| Number of electrons in the unit cell =      1222.9608903600
   212 Broy./SMGL  0.30E+00   87.4     0.00359536     -3690.6352166810 -5.71E-05
 SMEAGOL DEBUG| Number of electrons in the unit cell =      1222.9608905669
   213 Broy./SMGL  0.30E+00   88.4     0.00000022     -3690.6351603999  5.63E-05
 SMEAGOL DEBUG| Number of electrons in the unit cell =      1222.9608909151
   214 Broy./SMGL  0.30E+00   85.0     0.00359534     -3690.6351630742 -2.67E-06
 SMEAGOL DEBUG| Number of electrons in the unit cell =      1222.9608902951
   215 Broy./SMGL  0.30E+00   87.1     0.00359530     -3690.6352174752 -5.44E-05
 SMEAGOL DEBUG| Number of electrons in the unit cell =      1222.9608907006
   216 Broy./SMGL  0.30E+00   87.0     0.00359533     -3690.6351609573  5.65E-05
 SMEAGOL DEBUG| Number of electrons in the unit cell =      1222.9608901022
   217 Broy./SMGL  0.30E+00   88.8     0.00359531     -3690.6352161314 -5.52E-05
 SMEAGOL DEBUG| Number of electrons in the unit cell =      1222.9608906209
   218 Broy./SMGL  0.30E+00   94.9     0.00000051     -3690.6351590616  5.71E-05
 SMEAGOL DEBUG| Number of electrons in the unit cell =      1222.9608906916
   219 Broy./SMGL  0.30E+00   87.3     0.00359536     -3690.6351624064 -3.34E-06
 SMEAGOL DEBUG| Number of electrons in the unit cell =      1222.9608901199
   220 Broy./SMGL  0.30E+00   93.6     0.00359530     -3690.6352157927 -5.34E-05
 SMEAGOL DEBUG| Number of electrons in the unit cell =      1222.9608906161
   221 Broy./SMGL  0.30E+00   84.7     0.00359531     -3690.6351598489  5.59E-05
 SMEAGOL DEBUG| Number of electrons in the unit cell =      1222.9608903485
   222 Broy./SMGL  0.30E+00   87.7     0.00359535     -3690.6352168066 -5.70E-05
 SMEAGOL DEBUG| Number of electrons in the unit cell =      1222.9608905599
