 # Version information for this restart file 
 # current date 2024-01-12 20:15:27.849
 # current working dir /gpfs/home/cahart/transport/melamine/au_from-h2/ci-neb/ts1/dft_leads-sz_tip-dzvp_surf-dzvp_kpoints-2-4-20_replicas-3
 # Program compiled at                              Thu 21 Sep 19:20:17 BST 2023
 # Program compiled on                                           hx1-c12-login-1
 # Program compiled for                                                    local
 # Source code revision number                                       git:5518aa6
 &GLOBAL
   EXTENDED_FFT_LENGTHS  T
   PRINT_LEVEL  MEDIUM
   PROJECT_NAME 2_dft_wfn-r-0
   OUTPUT_FILE_NAME 2_dft_wfn-r-0.out
   RUN_TYPE  BAND
 &END GLOBAL
 &MOTION
   &BAND
     NPROC_REP  64
     BAND_TYPE  CI-NEB
     NUMBER_OF_REPLICA  3
     K_SPRING     5.0000000000000003E-02
     &CI_NEB
       NSTEPS_IT  5
     &END CI_NEB
     &OPTIMIZE_BAND
       OPT_TYPE  DIIS
       &DIIS
         MAX_STEPS  1000
       &END DIIS
     &END OPTIMIZE_BAND
     &REPLICA
       &COORD
             0.0000000000000000E+00    0.0000000000000000E+00    0.0000000000000000E+00
             0.0000000000000000E+00    2.9550000000000027E+00    0.0000000000000000E+00
             0.0000000000000000E+00    5.9110000000000085E+00    0.0000000000000000E+00
             2.9560000000000048E+00    0.0000000000000000E+00    0.0000000000000000E+00
             2.9560000000000048E+00    2.9550000000000027E+00    0.0000000000000000E+00
             2.9560000000000048E+00    5.9110000000000085E+00    0.0000000000000000E+00
             5.9120000000000097E+00    0.0000000000000000E+00    0.0000000000000000E+00
             5.9120000000000097E+00    2.9550000000000027E+00    0.0000000000000000E+00
             5.9120000000000097E+00    5.9110000000000085E+00    0.0000000000000000E+00
             8.6700000000000141E+00    0.0000000000000000E+00    0.0000000000000000E+00
             8.6700000000000141E+00    2.9550000000000027E+00    0.0000000000000000E+00
             8.6700000000000141E+00    5.9110000000000085E+00    0.0000000000000000E+00
             1.1626000000000001E+01    0.0000000000000000E+00    0.0000000000000000E+00
             1.1626000000000001E+01    2.9550000000000027E+00    0.0000000000000000E+00
             1.1626000000000001E+01    5.9110000000000085E+00    0.0000000000000000E+00
             1.4780000000000024E+00    1.4780000000000024E+00    2.0900000000000012E+00
             1.4780000000000024E+00    4.4329999999999998E+00    2.0900000000000012E+00
             1.4780000000000024E+00    7.3890000000000065E+00    2.0900000000000012E+00
             4.4340000000000073E+00    1.4780000000000024E+00    2.0900000000000012E+00
             4.4340000000000073E+00    4.4329999999999998E+00    2.0900000000000012E+00
             4.4340000000000073E+00    7.3890000000000065E+00    2.0900000000000012E+00
             7.1920000000000046E+00    1.4780000000000024E+00    2.0900000000000012E+00
             7.1920000000000046E+00    4.4329999999999998E+00    2.0900000000000012E+00
             7.1920000000000046E+00    7.3890000000000065E+00    2.0900000000000012E+00
             1.0147999999999998E+01    1.4780000000000024E+00    2.0900000000000012E+00
             1.0147999999999998E+01    4.4329999999999998E+00    2.0900000000000012E+00
             1.0147999999999998E+01    7.3890000000000065E+00    2.0900000000000012E+00
             1.3104000000000019E+01    1.4780000000000024E+00    2.0900000000000012E+00
             1.3104000000000019E+01    4.4329999999999998E+00    2.0900000000000012E+00
             1.3104000000000019E+01    7.3890000000000065E+00    2.0900000000000012E+00
             0.0000000000000000E+00    0.0000000000000000E+00    4.1800000000000024E+00
             0.0000000000000000E+00    2.9550000000000027E+00    4.1800000000000024E+00
             0.0000000000000000E+00    5.9110000000000085E+00    4.1800000000000024E+00
             2.9560000000000048E+00    0.0000000000000000E+00    4.1800000000000024E+00
             2.9560000000000048E+00    2.9550000000000027E+00    4.1800000000000024E+00
             2.9560000000000048E+00    5.9110000000000085E+00    4.1800000000000024E+00
             5.9120000000000097E+00    0.0000000000000000E+00    4.1800000000000024E+00
             5.9120000000000097E+00    2.9550000000000027E+00    4.1800000000000024E+00
             5.9120000000000097E+00    5.9110000000000085E+00    4.1800000000000024E+00
             8.6700000000000141E+00    0.0000000000000000E+00    4.1800000000000024E+00
             8.6700000000000141E+00    2.9550000000000027E+00    4.1800000000000024E+00
             8.6700000000000141E+00    5.9110000000000085E+00    4.1800000000000024E+00
             1.1626000000000001E+01    0.0000000000000000E+00    4.1800000000000024E+00
             1.1626000000000001E+01    2.9550000000000027E+00    4.1800000000000024E+00
             1.1626000000000001E+01    5.9110000000000085E+00    4.1800000000000024E+00
             1.4780000000000024E+00    1.4780000000000024E+00    6.2700000000000156E+00
             1.4780000000000024E+00    4.4329999999999998E+00    6.2700000000000156E+00
             1.4780000000000024E+00    7.3890000000000065E+00    6.2700000000000156E+00
             4.4340000000000073E+00    1.4780000000000024E+00    6.2700000000000156E+00
             4.4340000000000073E+00    4.4329999999999998E+00    6.2700000000000156E+00
             4.4340000000000073E+00    7.3890000000000065E+00    6.2700000000000156E+00
             7.1920000000000046E+00    1.4780000000000024E+00    6.2700000000000156E+00
             7.1920000000000046E+00    4.4329999999999998E+00    6.2700000000000156E+00
             7.1920000000000046E+00    7.3890000000000065E+00    6.2700000000000156E+00
             1.0147999999999998E+01    1.4780000000000024E+00    6.2700000000000156E+00
             1.0147999999999998E+01    4.4329999999999998E+00    6.2700000000000156E+00
             1.0147999999999998E+01    7.3890000000000065E+00    6.2700000000000156E+00
             1.3104000000000019E+01    1.4780000000000024E+00    6.2700000000000156E+00
             1.3104000000000019E+01    4.4329999999999998E+00    6.2700000000000156E+00
             1.3104000000000019E+01    7.3890000000000065E+00    6.2700000000000156E+00
             0.0000000000000000E+00    0.0000000000000000E+00    8.3600000000000048E+00
             0.0000000000000000E+00    2.9550000000000027E+00    8.3600000000000048E+00
             0.0000000000000000E+00    5.9110000000000085E+00    8.3600000000000048E+00
             2.9560000000000048E+00    0.0000000000000000E+00    8.3600000000000048E+00
             2.9560000000000048E+00    2.9550000000000027E+00    8.3600000000000048E+00
             2.9560000000000048E+00    5.9110000000000085E+00    8.3600000000000048E+00
             5.9120000000000097E+00    0.0000000000000000E+00    8.3600000000000048E+00
             5.9120000000000097E+00    2.9550000000000027E+00    8.3600000000000048E+00
             5.9120000000000097E+00    5.9110000000000085E+00    8.3600000000000048E+00
             8.6700000000000141E+00    0.0000000000000000E+00    8.3600000000000048E+00
             8.6700000000000141E+00    2.9550000000000027E+00    8.3600000000000048E+00
             8.6700000000000141E+00    5.9110000000000085E+00    8.3600000000000048E+00
             1.1626000000000001E+01    0.0000000000000000E+00    8.3600000000000048E+00
             1.1626000000000001E+01    2.9550000000000027E+00    8.3600000000000048E+00
             1.1626000000000001E+01    5.9110000000000085E+00    8.3600000000000048E+00
             1.4780000000000024E+00    1.4780000000000024E+00    1.0450000000000008E+01
             1.4780000000000024E+00    4.4329999999999998E+00    1.0450000000000008E+01
             1.4780000000000024E+00    7.3890000000000065E+00    1.0450000000000008E+01
             4.4340000000000073E+00    1.4780000000000024E+00    1.0450000000000008E+01
             4.4340000000000073E+00    4.4329999999999998E+00    1.0450000000000008E+01
             4.4340000000000073E+00    7.3890000000000065E+00    1.0450000000000008E+01
             7.1920000000000046E+00    1.4780000000000024E+00    1.0450000000000008E+01
             7.1920000000000046E+00    4.4329999999999998E+00    1.0450000000000008E+01
             7.1920000000000046E+00    7.3890000000000065E+00    1.0450000000000008E+01
             1.0147999999999998E+01    1.4780000000000024E+00    1.0450000000000008E+01
             1.0147999999999998E+01    4.4329999999999998E+00    1.0450000000000008E+01
             1.0147999999999998E+01    7.3890000000000065E+00    1.0450000000000008E+01
             1.3104000000000019E+01    1.4780000000000024E+00    1.0450000000000008E+01
             1.3104000000000019E+01    4.4329999999999998E+00    1.0450000000000008E+01
             1.3104000000000019E+01    7.3890000000000065E+00    1.0450000000000008E+01
             4.8554000000000093E+00    5.9119000000000037E+00    1.2031800000000008E+01
             9.5280000000000076E+00    5.9137000000000102E+00    1.2034000000000015E+01
             7.1920000000000046E+00    5.9340000000000099E+00    1.2040000000000024E+01
             4.0750319168000031E+00    5.9049488170000020E+00    1.2696844061800016E+01
             1.0293988349500006E+01    5.9062142779000055E+00    1.2716532694500010E+01
             6.0099999686000105E+00    5.9120523853000000E+00    1.2765819797400011E+01
             8.3750478948000069E+00    5.9129627335000041E+00    1.2760746495900008E+01
             8.4047327065000115E+00    5.8893877816000009E+00    1.4094060897199995E+01
             5.9788500869000059E+00    5.8882515165000058E+00    1.4094239568500006E+01
             7.1943473363000008E+00    5.8799164377000031E+00    1.4701118490299999E+01
             7.1912293097000051E+00    5.8521058221000040E+00    1.6050622658199988E+01
             6.3086348447000047E+00    5.8615539361000044E+00    1.6548439365000011E+01
             8.0709262665000150E+00    5.8621389354000071E+00    1.6553588809700027E+01
             7.3119999999999994E+00    5.9340000000000099E+00    2.1043000000000017E+01
             5.8130000000000006E+00    7.4340000000000064E+00    2.2992000000000015E+01
             8.8130000000000042E+00    4.4340000000000073E+00    2.2992000000000015E+01
             5.8130000000000006E+00    4.4329999999999998E+00    2.2992000000000015E+01
             8.8130000000000042E+00    7.4340000000000064E+00    2.2992000000000015E+01
             1.4780000000000024E+00    1.4780000000000024E+00    2.5081999999999990E+01
             1.4780000000000024E+00    4.4329999999999998E+00    2.5081999999999990E+01
             1.4780000000000024E+00    7.3890000000000065E+00    2.5081999999999990E+01
             4.4340000000000073E+00    1.4780000000000024E+00    2.5081999999999990E+01
             4.4340000000000073E+00    4.4329999999999998E+00    2.5081999999999990E+01
             4.4340000000000073E+00    7.3890000000000065E+00    2.5081999999999990E+01
             7.1920000000000046E+00    1.4780000000000024E+00    2.5081999999999990E+01
             7.1920000000000046E+00    4.4329999999999998E+00    2.5081999999999990E+01
             7.1920000000000046E+00    7.3890000000000065E+00    2.5081999999999990E+01
             1.0147999999999998E+01    1.4780000000000024E+00    2.5081999999999990E+01
             1.0147999999999998E+01    4.4329999999999998E+00    2.5081999999999990E+01
             1.0147999999999998E+01    7.3890000000000065E+00    2.5081999999999990E+01
             1.3104000000000019E+01    1.4780000000000024E+00    2.5081999999999990E+01
             1.3104000000000019E+01    4.4329999999999998E+00    2.5081999999999990E+01
             1.3104000000000019E+01    7.3890000000000065E+00    2.5081999999999990E+01
             0.0000000000000000E+00    0.0000000000000000E+00    2.7172000000000025E+01
             0.0000000000000000E+00    2.9550000000000027E+00    2.7172000000000025E+01
             0.0000000000000000E+00    5.9110000000000085E+00    2.7172000000000025E+01
             2.9560000000000048E+00    0.0000000000000000E+00    2.7172000000000025E+01
             2.9560000000000048E+00    2.9550000000000027E+00    2.7172000000000025E+01
             2.9560000000000048E+00    5.9110000000000085E+00    2.7172000000000025E+01
             5.9120000000000097E+00    0.0000000000000000E+00    2.7172000000000025E+01
             5.9120000000000097E+00    2.9550000000000027E+00    2.7172000000000025E+01
             5.9120000000000097E+00    5.9110000000000085E+00    2.7172000000000025E+01
             8.6700000000000141E+00    0.0000000000000000E+00    2.7172000000000025E+01
             8.6700000000000141E+00    2.9550000000000027E+00    2.7172000000000025E+01
             8.6700000000000141E+00    5.9110000000000085E+00    2.7172000000000025E+01
             1.1626000000000001E+01    0.0000000000000000E+00    2.7172000000000025E+01
             1.1626000000000001E+01    2.9550000000000027E+00    2.7172000000000025E+01
             1.1626000000000001E+01    5.9110000000000085E+00    2.7172000000000025E+01
             1.4780000000000024E+00    1.4780000000000024E+00    2.9262000000000036E+01
             1.4780000000000024E+00    4.4329999999999998E+00    2.9262000000000036E+01
             1.4780000000000024E+00    7.3890000000000065E+00    2.9262000000000036E+01
             4.4340000000000073E+00    1.4780000000000024E+00    2.9262000000000036E+01
             4.4340000000000073E+00    4.4329999999999998E+00    2.9262000000000036E+01
             4.4340000000000073E+00    7.3890000000000065E+00    2.9262000000000036E+01
             7.1920000000000046E+00    1.4780000000000024E+00    2.9262000000000036E+01
             7.1920000000000046E+00    4.4329999999999998E+00    2.9262000000000036E+01
             7.1920000000000046E+00    7.3890000000000065E+00    2.9262000000000036E+01
             1.0147999999999998E+01    1.4780000000000024E+00    2.9262000000000036E+01
             1.0147999999999998E+01    4.4329999999999998E+00    2.9262000000000036E+01
             1.0147999999999998E+01    7.3890000000000065E+00    2.9262000000000036E+01
             1.3104000000000019E+01    1.4780000000000024E+00    2.9262000000000036E+01
             1.3104000000000019E+01    4.4329999999999998E+00    2.9262000000000036E+01
             1.3104000000000019E+01    7.3890000000000065E+00    2.9262000000000036E+01
             0.0000000000000000E+00    0.0000000000000000E+00    3.1351999999999997E+01
             0.0000000000000000E+00    2.9550000000000027E+00    3.1351999999999997E+01
             0.0000000000000000E+00    5.9110000000000085E+00    3.1351999999999997E+01
             2.9560000000000048E+00    0.0000000000000000E+00    3.1351999999999997E+01
             2.9560000000000048E+00    2.9550000000000027E+00    3.1351999999999997E+01
             2.9560000000000048E+00    5.9110000000000085E+00    3.1351999999999997E+01
             5.9120000000000097E+00    0.0000000000000000E+00    3.1351999999999997E+01
             5.9120000000000097E+00    2.9550000000000027E+00    3.1351999999999997E+01
             5.9120000000000097E+00    5.9110000000000085E+00    3.1351999999999997E+01
             8.6700000000000141E+00    0.0000000000000000E+00    3.1351999999999997E+01
             8.6700000000000141E+00    2.9550000000000027E+00    3.1351999999999997E+01
             8.6700000000000141E+00    5.9110000000000085E+00    3.1351999999999997E+01
             1.1626000000000001E+01    0.0000000000000000E+00    3.1351999999999997E+01
             1.1626000000000001E+01    2.9550000000000027E+00    3.1351999999999997E+01
             1.1626000000000001E+01    5.9110000000000085E+00    3.1351999999999997E+01
             1.4780000000000024E+00    1.4780000000000024E+00    3.3442000000000007E+01
             1.4780000000000024E+00    4.4329999999999998E+00    3.3442000000000007E+01
             1.4780000000000024E+00    7.3890000000000065E+00    3.3442000000000007E+01
             4.4340000000000073E+00    1.4780000000000024E+00    3.3442000000000007E+01
             4.4340000000000073E+00    4.4329999999999998E+00    3.3442000000000007E+01
             4.4340000000000073E+00    7.3890000000000065E+00    3.3442000000000007E+01
             7.1920000000000046E+00    1.4780000000000024E+00    3.3442000000000007E+01
             7.1920000000000046E+00    4.4329999999999998E+00    3.3442000000000007E+01
             7.1920000000000046E+00    7.3890000000000065E+00    3.3442000000000007E+01
             1.0147999999999998E+01    1.4780000000000024E+00    3.3442000000000007E+01
             1.0147999999999998E+01    4.4329999999999998E+00    3.3442000000000007E+01
             1.0147999999999998E+01    7.3890000000000065E+00    3.3442000000000007E+01
             1.3104000000000019E+01    1.4780000000000024E+00    3.3442000000000007E+01
             1.3104000000000019E+01    4.4329999999999998E+00    3.3442000000000007E+01
             1.3104000000000019E+01    7.3890000000000065E+00    3.3442000000000007E+01
       &END COORD
       &VELOCITY
             0.0000000000000000E+00    0.0000000000000000E+00    0.0000000000000000E+00
             0.0000000000000000E+00    0.0000000000000000E+00    0.0000000000000000E+00
             0.0000000000000000E+00    0.0000000000000000E+00    0.0000000000000000E+00
             0.0000000000000000E+00    0.0000000000000000E+00    0.0000000000000000E+00
             0.0000000000000000E+00    0.0000000000000000E+00    0.0000000000000000E+00
             0.0000000000000000E+00    0.0000000000000000E+00    0.0000000000000000E+00
             0.0000000000000000E+00    0.0000000000000000E+00    0.0000000000000000E+00
             0.0000000000000000E+00    0.0000000000000000E+00    0.0000000000000000E+00
             0.0000000000000000E+00    0.0000000000000000E+00    0.0000000000000000E+00
             0.0000000000000000E+00    0.0000000000000000E+00    0.0000000000000000E+00
             0.0000000000000000E+00    0.0000000000000000E+00    0.0000000000000000E+00
             0.0000000000000000E+00    0.0000000000000000E+00    0.0000000000000000E+00
             0.0000000000000000E+00    0.0000000000000000E+00    0.0000000000000000E+00
             0.0000000000000000E+00    0.0000000000000000E+00    0.0000000000000000E+00
             0.0000000000000000E+00    0.0000000000000000E+00    0.0000000000000000E+00
             0.0000000000000000E+00    0.0000000000000000E+00    0.0000000000000000E+00
             0.0000000000000000E+00    0.0000000000000000E+00    0.0000000000000000E+00
             0.0000000000000000E+00    0.0000000000000000E+00    0.0000000000000000E+00
             0.0000000000000000E+00    0.0000000000000000E+00    0.0000000000000000E+00
             0.0000000000000000E+00    0.0000000000000000E+00    0.0000000000000000E+00
             0.0000000000000000E+00    0.0000000000000000E+00    0.0000000000000000E+00
             0.0000000000000000E+00    0.0000000000000000E+00    0.0000000000000000E+00
             0.0000000000000000E+00    0.0000000000000000E+00    0.0000000000000000E+00
             0.0000000000000000E+00    0.0000000000000000E+00    0.0000000000000000E+00
             0.0000000000000000E+00    0.0000000000000000E+00    0.0000000000000000E+00
             0.0000000000000000E+00    0.0000000000000000E+00    0.0000000000000000E+00
             0.0000000000000000E+00    0.0000000000000000E+00    0.0000000000000000E+00
             0.0000000000000000E+00    0.0000000000000000E+00    0.0000000000000000E+00
             0.0000000000000000E+00    0.0000000000000000E+00    0.0000000000000000E+00
             0.0000000000000000E+00    0.0000000000000000E+00    0.0000000000000000E+00
             0.0000000000000000E+00    0.0000000000000000E+00    0.0000000000000000E+00
             0.0000000000000000E+00    0.0000000000000000E+00    0.0000000000000000E+00
             0.0000000000000000E+00    0.0000000000000000E+00    0.0000000000000000E+00
             0.0000000000000000E+00    0.0000000000000000E+00    0.0000000000000000E+00
             0.0000000000000000E+00    0.0000000000000000E+00    0.0000000000000000E+00
             0.0000000000000000E+00    0.0000000000000000E+00    0.0000000000000000E+00
             0.0000000000000000E+00    0.0000000000000000E+00    0.0000000000000000E+00
             0.0000000000000000E+00    0.0000000000000000E+00    0.0000000000000000E+00
             0.0000000000000000E+00    0.0000000000000000E+00    0.0000000000000000E+00
             0.0000000000000000E+00    0.0000000000000000E+00    0.0000000000000000E+00
             0.0000000000000000E+00    0.0000000000000000E+00    0.0000000000000000E+00
             0.0000000000000000E+00    0.0000000000000000E+00    0.0000000000000000E+00
             0.0000000000000000E+00    0.0000000000000000E+00    0.0000000000000000E+00
             0.0000000000000000E+00    0.0000000000000000E+00    0.0000000000000000E+00
             0.0000000000000000E+00    0.0000000000000000E+00    0.0000000000000000E+00
             0.0000000000000000E+00    0.0000000000000000E+00    0.0000000000000000E+00
             0.0000000000000000E+00    0.0000000000000000E+00    0.0000000000000000E+00
             0.0000000000000000E+00    0.0000000000000000E+00    0.0000000000000000E+00
             0.0000000000000000E+00    0.0000000000000000E+00    0.0000000000000000E+00
             0.0000000000000000E+00    0.0000000000000000E+00    0.0000000000000000E+00
             0.0000000000000000E+00    0.0000000000000000E+00    0.0000000000000000E+00
             0.0000000000000000E+00    0.0000000000000000E+00    0.0000000000000000E+00
             0.0000000000000000E+00    0.0000000000000000E+00    0.0000000000000000E+00
             0.0000000000000000E+00    0.0000000000000000E+00    0.0000000000000000E+00
             0.0000000000000000E+00    0.0000000000000000E+00    0.0000000000000000E+00
             0.0000000000000000E+00    0.0000000000000000E+00    0.0000000000000000E+00
             0.0000000000000000E+00    0.0000000000000000E+00    0.0000000000000000E+00
             0.0000000000000000E+00    0.0000000000000000E+00    0.0000000000000000E+00
             0.0000000000000000E+00    0.0000000000000000E+00    0.0000000000000000E+00
             0.0000000000000000E+00    0.0000000000000000E+00    0.0000000000000000E+00
             0.0000000000000000E+00    0.0000000000000000E+00    0.0000000000000000E+00
             0.0000000000000000E+00    0.0000000000000000E+00    0.0000000000000000E+00
             0.0000000000000000E+00    0.0000000000000000E+00    0.0000000000000000E+00
             0.0000000000000000E+00    0.0000000000000000E+00    0.0000000000000000E+00
             0.0000000000000000E+00    0.0000000000000000E+00    0.0000000000000000E+00
             0.0000000000000000E+00    0.0000000000000000E+00    0.0000000000000000E+00
             0.0000000000000000E+00    0.0000000000000000E+00    0.0000000000000000E+00
             0.0000000000000000E+00    0.0000000000000000E+00    0.0000000000000000E+00
             0.0000000000000000E+00    0.0000000000000000E+00    0.0000000000000000E+00
             0.0000000000000000E+00    0.0000000000000000E+00    0.0000000000000000E+00
             0.0000000000000000E+00    0.0000000000000000E+00    0.0000000000000000E+00
             0.0000000000000000E+00    0.0000000000000000E+00    0.0000000000000000E+00
             0.0000000000000000E+00    0.0000000000000000E+00    0.0000000000000000E+00
             0.0000000000000000E+00    0.0000000000000000E+00    0.0000000000000000E+00
             0.0000000000000000E+00    0.0000000000000000E+00    0.0000000000000000E+00
             0.0000000000000000E+00    0.0000000000000000E+00    0.0000000000000000E+00
             0.0000000000000000E+00    0.0000000000000000E+00    0.0000000000000000E+00
             0.0000000000000000E+00    0.0000000000000000E+00    0.0000000000000000E+00
             0.0000000000000000E+00    0.0000000000000000E+00    0.0000000000000000E+00
             0.0000000000000000E+00    0.0000000000000000E+00    0.0000000000000000E+00
             0.0000000000000000E+00    0.0000000000000000E+00    0.0000000000000000E+00
             0.0000000000000000E+00    0.0000000000000000E+00    0.0000000000000000E+00
             0.0000000000000000E+00    0.0000000000000000E+00    0.0000000000000000E+00
             0.0000000000000000E+00    0.0000000000000000E+00    0.0000000000000000E+00
             0.0000000000000000E+00    0.0000000000000000E+00    0.0000000000000000E+00
             0.0000000000000000E+00    0.0000000000000000E+00    0.0000000000000000E+00
             0.0000000000000000E+00    0.0000000000000000E+00    0.0000000000000000E+00
             0.0000000000000000E+00    0.0000000000000000E+00    0.0000000000000000E+00
             0.0000000000000000E+00    0.0000000000000000E+00    0.0000000000000000E+00
             0.0000000000000000E+00    0.0000000000000000E+00    0.0000000000000000E+00
             0.0000000000000000E+00    0.0000000000000000E+00    0.0000000000000000E+00
             0.0000000000000000E+00    0.0000000000000000E+00    0.0000000000000000E+00
             0.0000000000000000E+00    0.0000000000000000E+00    0.0000000000000000E+00
             0.0000000000000000E+00    0.0000000000000000E+00    0.0000000000000000E+00
             0.0000000000000000E+00    0.0000000000000000E+00    0.0000000000000000E+00
             0.0000000000000000E+00    0.0000000000000000E+00    0.0000000000000000E+00
             0.0000000000000000E+00    0.0000000000000000E+00    0.0000000000000000E+00
             0.0000000000000000E+00    0.0000000000000000E+00    0.0000000000000000E+00
             0.0000000000000000E+00    0.0000000000000000E+00    0.0000000000000000E+00
             0.0000000000000000E+00    0.0000000000000000E+00    0.0000000000000000E+00
             0.0000000000000000E+00    0.0000000000000000E+00    0.0000000000000000E+00
             0.0000000000000000E+00    0.0000000000000000E+00    0.0000000000000000E+00
             0.0000000000000000E+00    0.0000000000000000E+00    0.0000000000000000E+00
             0.0000000000000000E+00    0.0000000000000000E+00    0.0000000000000000E+00
             0.0000000000000000E+00    0.0000000000000000E+00    0.0000000000000000E+00
             0.0000000000000000E+00    0.0000000000000000E+00    0.0000000000000000E+00
             0.0000000000000000E+00    0.0000000000000000E+00    0.0000000000000000E+00
             0.0000000000000000E+00    0.0000000000000000E+00    0.0000000000000000E+00
             0.0000000000000000E+00    0.0000000000000000E+00    0.0000000000000000E+00
             0.0000000000000000E+00    0.0000000000000000E+00    0.0000000000000000E+00
             0.0000000000000000E+00    0.0000000000000000E+00    0.0000000000000000E+00
             0.0000000000000000E+00    0.0000000000000000E+00    0.0000000000000000E+00
             0.0000000000000000E+00    0.0000000000000000E+00    0.0000000000000000E+00
             0.0000000000000000E+00    0.0000000000000000E+00    0.0000000000000000E+00
             0.0000000000000000E+00    0.0000000000000000E+00    0.0000000000000000E+00
             0.0000000000000000E+00    0.0000000000000000E+00    0.0000000000000000E+00
             0.0000000000000000E+00    0.0000000000000000E+00    0.0000000000000000E+00
             0.0000000000000000E+00    0.0000000000000000E+00    0.0000000000000000E+00
             0.0000000000000000E+00    0.0000000000000000E+00    0.0000000000000000E+00
             0.0000000000000000E+00    0.0000000000000000E+00    0.0000000000000000E+00
             0.0000000000000000E+00    0.0000000000000000E+00    0.0000000000000000E+00
             0.0000000000000000E+00    0.0000000000000000E+00    0.0000000000000000E+00
             0.0000000000000000E+00    0.0000000000000000E+00    0.0000000000000000E+00
             0.0000000000000000E+00    0.0000000000000000E+00    0.0000000000000000E+00
             0.0000000000000000E+00    0.0000000000000000E+00    0.0000000000000000E+00
             0.0000000000000000E+00    0.0000000000000000E+00    0.0000000000000000E+00
             0.0000000000000000E+00    0.0000000000000000E+00    0.0000000000000000E+00
             0.0000000000000000E+00    0.0000000000000000E+00    0.0000000000000000E+00
             0.0000000000000000E+00    0.0000000000000000E+00    0.0000000000000000E+00
             0.0000000000000000E+00    0.0000000000000000E+00    0.0000000000000000E+00
             0.0000000000000000E+00    0.0000000000000000E+00    0.0000000000000000E+00
             0.0000000000000000E+00    0.0000000000000000E+00    0.0000000000000000E+00
             0.0000000000000000E+00    0.0000000000000000E+00    0.0000000000000000E+00
             0.0000000000000000E+00    0.0000000000000000E+00    0.0000000000000000E+00
             0.0000000000000000E+00    0.0000000000000000E+00    0.0000000000000000E+00
             0.0000000000000000E+00    0.0000000000000000E+00    0.0000000000000000E+00
             0.0000000000000000E+00    0.0000000000000000E+00    0.0000000000000000E+00
             0.0000000000000000E+00    0.0000000000000000E+00    0.0000000000000000E+00
             0.0000000000000000E+00    0.0000000000000000E+00    0.0000000000000000E+00
             0.0000000000000000E+00    0.0000000000000000E+00    0.0000000000000000E+00
             0.0000000000000000E+00    0.0000000000000000E+00    0.0000000000000000E+00
             0.0000000000000000E+00    0.0000000000000000E+00    0.0000000000000000E+00
             0.0000000000000000E+00    0.0000000000000000E+00    0.0000000000000000E+00
             0.0000000000000000E+00    0.0000000000000000E+00    0.0000000000000000E+00
             0.0000000000000000E+00    0.0000000000000000E+00    0.0000000000000000E+00