 # Version information for this restart file 
 # current date 2024-01-12 18:08:13.552
 # current working dir /gpfs/home/cahart/transport/melamine/au_from-h2/ci-neb/ts1/dft_leads-sz_tip-dzvp_surf-dzvp_kpoints-2-4-20_replicas-3
 # Program compiled at                              Thu 21 Sep 19:20:17 BST 2023
 # Program compiled on                                           hx1-c12-login-1
 # Program compiled for                                                    local
 # Source code revision number                                       git:5518aa6
 &GLOBAL
   EXTENDED_FFT_LENGTHS  T
   PRINT_LEVEL  MEDIUM
   PROJECT_NAME 2_dft_wfn-r-0
   OUTPUT_FILE_NAME 2_dft_wfn-r-0.out
   RUN_TYPE  BAND
 &END GLOBAL
 &MOTION
   &BAND
     NPROC_REP  64
     BAND_TYPE  CI-NEB
     NUMBER_OF_REPLICA  3
     K_SPRING     5.0000000000000003E-02
     &CI_NEB
       NSTEPS_IT  5
     &END CI_NEB
     &OPTIMIZE_BAND
       OPT_TYPE  DIIS
       &DIIS
         MAX_STEPS  1000
       &END DIIS
     &END OPTIMIZE_BAND
     &REPLICA
       &COORD
             0.0000000000000000E+00    0.0000000000000000E+00    0.0000000000000000E+00
             0.0000000000000000E+00    2.9549999999999903E+00    0.0000000000000000E+00
             0.0000000000000000E+00    5.9109999999999827E+00    0.0000000000000000E+00
             2.9559999999999915E+00    0.0000000000000000E+00    0.0000000000000000E+00
             2.9559999999999915E+00    2.9549999999999903E+00    0.0000000000000000E+00
             2.9559999999999915E+00    5.9109999999999827E+00    0.0000000000000000E+00
             5.9119999999999830E+00    0.0000000000000000E+00    0.0000000000000000E+00
             5.9119999999999830E+00    2.9549999999999903E+00    0.0000000000000000E+00
             5.9119999999999830E+00    5.9109999999999827E+00    0.0000000000000000E+00
             8.6699999999999768E+00    0.0000000000000000E+00    0.0000000000000000E+00
             8.6699999999999768E+00    2.9549999999999903E+00    0.0000000000000000E+00
             8.6699999999999768E+00    5.9109999999999827E+00    0.0000000000000000E+00
             1.1625999999999953E+01    0.0000000000000000E+00    0.0000000000000000E+00
             1.1625999999999953E+01    2.9549999999999903E+00    0.0000000000000000E+00
             1.1625999999999953E+01    5.9109999999999827E+00    0.0000000000000000E+00
             1.4779999999999958E+00    1.4779999999999958E+00    2.0899999999999923E+00
             1.4779999999999958E+00    4.4329999999999812E+00    2.0899999999999923E+00
             1.4779999999999958E+00    7.3889999999999745E+00    2.0899999999999923E+00
             4.4339999999999868E+00    1.4779999999999958E+00    2.0899999999999923E+00
             4.4339999999999868E+00    4.4329999999999812E+00    2.0899999999999923E+00
             4.4339999999999868E+00    7.3889999999999745E+00    2.0899999999999923E+00
             7.1919999999999771E+00    1.4779999999999958E+00    2.0899999999999923E+00
             7.1919999999999771E+00    4.4329999999999812E+00    2.0899999999999923E+00
             7.1919999999999771E+00    7.3889999999999745E+00    2.0899999999999923E+00
             1.0147999999999961E+01    1.4779999999999958E+00    2.0899999999999923E+00
             1.0147999999999961E+01    4.4329999999999812E+00    2.0899999999999923E+00
             1.0147999999999961E+01    7.3889999999999745E+00    2.0899999999999923E+00
             1.3103999999999962E+01    1.4779999999999958E+00    2.0899999999999923E+00
             1.3103999999999962E+01    4.4329999999999812E+00    2.0899999999999923E+00
             1.3103999999999962E+01    7.3889999999999745E+00    2.0899999999999923E+00
             0.0000000000000000E+00    0.0000000000000000E+00    4.1799999999999846E+00
             0.0000000000000000E+00    2.9549999999999903E+00    4.1799999999999846E+00
             0.0000000000000000E+00    5.9109999999999827E+00    4.1799999999999846E+00
             2.9559999999999915E+00    0.0000000000000000E+00    4.1799999999999846E+00
             2.9559999999999915E+00    2.9549999999999903E+00    4.1799999999999846E+00
             2.9559999999999915E+00    5.9109999999999827E+00    4.1799999999999846E+00
             5.9119999999999830E+00    0.0000000000000000E+00    4.1799999999999846E+00
             5.9119999999999830E+00    2.9549999999999903E+00    4.1799999999999846E+00
             5.9119999999999830E+00    5.9109999999999827E+00    4.1799999999999846E+00
             8.6699999999999768E+00    0.0000000000000000E+00    4.1799999999999846E+00
             8.6699999999999768E+00    2.9549999999999903E+00    4.1799999999999846E+00
             8.6699999999999768E+00    5.9109999999999827E+00    4.1799999999999846E+00
             1.1625999999999953E+01    0.0000000000000000E+00    4.1799999999999846E+00
             1.1625999999999953E+01    2.9549999999999903E+00    4.1799999999999846E+00
             1.1625999999999953E+01    5.9109999999999827E+00    4.1799999999999846E+00
             1.4779999999999958E+00    1.4779999999999958E+00    6.2699999999999880E+00
             1.4779999999999958E+00    4.4329999999999812E+00    6.2699999999999880E+00
             1.4779999999999958E+00    7.3889999999999745E+00    6.2699999999999880E+00
             4.4339999999999868E+00    1.4779999999999958E+00    6.2699999999999880E+00
             4.4339999999999868E+00    4.4329999999999812E+00    6.2699999999999880E+00
             4.4339999999999868E+00    7.3889999999999745E+00    6.2699999999999880E+00
             7.1919999999999771E+00    1.4779999999999958E+00    6.2699999999999880E+00
             7.1919999999999771E+00    4.4329999999999812E+00    6.2699999999999880E+00
             7.1919999999999771E+00    7.3889999999999745E+00    6.2699999999999880E+00
             1.0147999999999961E+01    1.4779999999999958E+00    6.2699999999999880E+00
             1.0147999999999961E+01    4.4329999999999812E+00    6.2699999999999880E+00
             1.0147999999999961E+01    7.3889999999999745E+00    6.2699999999999880E+00
             1.3103999999999962E+01    1.4779999999999958E+00    6.2699999999999880E+00
             1.3103999999999962E+01    4.4329999999999812E+00    6.2699999999999880E+00
             1.3103999999999962E+01    7.3889999999999745E+00    6.2699999999999880E+00
             0.0000000000000000E+00    0.0000000000000000E+00    8.3599999999999692E+00
             0.0000000000000000E+00    2.9549999999999903E+00    8.3599999999999692E+00
             0.0000000000000000E+00    5.9109999999999827E+00    8.3599999999999692E+00
             2.9559999999999915E+00    0.0000000000000000E+00    8.3599999999999692E+00
             2.9559999999999915E+00    2.9549999999999903E+00    8.3599999999999692E+00
             2.9559999999999915E+00    5.9109999999999827E+00    8.3599999999999692E+00
             5.9119999999999830E+00    0.0000000000000000E+00    8.3599999999999692E+00
             5.9119999999999830E+00    2.9549999999999903E+00    8.3599999999999692E+00
             5.9119999999999830E+00    5.9109999999999827E+00    8.3599999999999692E+00
             8.6699999999999768E+00    0.0000000000000000E+00    8.3599999999999692E+00
             8.6699999999999768E+00    2.9549999999999903E+00    8.3599999999999692E+00
             8.6699999999999768E+00    5.9109999999999827E+00    8.3599999999999692E+00
             1.1625999999999953E+01    0.0000000000000000E+00    8.3599999999999692E+00
             1.1625999999999953E+01    2.9549999999999903E+00    8.3599999999999692E+00
             1.1625999999999953E+01    5.9109999999999827E+00    8.3599999999999692E+00
             1.4779999999999958E+00    1.4779999999999958E+00    1.0449999999999960E+01
             1.4779999999999958E+00    4.4329999999999812E+00    1.0449999999999960E+01
             1.4779999999999958E+00    7.3889999999999745E+00    1.0449999999999960E+01
             4.4339999999999868E+00    1.4779999999999958E+00    1.0449999999999960E+01
             4.4339999999999868E+00    4.4329999999999812E+00    1.0449999999999960E+01
             4.4339999999999868E+00    7.3889999999999745E+00    1.0449999999999960E+01
             7.1919999999999771E+00    1.4779999999999958E+00    1.0449999999999960E+01
             7.1919999999999771E+00    4.4329999999999812E+00    1.0449999999999960E+01
             7.1919999999999771E+00    7.3889999999999745E+00    1.0449999999999960E+01
             1.0147999999999961E+01    1.4779999999999958E+00    1.0449999999999960E+01
             1.0147999999999961E+01    4.4329999999999812E+00    1.0449999999999960E+01
             1.0147999999999961E+01    7.3889999999999745E+00    1.0449999999999960E+01
             1.3103999999999962E+01    1.4779999999999958E+00    1.0449999999999960E+01
             1.3103999999999962E+01    4.4329999999999812E+00    1.0449999999999960E+01
             1.3103999999999962E+01    7.3889999999999745E+00    1.0449999999999960E+01
             4.8553999999999826E+00    5.9118999999999806E+00    1.2031799999999961E+01
             9.5279999999999632E+00    5.9136999999999862E+00    1.2033999999999965E+01
             7.1919999999999771E+00    5.9339999999999833E+00    1.2039999999999973E+01
             4.0750319167999853E+00    5.9049488169999806E+00    1.2696844061799961E+01
             1.0293988349499966E+01    5.9062142778999807E+00    1.2716532694499957E+01
             6.0099999685999848E+00    5.9120523852999787E+00    1.2765819797399962E+01
             8.3750478947999714E+00    5.9129627334999837E+00    1.2760746495899959E+01
             8.4047327064999759E+00    5.8893877815999778E+00    1.4094060897199938E+01
             5.9788500868999819E+00    5.8882515164999827E+00    1.4094239568499956E+01
             7.1943473362999688E+00    5.8799164376999800E+00    1.4701118490299942E+01
             7.1912293096999758E+00    5.8521058220999791E+00    1.6050622658199927E+01
             6.3086348446999807E+00    5.8615539360999813E+00    1.6548439364999950E+01
             8.0709262664999812E+00    5.8621389353999840E+00    1.6553588809699953E+01
             7.3119999999999710E+00    5.9339999999999833E+00    2.1042999999999928E+01
             5.8129999999999766E+00    7.4339999999999771E+00    2.2991999999999926E+01
             8.8129999999999704E+00    4.4339999999999868E+00    2.2991999999999926E+01
             5.8129999999999766E+00    4.4329999999999812E+00    2.2991999999999926E+01
             8.8129999999999704E+00    7.4339999999999771E+00    2.2991999999999926E+01
             1.4779999999999958E+00    1.4779999999999958E+00    2.5081999999999905E+01
             1.4779999999999958E+00    4.4329999999999812E+00    2.5081999999999905E+01
             1.4779999999999958E+00    7.3889999999999745E+00    2.5081999999999905E+01
             4.4339999999999868E+00    1.4779999999999958E+00    2.5081999999999905E+01
             4.4339999999999868E+00    4.4329999999999812E+00    2.5081999999999905E+01
             4.4339999999999868E+00    7.3889999999999745E+00    2.5081999999999905E+01
             7.1919999999999771E+00    1.4779999999999958E+00    2.5081999999999905E+01
             7.1919999999999771E+00    4.4329999999999812E+00    2.5081999999999905E+01
             7.1919999999999771E+00    7.3889999999999745E+00    2.5081999999999905E+01
             1.0147999999999961E+01    1.4779999999999958E+00    2.5081999999999905E+01
             1.0147999999999961E+01    4.4329999999999812E+00    2.5081999999999905E+01
             1.0147999999999961E+01    7.3889999999999745E+00    2.5081999999999905E+01
             1.3103999999999962E+01    1.4779999999999958E+00    2.5081999999999905E+01
             1.3103999999999962E+01    4.4329999999999812E+00    2.5081999999999905E+01
             1.3103999999999962E+01    7.3889999999999745E+00    2.5081999999999905E+01
             0.0000000000000000E+00    0.0000000000000000E+00    2.7171999999999905E+01
             0.0000000000000000E+00    2.9549999999999903E+00    2.7171999999999905E+01
             0.0000000000000000E+00    5.9109999999999827E+00    2.7171999999999905E+01
             2.9559999999999915E+00    0.0000000000000000E+00    2.7171999999999905E+01
             2.9559999999999915E+00    2.9549999999999903E+00    2.7171999999999905E+01
             2.9559999999999915E+00    5.9109999999999827E+00    2.7171999999999905E+01
             5.9119999999999830E+00    0.0000000000000000E+00    2.7171999999999905E+01
             5.9119999999999830E+00    2.9549999999999903E+00    2.7171999999999905E+01
             5.9119999999999830E+00    5.9109999999999827E+00    2.7171999999999905E+01
             8.6699999999999768E+00    0.0000000000000000E+00    2.7171999999999905E+01
             8.6699999999999768E+00    2.9549999999999903E+00    2.7171999999999905E+01
             8.6699999999999768E+00    5.9109999999999827E+00    2.7171999999999905E+01
             1.1625999999999953E+01    0.0000000000000000E+00    2.7171999999999905E+01
             1.1625999999999953E+01    2.9549999999999903E+00    2.7171999999999905E+01
             1.1625999999999953E+01    5.9109999999999827E+00    2.7171999999999905E+01
             1.4779999999999958E+00    1.4779999999999958E+00    2.9261999999999912E+01
             1.4779999999999958E+00    4.4329999999999812E+00    2.9261999999999912E+01
             1.4779999999999958E+00    7.3889999999999745E+00    2.9261999999999912E+01
             4.4339999999999868E+00    1.4779999999999958E+00    2.9261999999999912E+01
             4.4339999999999868E+00    4.4329999999999812E+00    2.9261999999999912E+01
             4.4339999999999868E+00    7.3889999999999745E+00    2.9261999999999912E+01
             7.1919999999999771E+00    1.4779999999999958E+00    2.9261999999999912E+01
             7.1919999999999771E+00    4.4329999999999812E+00    2.9261999999999912E+01
             7.1919999999999771E+00    7.3889999999999745E+00    2.9261999999999912E+01
             1.0147999999999961E+01    1.4779999999999958E+00    2.9261999999999912E+01
             1.0147999999999961E+01    4.4329999999999812E+00    2.9261999999999912E+01
             1.0147999999999961E+01    7.3889999999999745E+00    2.9261999999999912E+01
             1.3103999999999962E+01    1.4779999999999958E+00    2.9261999999999912E+01
             1.3103999999999962E+01    4.4329999999999812E+00    2.9261999999999912E+01
             1.3103999999999962E+01    7.3889999999999745E+00    2.9261999999999912E+01
             0.0000000000000000E+00    0.0000000000000000E+00    3.1351999999999872E+01
             0.0000000000000000E+00    2.9549999999999903E+00    3.1351999999999872E+01
             0.0000000000000000E+00    5.9109999999999827E+00    3.1351999999999872E+01
             2.9559999999999915E+00    0.0000000000000000E+00    3.1351999999999872E+01
             2.9559999999999915E+00    2.9549999999999903E+00    3.1351999999999872E+01
             2.9559999999999915E+00    5.9109999999999827E+00    3.1351999999999872E+01
             5.9119999999999830E+00    0.0000000000000000E+00    3.1351999999999872E+01
             5.9119999999999830E+00    2.9549999999999903E+00    3.1351999999999872E+01
             5.9119999999999830E+00    5.9109999999999827E+00    3.1351999999999872E+01
             8.6699999999999768E+00    0.0000000000000000E+00    3.1351999999999872E+01
             8.6699999999999768E+00    2.9549999999999903E+00    3.1351999999999872E+01
             8.6699999999999768E+00    5.9109999999999827E+00    3.1351999999999872E+01
             1.1625999999999953E+01    0.0000000000000000E+00    3.1351999999999872E+01
             1.1625999999999953E+01    2.9549999999999903E+00    3.1351999999999872E+01
             1.1625999999999953E+01    5.9109999999999827E+00    3.1351999999999872E+01
             1.4779999999999958E+00    1.4779999999999958E+00    3.3441999999999886E+01
             1.4779999999999958E+00    4.4329999999999812E+00    3.3441999999999886E+01
             1.4779999999999958E+00    7.3889999999999745E+00    3.3441999999999886E+01
             4.4339999999999868E+00    1.4779999999999958E+00    3.3441999999999886E+01
             4.4339999999999868E+00    4.4329999999999812E+00    3.3441999999999886E+01
             4.4339999999999868E+00    7.3889999999999745E+00    3.3441999999999886E+01
             7.1919999999999771E+00    1.4779999999999958E+00    3.3441999999999886E+01
             7.1919999999999771E+00    4.4329999999999812E+00    3.3441999999999886E+01
             7.1919999999999771E+00    7.3889999999999745E+00    3.3441999999999886E+01
             1.0147999999999961E+01    1.4779999999999958E+00    3.3441999999999886E+01
             1.0147999999999961E+01    4.4329999999999812E+00    3.3441999999999886E+01
             1.0147999999999961E+01    7.3889999999999745E+00    3.3441999999999886E+01
             1.3103999999999962E+01    1.4779999999999958E+00    3.3441999999999886E+01
             1.3103999999999962E+01    4.4329999999999812E+00    3.3441999999999886E+01
             1.3103999999999962E+01    7.3889999999999745E+00    3.3441999999999886E+01
       &END COORD
       &VELOCITY
             0.0000000000000000E+00    0.0000000000000000E+00    0.0000000000000000E+00
             0.0000000000000000E+00    0.0000000000000000E+00    0.0000000000000000E+00
             0.0000000000000000E+00    0.0000000000000000E+00    0.0000000000000000E+00
             0.0000000000000000E+00    0.0000000000000000E+00    0.0000000000000000E+00
             0.0000000000000000E+00    0.0000000000000000E+00    0.0000000000000000E+00
             0.0000000000000000E+00    0.0000000000000000E+00    0.0000000000000000E+00
             0.0000000000000000E+00    0.0000000000000000E+00    0.0000000000000000E+00
             0.0000000000000000E+00    0.0000000000000000E+00    0.0000000000000000E+00
             0.0000000000000000E+00    0.0000000000000000E+00    0.0000000000000000E+00
             0.0000000000000000E+00    0.0000000000000000E+00    0.0000000000000000E+00
             0.0000000000000000E+00    0.0000000000000000E+00    0.0000000000000000E+00
             0.0000000000000000E+00    0.0000000000000000E+00    0.0000000000000000E+00
             0.0000000000000000E+00    0.0000000000000000E+00    0.0000000000000000E+00
             0.0000000000000000E+00    0.0000000000000000E+00    0.0000000000000000E+00
             0.0000000000000000E+00    0.0000000000000000E+00    0.0000000000000000E+00
             0.0000000000000000E+00    0.0000000000000000E+00    0.0000000000000000E+00
             0.0000000000000000E+00    0.0000000000000000E+00    0.0000000000000000E+00
             0.0000000000000000E+00    0.0000000000000000E+00    0.0000000000000000E+00
             0.0000000000000000E+00    0.0000000000000000E+00    0.0000000000000000E+00
             0.0000000000000000E+00    0.0000000000000000E+00    0.0000000000000000E+00
             0.0000000000000000E+00    0.0000000000000000E+00    0.0000000000000000E+00
             0.0000000000000000E+00    0.0000000000000000E+00    0.0000000000000000E+00
             0.0000000000000000E+00    0.0000000000000000E+00    0.0000000000000000E+00
             0.0000000000000000E+00    0.0000000000000000E+00    0.0000000000000000E+00
             0.0000000000000000E+00    0.0000000000000000E+00    0.0000000000000000E+00
             0.0000000000000000E+00    0.0000000000000000E+00    0.0000000000000000E+00
             0.0000000000000000E+00    0.0000000000000000E+00    0.0000000000000000E+00
             0.0000000000000000E+00    0.0000000000000000E+00    0.0000000000000000E+00
             0.0000000000000000E+00    0.0000000000000000E+00    0.0000000000000000E+00
             0.0000000000000000E+00    0.0000000000000000E+00    0.0000000000000000E+00
             0.0000000000000000E+00    0.0000000000000000E+00    0.0000000000000000E+00
             0.0000000000000000E+00    0.0000000000000000E+00    0.0000000000000000E+00
             0.0000000000000000E+00    0.0000000000000000E+00    0.0000000000000000E+00
             0.0000000000000000E+00    0.0000000000000000E+00    0.0000000000000000E+00
             0.0000000000000000E+00    0.0000000000000000E+00    0.0000000000000000E+00
             0.0000000000000000E+00    0.0000000000000000E+00    0.0000000000000000E+00
             0.0000000000000000E+00    0.0000000000000000E+00    0.0000000000000000E+00
             0.0000000000000000E+00    0.0000000000000000E+00    0.0000000000000000E+00
             0.0000000000000000E+00    0.0000000000000000E+00    0.0000000000000000E+00
             0.0000000000000000E+00    0.0000000000000000E+00    0.0000000000000000E+00
             0.0000000000000000E+00    0.0000000000000000E+00    0.0000000000000000E+00
             0.0000000000000000E+00    0.0000000000000000E+00    0.0000000000000000E+00
             0.0000000000000000E+00    0.0000000000000000E+00    0.0000000000000000E+00
             0.0000000000000000E+00    0.0000000000000000E+00    0.0000000000000000E+00
             0.0000000000000000E+00    0.0000000000000000E+00    0.0000000000000000E+00
             0.0000000000000000E+00    0.0000000000000000E+00    0.0000000000000000E+00
             0.0000000000000000E+00    0.0000000000000000E+00    0.0000000000000000E+00
             0.0000000000000000E+00    0.0000000000000000E+00    0.0000000000000000E+00
             0.0000000000000000E+00    0.0000000000000000E+00    0.0000000000000000E+00
             0.0000000000000000E+00    0.0000000000000000E+00    0.0000000000000000E+00
             0.0000000000000000E+00    0.0000000000000000E+00    0.0000000000000000E+00
             0.0000000000000000E+00    0.0000000000000000E+00    0.0000000000000000E+00
             0.0000000000000000E+00    0.0000000000000000E+00    0.0000000000000000E+00
             0.0000000000000000E+00    0.0000000000000000E+00    0.0000000000000000E+00
             0.0000000000000000E+00    0.0000000000000000E+00    0.0000000000000000E+00
             0.0000000000000000E+00    0.0000000000000000E+00    0.0000000000000000E+00
             0.0000000000000000E+00    0.0000000000000000E+00    0.0000000000000000E+00
             0.0000000000000000E+00    0.0000000000000000E+00    0.0000000000000000E+00
             0.0000000000000000E+00    0.0000000000000000E+00    0.0000000000000000E+00
             0.0000000000000000E+00    0.0000000000000000E+00    0.0000000000000000E+00
             0.0000000000000000E+00    0.0000000000000000E+00    0.0000000000000000E+00
             0.0000000000000000E+00    0.0000000000000000E+00    0.0000000000000000E+00
             0.0000000000000000E+00    0.0000000000000000E+00    0.0000000000000000E+00
             0.0000000000000000E+00    0.0000000000000000E+00    0.0000000000000000E+00
             0.0000000000000000E+00    0.0000000000000000E+00    0.0000000000000000E+00
             0.0000000000000000E+00    0.0000000000000000E+00    0.0000000000000000E+00
             0.0000000000000000E+00    0.0000000000000000E+00    0.0000000000000000E+00
             0.0000000000000000E+00    0.0000000000000000E+00    0.0000000000000000E+00
             0.0000000000000000E+00    0.0000000000000000E+00    0.0000000000000000E+00
             0.0000000000000000E+00    0.0000000000000000E+00    0.0000000000000000E+00
             0.0000000000000000E+00    0.0000000000000000E+00    0.0000000000000000E+00
             0.0000000000000000E+00    0.0000000000000000E+00    0.0000000000000000E+00
             0.0000000000000000E+00    0.0000000000000000E+00    0.0000000000000000E+00
             0.0000000000000000E+00    0.0000000000000000E+00    0.0000000000000000E+00
             0.0000000000000000E+00    0.0000000000000000E+00    0.0000000000000000E+00
             0.0000000000000000E+00    0.0000000000000000E+00    0.0000000000000000E+00
             0.0000000000000000E+00    0.0000000000000000E+00    0.0000000000000000E+00
             0.0000000000000000E+00    0.0000000000000000E+00    0.0000000000000000E+00
             0.0000000000000000E+00    0.0000000000000000E+00    0.0000000000000000E+00
             0.0000000000000000E+00    0.0000000000000000E+00    0.0000000000000000E+00
             0.0000000000000000E+00    0.0000000000000000E+00    0.0000000000000000E+00
             0.0000000000000000E+00    0.0000000000000000E+00    0.0000000000000000E+00
             0.0000000000000000E+00    0.0000000000000000E+00    0.0000000000000000E+00
             0.0000000000000000E+00    0.0000000000000000E+00    0.0000000000000000E+00
             0.0000000000000000E+00    0.0000000000000000E+00    0.0000000000000000E+00
             0.0000000000000000E+00    0.0000000000000000E+00    0.0000000000000000E+00
             0.0000000000000000E+00    0.0000000000000000E+00    0.0000000000000000E+00
             0.0000000000000000E+00    0.0000000000000000E+00    0.0000000000000000E+00
             0.0000000000000000E+00    0.0000000000000000E+00    0.0000000000000000E+00
             0.0000000000000000E+00    0.0000000000000000E+00    0.0000000000000000E+00
             0.0000000000000000E+00    0.0000000000000000E+00    0.0000000000000000E+00
             0.0000000000000000E+00    0.0000000000000000E+00    0.0000000000000000E+00
             0.0000000000000000E+00    0.0000000000000000E+00    0.0000000000000000E+00
             0.0000000000000000E+00    0.0000000000000000E+00    0.0000000000000000E+00
             0.0000000000000000E+00    0.0000000000000000E+00    0.0000000000000000E+00
             0.0000000000000000E+00    0.0000000000000000E+00    0.0000000000000000E+00
             0.0000000000000000E+00    0.0000000000000000E+00    0.0000000000000000E+00
             0.0000000000000000E+00    0.0000000000000000E+00    0.0000000000000000E+00
             0.0000000000000000E+00    0.0000000000000000E+00    0.0000000000000000E+00
             0.0000000000000000E+00    0.0000000000000000E+00    0.0000000000000000E+00
             0.0000000000000000E+00    0.0000000000000000E+00    0.0000000000000000E+00
             0.0000000000000000E+00    0.0000000000000000E+00    0.0000000000000000E+00
             0.0000000000000000E+00    0.0000000000000000E+00    0.0000000000000000E+00
             0.0000000000000000E+00    0.0000000000000000E+00    0.0000000000000000E+00
             0.0000000000000000E+00    0.0000000000000000E+00    0.0000000000000000E+00
             0.0000000000000000E+00    0.0000000000000000E+00    0.0000000000000000E+00
             0.0000000000000000E+00    0.0000000000000000E+00    0.0000000000000000E+00
             0.0000000000000000E+00    0.0000000000000000E+00    0.0000000000000000E+00
             0.0000000000000000E+00    0.0000000000000000E+00    0.0000000000000000E+00
             0.0000000000000000E+00    0.0000000000000000E+00    0.0000000000000000E+00
             0.0000000000000000E+00    0.0000000000000000E+00    0.0000000000000000E+00
             0.0000000000000000E+00    0.0000000000000000E+00    0.0000000000000000E+00
             0.0000000000000000E+00    0.0000000000000000E+00    0.0000000000000000E+00
             0.0000000000000000E+00    0.0000000000000000E+00    0.0000000000000000E+00
             0.0000000000000000E+00    0.0000000000000000E+00    0.0000000000000000E+00
             0.0000000000000000E+00    0.0000000000000000E+00    0.0000000000000000E+00
             0.0000000000000000E+00    0.0000000000000000E+00    0.0000000000000000E+00
             0.0000000000000000E+00    0.0000000000000000E+00    0.0000000000000000E+00
             0.0000000000000000E+00    0.0000000000000000E+00    0.0000000000000000E+00
             0.0000000000000000E+00    0.0000000000000000E+00    0.0000000000000000E+00
             0.0000000000000000E+00    0.0000000000000000E+00    0.0000000000000000E+00
             0.0000000000000000E+00    0.0000000000000000E+00    0.0000000000000000E+00
             0.0000000000000000E+00    0.0000000000000000E+00    0.0000000000000000E+00
             0.0000000000000000E+00    0.0000000000000000E+00    0.0000000000000000E+00
             0.0000000000000000E+00    0.0000000000000000E+00    0.0000000000000000E+00
             0.0000000000000000E+00    0.0000000000000000E+00    0.0000000000000000E+00
             0.0000000000000000E+00    0.0000000000000000E+00    0.0000000000000000E+00
             0.0000000000000000E+00    0.0000000000000000E+00    0.0000000000000000E+00
             0.0000000000000000E+00    0.0000000000000000E+00    0.0000000000000000E+00
             0.0000000000000000E+00    0.0000000000000000E+00    0.0000000000000000E+00
             0.0000000000000000E+00    0.0000000000000000E+00    0.0000000000000000E+00
             0.0000000000000000E+00    0.0000000000000000E+00    0.0000000000000000E+00
             0.0000000000000000E+00    0.0000000000000000E+00    0.0000000000000000E+00
             0.0000000000000000E+00    0.0000000000000000E+00    0.0000000000000000E+00
             0.0000000000000000E+00    0.0000000000000000E+00    0.0000000000000000E+00
             0.0000000000000000E+00    0.0000000000000000E+00    0.0000000000000000E+00
             0.0000000000000000E+00    0.0000000000000000E+00    0.0000000000000000E+00
             0.0000000000000000E+00    0.0000000000000000E+00    0.0000000000000000E+00
             0.0000000000000000E+00    0.0000000000000000E+00    0.0000000000000000E+00
             0.0000000000000000E+00    0.0000000000000000E+00    0.0000000000000000E+00
             0.0000000000000000E+00    0.0000000000000000E+00    0.0000000000000000E+00
             0.0000000000000000E+00    0.0000000000000000E+00    0.0000000000000000E+00
             0.0000000000000000E+00    0.0000000000000000E+00    0.0000000000000000E+00
             0.0000000000000000E+00    0.0000000000000000E+00    0.0000000000000000E+00
             0.0000000000000000E+00    0.0000000000000000E+00    0.0000000000000000E+00