 # Version information for this restart file 
 # current date 2024-01-12 19:06:58.606
 # current working dir /gpfs/home/cahart/transport/melamine/au_from-h2/ci-neb/ts1/dft_leads-sz_tip-dzvp_surf-dzvp_kpoints-2-4-20_replicas-3
 # Program compiled at                              Thu 21 Sep 19:20:17 BST 2023
 # Program compiled on                                           hx1-c12-login-1
 # Program compiled for                                                    local
 # Source code revision number                                       git:5518aa6
 &GLOBAL
   EXTENDED_FFT_LENGTHS  T
   PRINT_LEVEL  MEDIUM
   PROJECT_NAME 2_dft_wfn-r-0
   OUTPUT_FILE_NAME 2_dft_wfn-r-0.out
   RUN_TYPE  BAND
 &END GLOBAL
 &MOTION
   &BAND
     NPROC_REP  64
     BAND_TYPE  CI-NEB
     NUMBER_OF_REPLICA  3
     K_SPRING     5.0000000000000003E-02
     &CI_NEB
       NSTEPS_IT  5
     &END CI_NEB
     &OPTIMIZE_BAND
       OPT_TYPE  DIIS
       &DIIS
         MAX_STEPS  1000
       &END DIIS
     &END OPTIMIZE_BAND
     &REPLICA
       &COORD
             0.0000000000000000E+00    0.0000000000000000E+00    0.0000000000000000E+00
             0.0000000000000000E+00    2.9549999999999930E+00    0.0000000000000000E+00
             0.0000000000000000E+00    5.9109999999999880E+00    0.0000000000000000E+00
             2.9559999999999946E+00    0.0000000000000000E+00    0.0000000000000000E+00
             2.9559999999999946E+00    2.9549999999999930E+00    0.0000000000000000E+00
             2.9559999999999946E+00    5.9109999999999880E+00    0.0000000000000000E+00
             5.9119999999999893E+00    0.0000000000000000E+00    0.0000000000000000E+00
             5.9119999999999893E+00    2.9549999999999930E+00    0.0000000000000000E+00
             5.9119999999999893E+00    5.9109999999999880E+00    0.0000000000000000E+00
             8.6699999999999839E+00    0.0000000000000000E+00    0.0000000000000000E+00
             8.6699999999999839E+00    2.9549999999999930E+00    0.0000000000000000E+00
             8.6699999999999839E+00    5.9109999999999880E+00    0.0000000000000000E+00
             1.1625999999999962E+01    0.0000000000000000E+00    0.0000000000000000E+00
             1.1625999999999962E+01    2.9549999999999930E+00    0.0000000000000000E+00
             1.1625999999999962E+01    5.9109999999999880E+00    0.0000000000000000E+00
             1.4779999999999973E+00    1.4779999999999973E+00    2.0899999999999941E+00
             1.4779999999999973E+00    4.4329999999999874E+00    2.0899999999999941E+00
             1.4779999999999973E+00    7.3889999999999789E+00    2.0899999999999941E+00
             4.4339999999999922E+00    1.4779999999999973E+00    2.0899999999999941E+00
             4.4339999999999922E+00    4.4329999999999874E+00    2.0899999999999941E+00
             4.4339999999999922E+00    7.3889999999999789E+00    2.0899999999999941E+00
             7.1919999999999815E+00    1.4779999999999973E+00    2.0899999999999941E+00
             7.1919999999999815E+00    4.4329999999999874E+00    2.0899999999999941E+00
             7.1919999999999815E+00    7.3889999999999789E+00    2.0899999999999941E+00
             1.0147999999999968E+01    1.4779999999999973E+00    2.0899999999999941E+00
             1.0147999999999968E+01    4.4329999999999874E+00    2.0899999999999941E+00
             1.0147999999999968E+01    7.3889999999999789E+00    2.0899999999999941E+00
             1.3103999999999976E+01    1.4779999999999973E+00    2.0899999999999941E+00
             1.3103999999999976E+01    4.4329999999999874E+00    2.0899999999999941E+00
             1.3103999999999976E+01    7.3889999999999789E+00    2.0899999999999941E+00
             0.0000000000000000E+00    0.0000000000000000E+00    4.1799999999999882E+00
             0.0000000000000000E+00    2.9549999999999930E+00    4.1799999999999882E+00
             0.0000000000000000E+00    5.9109999999999880E+00    4.1799999999999882E+00
             2.9559999999999946E+00    0.0000000000000000E+00    4.1799999999999882E+00
             2.9559999999999946E+00    2.9549999999999930E+00    4.1799999999999882E+00
             2.9559999999999946E+00    5.9109999999999880E+00    4.1799999999999882E+00
             5.9119999999999893E+00    0.0000000000000000E+00    4.1799999999999882E+00
             5.9119999999999893E+00    2.9549999999999930E+00    4.1799999999999882E+00
             5.9119999999999893E+00    5.9109999999999880E+00    4.1799999999999882E+00
             8.6699999999999839E+00    0.0000000000000000E+00    4.1799999999999882E+00
             8.6699999999999839E+00    2.9549999999999930E+00    4.1799999999999882E+00
             8.6699999999999839E+00    5.9109999999999880E+00    4.1799999999999882E+00
             1.1625999999999962E+01    0.0000000000000000E+00    4.1799999999999882E+00
             1.1625999999999962E+01    2.9549999999999930E+00    4.1799999999999882E+00
             1.1625999999999962E+01    5.9109999999999880E+00    4.1799999999999882E+00
             1.4779999999999973E+00    1.4779999999999973E+00    6.2699999999999951E+00
             1.4779999999999973E+00    4.4329999999999874E+00    6.2699999999999951E+00
             1.4779999999999973E+00    7.3889999999999789E+00    6.2699999999999951E+00
             4.4339999999999922E+00    1.4779999999999973E+00    6.2699999999999951E+00
             4.4339999999999922E+00    4.4329999999999874E+00    6.2699999999999951E+00
             4.4339999999999922E+00    7.3889999999999789E+00    6.2699999999999951E+00
             7.1919999999999815E+00    1.4779999999999973E+00    6.2699999999999951E+00
             7.1919999999999815E+00    4.4329999999999874E+00    6.2699999999999951E+00
             7.1919999999999815E+00    7.3889999999999789E+00    6.2699999999999951E+00
             1.0147999999999968E+01    1.4779999999999973E+00    6.2699999999999951E+00
             1.0147999999999968E+01    4.4329999999999874E+00    6.2699999999999951E+00
             1.0147999999999968E+01    7.3889999999999789E+00    6.2699999999999951E+00
             1.3103999999999976E+01    1.4779999999999973E+00    6.2699999999999951E+00
             1.3103999999999976E+01    4.4329999999999874E+00    6.2699999999999951E+00
             1.3103999999999976E+01    7.3889999999999789E+00    6.2699999999999951E+00
             0.0000000000000000E+00    0.0000000000000000E+00    8.3599999999999763E+00
             0.0000000000000000E+00    2.9549999999999930E+00    8.3599999999999763E+00
             0.0000000000000000E+00    5.9109999999999880E+00    8.3599999999999763E+00
             2.9559999999999946E+00    0.0000000000000000E+00    8.3599999999999763E+00
             2.9559999999999946E+00    2.9549999999999930E+00    8.3599999999999763E+00
             2.9559999999999946E+00    5.9109999999999880E+00    8.3599999999999763E+00
             5.9119999999999893E+00    0.0000000000000000E+00    8.3599999999999763E+00
             5.9119999999999893E+00    2.9549999999999930E+00    8.3599999999999763E+00
             5.9119999999999893E+00    5.9109999999999880E+00    8.3599999999999763E+00
             8.6699999999999839E+00    0.0000000000000000E+00    8.3599999999999763E+00
             8.6699999999999839E+00    2.9549999999999930E+00    8.3599999999999763E+00
             8.6699999999999839E+00    5.9109999999999880E+00    8.3599999999999763E+00
             1.1625999999999962E+01    0.0000000000000000E+00    8.3599999999999763E+00
             1.1625999999999962E+01    2.9549999999999930E+00    8.3599999999999763E+00
             1.1625999999999962E+01    5.9109999999999880E+00    8.3599999999999763E+00
             1.4779999999999973E+00    1.4779999999999973E+00    1.0449999999999971E+01
             1.4779999999999973E+00    4.4329999999999874E+00    1.0449999999999971E+01
             1.4779999999999973E+00    7.3889999999999789E+00    1.0449999999999971E+01
             4.4339999999999922E+00    1.4779999999999973E+00    1.0449999999999971E+01
             4.4339999999999922E+00    4.4329999999999874E+00    1.0449999999999971E+01
             4.4339999999999922E+00    7.3889999999999789E+00    1.0449999999999971E+01
             7.1919999999999815E+00    1.4779999999999973E+00    1.0449999999999971E+01
             7.1919999999999815E+00    4.4329999999999874E+00    1.0449999999999971E+01
             7.1919999999999815E+00    7.3889999999999789E+00    1.0449999999999971E+01
             1.0147999999999968E+01    1.4779999999999973E+00    1.0449999999999971E+01
             1.0147999999999968E+01    4.4329999999999874E+00    1.0449999999999971E+01
             1.0147999999999968E+01    7.3889999999999789E+00    1.0449999999999971E+01
             1.3103999999999976E+01    1.4779999999999973E+00    1.0449999999999971E+01
             1.3103999999999976E+01    4.4329999999999874E+00    1.0449999999999971E+01
             1.3103999999999976E+01    7.3889999999999789E+00    1.0449999999999971E+01
             4.8553999999999924E+00    5.9118999999999859E+00    1.2031799999999972E+01
             9.5279999999999685E+00    5.9136999999999924E+00    1.2033999999999978E+01
             7.1919999999999815E+00    5.9339999999999895E+00    1.2039999999999983E+01
             4.0750319167999889E+00    5.9049488169999842E+00    1.2696844061799972E+01
             1.0293988349499973E+01    5.9062142778999851E+00    1.2716532694499966E+01
             6.0099999685999910E+00    5.9120523852999813E+00    1.2765819797399974E+01
             8.3750478947999820E+00    5.9129627334999872E+00    1.2760746495899967E+01
             8.4047327064999831E+00    5.8893877815999813E+00    1.4094060897199951E+01
             5.9788500868999854E+00    5.8882515164999845E+00    1.4094239568499964E+01
             7.1943473362999741E+00    5.8799164376999835E+00    1.4701118490299960E+01
             7.1912293096999802E+00    5.8521058220999844E+00    1.6050622658199938E+01
             6.3086348446999843E+00    5.8615539360999849E+00    1.6548439364999957E+01
             8.0709262664999883E+00    5.8621389353999867E+00    1.6553588809699963E+01
             7.3119999999999781E+00    5.9339999999999895E+00    2.1042999999999957E+01
             5.8129999999999811E+00    7.4339999999999833E+00    2.2991999999999948E+01
             8.8129999999999740E+00    4.4339999999999922E+00    2.2991999999999948E+01
             5.8129999999999811E+00    4.4329999999999874E+00    2.2991999999999948E+01
             8.8129999999999740E+00    7.4339999999999833E+00    2.2991999999999948E+01
             1.4779999999999973E+00    1.4779999999999973E+00    2.5081999999999912E+01
             1.4779999999999973E+00    4.4329999999999874E+00    2.5081999999999912E+01
             1.4779999999999973E+00    7.3889999999999789E+00    2.5081999999999912E+01
             4.4339999999999922E+00    1.4779999999999973E+00    2.5081999999999912E+01
             4.4339999999999922E+00    4.4329999999999874E+00    2.5081999999999912E+01
             4.4339999999999922E+00    7.3889999999999789E+00    2.5081999999999912E+01
             7.1919999999999815E+00    1.4779999999999973E+00    2.5081999999999912E+01
             7.1919999999999815E+00    4.4329999999999874E+00    2.5081999999999912E+01
             7.1919999999999815E+00    7.3889999999999789E+00    2.5081999999999912E+01
             1.0147999999999968E+01    1.4779999999999973E+00    2.5081999999999912E+01
             1.0147999999999968E+01    4.4329999999999874E+00    2.5081999999999912E+01
             1.0147999999999968E+01    7.3889999999999789E+00    2.5081999999999912E+01
             1.3103999999999976E+01    1.4779999999999973E+00    2.5081999999999912E+01
             1.3103999999999976E+01    4.4329999999999874E+00    2.5081999999999912E+01
             1.3103999999999976E+01    7.3889999999999789E+00    2.5081999999999912E+01
             0.0000000000000000E+00    0.0000000000000000E+00    2.7171999999999937E+01
             0.0000000000000000E+00    2.9549999999999930E+00    2.7171999999999937E+01
             0.0000000000000000E+00    5.9109999999999880E+00    2.7171999999999937E+01
             2.9559999999999946E+00    0.0000000000000000E+00    2.7171999999999937E+01
             2.9559999999999946E+00    2.9549999999999930E+00    2.7171999999999937E+01
             2.9559999999999946E+00    5.9109999999999880E+00    2.7171999999999937E+01
             5.9119999999999893E+00    0.0000000000000000E+00    2.7171999999999937E+01
             5.9119999999999893E+00    2.9549999999999930E+00    2.7171999999999937E+01
             5.9119999999999893E+00    5.9109999999999880E+00    2.7171999999999937E+01
             8.6699999999999839E+00    0.0000000000000000E+00    2.7171999999999937E+01
             8.6699999999999839E+00    2.9549999999999930E+00    2.7171999999999937E+01
             8.6699999999999839E+00    5.9109999999999880E+00    2.7171999999999937E+01
             1.1625999999999962E+01    0.0000000000000000E+00    2.7171999999999937E+01
             1.1625999999999962E+01    2.9549999999999930E+00    2.7171999999999937E+01
             1.1625999999999962E+01    5.9109999999999880E+00    2.7171999999999937E+01
             1.4779999999999973E+00    1.4779999999999973E+00    2.9261999999999940E+01
             1.4779999999999973E+00    4.4329999999999874E+00    2.9261999999999940E+01
             1.4779999999999973E+00    7.3889999999999789E+00    2.9261999999999940E+01
             4.4339999999999922E+00    1.4779999999999973E+00    2.9261999999999940E+01
             4.4339999999999922E+00    4.4329999999999874E+00    2.9261999999999940E+01
             4.4339999999999922E+00    7.3889999999999789E+00    2.9261999999999940E+01
             7.1919999999999815E+00    1.4779999999999973E+00    2.9261999999999940E+01
             7.1919999999999815E+00    4.4329999999999874E+00    2.9261999999999940E+01
             7.1919999999999815E+00    7.3889999999999789E+00    2.9261999999999940E+01
             1.0147999999999968E+01    1.4779999999999973E+00    2.9261999999999940E+01
             1.0147999999999968E+01    4.4329999999999874E+00    2.9261999999999940E+01
             1.0147999999999968E+01    7.3889999999999789E+00    2.9261999999999940E+01
             1.3103999999999976E+01    1.4779999999999973E+00    2.9261999999999940E+01
             1.3103999999999976E+01    4.4329999999999874E+00    2.9261999999999940E+01
             1.3103999999999976E+01    7.3889999999999789E+00    2.9261999999999940E+01
             0.0000000000000000E+00    0.0000000000000000E+00    3.1351999999999894E+01
             0.0000000000000000E+00    2.9549999999999930E+00    3.1351999999999894E+01
             0.0000000000000000E+00    5.9109999999999880E+00    3.1351999999999894E+01
             2.9559999999999946E+00    0.0000000000000000E+00    3.1351999999999894E+01
             2.9559999999999946E+00    2.9549999999999930E+00    3.1351999999999894E+01
             2.9559999999999946E+00    5.9109999999999880E+00    3.1351999999999894E+01
             5.9119999999999893E+00    0.0000000000000000E+00    3.1351999999999894E+01
             5.9119999999999893E+00    2.9549999999999930E+00    3.1351999999999894E+01
             5.9119999999999893E+00    5.9109999999999880E+00    3.1351999999999894E+01
             8.6699999999999839E+00    0.0000000000000000E+00    3.1351999999999894E+01
             8.6699999999999839E+00    2.9549999999999930E+00    3.1351999999999894E+01
             8.6699999999999839E+00    5.9109999999999880E+00    3.1351999999999894E+01
             1.1625999999999962E+01    0.0000000000000000E+00    3.1351999999999894E+01
             1.1625999999999962E+01    2.9549999999999930E+00    3.1351999999999894E+01
             1.1625999999999962E+01    5.9109999999999880E+00    3.1351999999999894E+01
             1.4779999999999973E+00    1.4779999999999973E+00    3.3441999999999901E+01
             1.4779999999999973E+00    4.4329999999999874E+00    3.3441999999999901E+01
             1.4779999999999973E+00    7.3889999999999789E+00    3.3441999999999901E+01
             4.4339999999999922E+00    1.4779999999999973E+00    3.3441999999999901E+01
             4.4339999999999922E+00    4.4329999999999874E+00    3.3441999999999901E+01
             4.4339999999999922E+00    7.3889999999999789E+00    3.3441999999999901E+01
             7.1919999999999815E+00    1.4779999999999973E+00    3.3441999999999901E+01
             7.1919999999999815E+00    4.4329999999999874E+00    3.3441999999999901E+01
             7.1919999999999815E+00    7.3889999999999789E+00    3.3441999999999901E+01
             1.0147999999999968E+01    1.4779999999999973E+00    3.3441999999999901E+01
             1.0147999999999968E+01    4.4329999999999874E+00    3.3441999999999901E+01
             1.0147999999999968E+01    7.3889999999999789E+00    3.3441999999999901E+01
             1.3103999999999976E+01    1.4779999999999973E+00    3.3441999999999901E+01
             1.3103999999999976E+01    4.4329999999999874E+00    3.3441999999999901E+01
             1.3103999999999976E+01    7.3889999999999789E+00    3.3441999999999901E+01
       &END COORD
       &VELOCITY
             0.0000000000000000E+00    0.0000000000000000E+00    0.0000000000000000E+00
             0.0000000000000000E+00    0.0000000000000000E+00    0.0000000000000000E+00
             0.0000000000000000E+00    0.0000000000000000E+00    0.0000000000000000E+00
             0.0000000000000000E+00    0.0000000000000000E+00    0.0000000000000000E+00
             0.0000000000000000E+00    0.0000000000000000E+00    0.0000000000000000E+00
             0.0000000000000000E+00    0.0000000000000000E+00    0.0000000000000000E+00
             0.0000000000000000E+00    0.0000000000000000E+00    0.0000000000000000E+00
             0.0000000000000000E+00    0.0000000000000000E+00    0.0000000000000000E+00
             0.0000000000000000E+00    0.0000000000000000E+00    0.0000000000000000E+00
             0.0000000000000000E+00    0.0000000000000000E+00    0.0000000000000000E+00
             0.0000000000000000E+00    0.0000000000000000E+00    0.0000000000000000E+00
             0.0000000000000000E+00    0.0000000000000000E+00    0.0000000000000000E+00
             0.0000000000000000E+00    0.0000000000000000E+00    0.0000000000000000E+00
             0.0000000000000000E+00    0.0000000000000000E+00    0.0000000000000000E+00
             0.0000000000000000E+00    0.0000000000000000E+00    0.0000000000000000E+00
             0.0000000000000000E+00    0.0000000000000000E+00    0.0000000000000000E+00
             0.0000000000000000E+00    0.0000000000000000E+00    0.0000000000000000E+00
             0.0000000000000000E+00    0.0000000000000000E+00    0.0000000000000000E+00
             0.0000000000000000E+00    0.0000000000000000E+00    0.0000000000000000E+00
             0.0000000000000000E+00    0.0000000000000000E+00    0.0000000000000000E+00
             0.0000000000000000E+00    0.0000000000000000E+00    0.0000000000000000E+00
             0.0000000000000000E+00    0.0000000000000000E+00    0.0000000000000000E+00
             0.0000000000000000E+00    0.0000000000000000E+00    0.0000000000000000E+00
             0.0000000000000000E+00    0.0000000000000000E+00    0.0000000000000000E+00
             0.0000000000000000E+00    0.0000000000000000E+00    0.0000000000000000E+00
             0.0000000000000000E+00    0.0000000000000000E+00    0.0000000000000000E+00
             0.0000000000000000E+00    0.0000000000000000E+00    0.0000000000000000E+00
             0.0000000000000000E+00    0.0000000000000000E+00    0.0000000000000000E+00
             0.0000000000000000E+00    0.0000000000000000E+00    0.0000000000000000E+00
             0.0000000000000000E+00    0.0000000000000000E+00    0.0000000000000000E+00
             0.0000000000000000E+00    0.0000000000000000E+00    0.0000000000000000E+00
             0.0000000000000000E+00    0.0000000000000000E+00    0.0000000000000000E+00
             0.0000000000000000E+00    0.0000000000000000E+00    0.0000000000000000E+00
             0.0000000000000000E+00    0.0000000000000000E+00    0.0000000000000000E+00
             0.0000000000000000E+00    0.0000000000000000E+00    0.0000000000000000E+00
             0.0000000000000000E+00    0.0000000000000000E+00    0.0000000000000000E+00
             0.0000000000000000E+00    0.0000000000000000E+00    0.0000000000000000E+00
             0.0000000000000000E+00    0.0000000000000000E+00    0.0000000000000000E+00
             0.0000000000000000E+00    0.0000000000000000E+00    0.0000000000000000E+00
             0.0000000000000000E+00    0.0000000000000000E+00    0.0000000000000000E+00
             0.0000000000000000E+00    0.0000000000000000E+00    0.0000000000000000E+00
             0.0000000000000000E+00    0.0000000000000000E+00    0.0000000000000000E+00
             0.0000000000000000E+00    0.0000000000000000E+00    0.0000000000000000E+00
             0.0000000000000000E+00    0.0000000000000000E+00    0.0000000000000000E+00
             0.0000000000000000E+00    0.0000000000000000E+00    0.0000000000000000E+00
             0.0000000000000000E+00    0.0000000000000000E+00    0.0000000000000000E+00
             0.0000000000000000E+00    0.0000000000000000E+00    0.0000000000000000E+00
             0.0000000000000000E+00    0.0000000000000000E+00    0.0000000000000000E+00
             0.0000000000000000E+00    0.0000000000000000E+00    0.0000000000000000E+00
             0.0000000000000000E+00    0.0000000000000000E+00    0.0000000000000000E+00
             0.0000000000000000E+00    0.0000000000000000E+00    0.0000000000000000E+00
             0.0000000000000000E+00    0.0000000000000000E+00    0.0000000000000000E+00
             0.0000000000000000E+00    0.0000000000000000E+00    0.0000000000000000E+00
             0.0000000000000000E+00    0.0000000000000000E+00    0.0000000000000000E+00
             0.0000000000000000E+00    0.0000000000000000E+00    0.0000000000000000E+00
             0.0000000000000000E+00    0.0000000000000000E+00    0.0000000000000000E+00
             0.0000000000000000E+00    0.0000000000000000E+00    0.0000000000000000E+00
             0.0000000000000000E+00    0.0000000000000000E+00    0.0000000000000000E+00
             0.0000000000000000E+00    0.0000000000000000E+00    0.0000000000000000E+00
             0.0000000000000000E+00    0.0000000000000000E+00    0.0000000000000000E+00
             0.0000000000000000E+00    0.0000000000000000E+00    0.0000000000000000E+00
             0.0000000000000000E+00    0.0000000000000000E+00    0.0000000000000000E+00
             0.0000000000000000E+00    0.0000000000000000E+00    0.0000000000000000E+00
             0.0000000000000000E+00    0.0000000000000000E+00    0.0000000000000000E+00
             0.0000000000000000E+00    0.0000000000000000E+00    0.0000000000000000E+00
             0.0000000000000000E+00    0.0000000000000000E+00    0.0000000000000000E+00
             0.0000000000000000E+00    0.0000000000000000E+00    0.0000000000000000E+00
             0.0000000000000000E+00    0.0000000000000000E+00    0.0000000000000000E+00
             0.0000000000000000E+00    0.0000000000000000E+00    0.0000000000000000E+00
             0.0000000000000000E+00    0.0000000000000000E+00    0.0000000000000000E+00
             0.0000000000000000E+00    0.0000000000000000E+00    0.0000000000000000E+00
             0.0000000000000000E+00    0.0000000000000000E+00    0.0000000000000000E+00
             0.0000000000000000E+00    0.0000000000000000E+00    0.0000000000000000E+00
             0.0000000000000000E+00    0.0000000000000000E+00    0.0000000000000000E+00
             0.0000000000000000E+00    0.0000000000000000E+00    0.0000000000000000E+00
             0.0000000000000000E+00    0.0000000000000000E+00    0.0000000000000000E+00
             0.0000000000000000E+00    0.0000000000000000E+00    0.0000000000000000E+00
             0.0000000000000000E+00    0.0000000000000000E+00    0.0000000000000000E+00
             0.0000000000000000E+00    0.0000000000000000E+00    0.0000000000000000E+00
             0.0000000000000000E+00    0.0000000000000000E+00    0.0000000000000000E+00
             0.0000000000000000E+00    0.0000000000000000E+00    0.0000000000000000E+00
             0.0000000000000000E+00    0.0000000000000000E+00    0.0000000000000000E+00
             0.0000000000000000E+00    0.0000000000000000E+00    0.0000000000000000E+00
             0.0000000000000000E+00    0.0000000000000000E+00    0.0000000000000000E+00
             0.0000000000000000E+00    0.0000000000000000E+00    0.0000000000000000E+00
             0.0000000000000000E+00    0.0000000000000000E+00    0.0000000000000000E+00
             0.0000000000000000E+00    0.0000000000000000E+00    0.0000000000000000E+00
             0.0000000000000000E+00    0.0000000000000000E+00    0.0000000000000000E+00
             0.0000000000000000E+00    0.0000000000000000E+00    0.0000000000000000E+00
             0.0000000000000000E+00    0.0000000000000000E+00    0.0000000000000000E+00
             0.0000000000000000E+00    0.0000000000000000E+00    0.0000000000000000E+00
             0.0000000000000000E+00    0.0000000000000000E+00    0.0000000000000000E+00
             0.0000000000000000E+00    0.0000000000000000E+00    0.0000000000000000E+00
             0.0000000000000000E+00    0.0000000000000000E+00    0.0000000000000000E+00
             0.0000000000000000E+00    0.0000000000000000E+00    0.0000000000000000E+00
             0.0000000000000000E+00    0.0000000000000000E+00    0.0000000000000000E+00
             0.0000000000000000E+00    0.0000000000000000E+00    0.0000000000000000E+00
             0.0000000000000000E+00    0.0000000000000000E+00    0.0000000000000000E+00
             0.0000000000000000E+00    0.0000000000000000E+00    0.0000000000000000E+00
             0.0000000000000000E+00    0.0000000000000000E+00    0.0000000000000000E+00
             0.0000000000000000E+00    0.0000000000000000E+00    0.0000000000000000E+00
             0.0000000000000000E+00    0.0000000000000000E+00    0.0000000000000000E+00
             0.0000000000000000E+00    0.0000000000000000E+00    0.0000000000000000E+00
             0.0000000000000000E+00    0.0000000000000000E+00    0.0000000000000000E+00
             0.0000000000000000E+00    0.0000000000000000E+00    0.0000000000000000E+00
             0.0000000000000000E+00    0.0000000000000000E+00    0.0000000000000000E+00
             0.0000000000000000E+00    0.0000000000000000E+00    0.0000000000000000E+00
             0.0000000000000000E+00    0.0000000000000000E+00    0.0000000000000000E+00
             0.0000000000000000E+00    0.0000000000000000E+00    0.0000000000000000E+00
             0.0000000000000000E+00    0.0000000000000000E+00    0.0000000000000000E+00
             0.0000000000000000E+00    0.0000000000000000E+00    0.0000000000000000E+00
             0.0000000000000000E+00    0.0000000000000000E+00    0.0000000000000000E+00
             0.0000000000000000E+00    0.0000000000000000E+00    0.0000000000000000E+00
             0.0000000000000000E+00    0.0000000000000000E+00    0.0000000000000000E+00
             0.0000000000000000E+00    0.0000000000000000E+00    0.0000000000000000E+00
             0.0000000000000000E+00    0.0000000000000000E+00    0.0000000000000000E+00
             0.0000000000000000E+00    0.0000000000000000E+00    0.0000000000000000E+00
             0.0000000000000000E+00    0.0000000000000000E+00    0.0000000000000000E+00
             0.0000000000000000E+00    0.0000000000000000E+00    0.0000000000000000E+00
             0.0000000000000000E+00    0.0000000000000000E+00    0.0000000000000000E+00
             0.0000000000000000E+00    0.0000000000000000E+00    0.0000000000000000E+00
             0.0000000000000000E+00    0.0000000000000000E+00    0.0000000000000000E+00
             0.0000000000000000E+00    0.0000000000000000E+00    0.0000000000000000E+00
             0.0000000000000000E+00    0.0000000000000000E+00    0.0000000000000000E+00
             0.0000000000000000E+00    0.0000000000000000E+00    0.0000000000000000E+00
             0.0000000000000000E+00    0.0000000000000000E+00    0.0000000000000000E+00
             0.0000000000000000E+00    0.0000000000000000E+00    0.0000000000000000E+00
             0.0000000000000000E+00    0.0000000000000000E+00    0.0000000000000000E+00
             0.0000000000000000E+00    0.0000000000000000E+00    0.0000000000000000E+00
             0.0000000000000000E+00    0.0000000000000000E+00    0.0000000000000000E+00
             0.0000000000000000E+00    0.0000000000000000E+00    0.0000000000000000E+00
             0.0000000000000000E+00    0.0000000000000000E+00    0.0000000000000000E+00
             0.0000000000000000E+00    0.0000000000000000E+00    0.0000000000000000E+00
             0.0000000000000000E+00    0.0000000000000000E+00    0.0000000000000000E+00
             0.0000000000000000E+00    0.0000000000000000E+00    0.0000000000000000E+00
             0.0000000000000000E+00    0.0000000000000000E+00    0.0000000000000000E+00
             0.0000000000000000E+00    0.0000000000000000E+00    0.0000000000000000E+00
             0.0000000000000000E+00    0.0000000000000000E+00    0.0000000000000000E+00
             0.0000000000000000E+00    0.0000000000000000E+00    0.0000000000000000E+00
             0.0000000000000000E+00    0.0000000000000000E+00    0.0000000000000000E+00
             0.0000000000000000E+00    0.0000000000000000E+00    0.0000000000000000E+00
             0.0000000000000000E+00    0.0000000000000000E+00    0.0000000000000000E+00
             0.0000000000000000E+00    0.0000000000000000E+00    0.0000000000000000E+00
             0.0000000000000000E+00    0.0000000000000000E+00    0.0000000000000000E+00
             0.0000000000000000E+00    0.0000000000000000E+00    0.0000000000000000E+00