 # Version information for this restart file 
 # current date 2024-01-12 12:55:33.210
 # current working dir /gpfs/home/cahart/transport/melamine/au_from-h2/ci-neb/ts1/dft_leads-sz_tip-dzvp_surf-dzvp_kpoints-2-4-20_replicas-3
 # Program compiled at                              Thu 21 Sep 19:20:17 BST 2023
 # Program compiled on                                           hx1-c12-login-1
 # Program compiled for                                                    local
 # Source code revision number                                       git:5518aa6
 &GLOBAL
   EXTENDED_FFT_LENGTHS  T
   PRINT_LEVEL  MEDIUM
   PROJECT_NAME 2_dft_wfn-r-0
   OUTPUT_FILE_NAME 2_dft_wfn-r-0.out
   RUN_TYPE  BAND
 &END GLOBAL
 &MOTION
   &BAND
     NPROC_REP  64
     BAND_TYPE  CI-NEB
     NUMBER_OF_REPLICA  3
     K_SPRING     5.0000000000000003E-02
     &CI_NEB
       NSTEPS_IT  5
     &END CI_NEB
     &OPTIMIZE_BAND
       OPT_TYPE  DIIS
       &DIIS
         MAX_STEPS  1000
       &END DIIS
     &END OPTIMIZE_BAND
     &REPLICA
       &COORD
             0.0000000000000000E+00    0.0000000000000000E+00    0.0000000000000000E+00
             0.0000000000000000E+00    2.9549999999999943E+00    0.0000000000000000E+00
             0.0000000000000000E+00    5.9109999999999898E+00    0.0000000000000000E+00
             2.9559999999999951E+00    0.0000000000000000E+00    0.0000000000000000E+00
             2.9559999999999951E+00    2.9549999999999943E+00    0.0000000000000000E+00
             2.9559999999999951E+00    5.9109999999999898E+00    0.0000000000000000E+00
             5.9119999999999902E+00    0.0000000000000000E+00    0.0000000000000000E+00
             5.9119999999999902E+00    2.9549999999999943E+00    0.0000000000000000E+00
             5.9119999999999902E+00    5.9109999999999898E+00    0.0000000000000000E+00
             8.6699999999999839E+00    0.0000000000000000E+00    0.0000000000000000E+00
             8.6699999999999839E+00    2.9549999999999943E+00    0.0000000000000000E+00
             8.6699999999999839E+00    5.9109999999999898E+00    0.0000000000000000E+00
             1.1625999999999976E+01    0.0000000000000000E+00    0.0000000000000000E+00
             1.1625999999999976E+01    2.9549999999999943E+00    0.0000000000000000E+00
             1.1625999999999976E+01    5.9109999999999898E+00    0.0000000000000000E+00
             1.4779999999999975E+00    1.4779999999999975E+00    2.0899999999999954E+00
             1.4779999999999975E+00    4.4329999999999909E+00    2.0899999999999954E+00
             1.4779999999999975E+00    7.3889999999999860E+00    2.0899999999999954E+00
             4.4339999999999957E+00    1.4779999999999975E+00    2.0899999999999954E+00
             4.4339999999999957E+00    4.4329999999999909E+00    2.0899999999999954E+00
             4.4339999999999957E+00    7.3889999999999860E+00    2.0899999999999954E+00
             7.1919999999999895E+00    1.4779999999999975E+00    2.0899999999999954E+00
             7.1919999999999895E+00    4.4329999999999909E+00    2.0899999999999954E+00
             7.1919999999999895E+00    7.3889999999999860E+00    2.0899999999999954E+00
             1.0147999999999985E+01    1.4779999999999975E+00    2.0899999999999954E+00
             1.0147999999999985E+01    4.4329999999999909E+00    2.0899999999999954E+00
             1.0147999999999985E+01    7.3889999999999860E+00    2.0899999999999954E+00
             1.3103999999999985E+01    1.4779999999999975E+00    2.0899999999999954E+00
             1.3103999999999985E+01    4.4329999999999909E+00    2.0899999999999954E+00
             1.3103999999999985E+01    7.3889999999999860E+00    2.0899999999999954E+00
             0.0000000000000000E+00    0.0000000000000000E+00    4.1799999999999908E+00
             0.0000000000000000E+00    2.9549999999999943E+00    4.1799999999999908E+00
             0.0000000000000000E+00    5.9109999999999898E+00    4.1799999999999908E+00
             2.9559999999999951E+00    0.0000000000000000E+00    4.1799999999999908E+00
             2.9559999999999951E+00    2.9549999999999943E+00    4.1799999999999908E+00
             2.9559999999999951E+00    5.9109999999999898E+00    4.1799999999999908E+00
             5.9119999999999902E+00    0.0000000000000000E+00    4.1799999999999908E+00
             5.9119999999999902E+00    2.9549999999999943E+00    4.1799999999999908E+00
             5.9119999999999902E+00    5.9109999999999898E+00    4.1799999999999908E+00
             8.6699999999999839E+00    0.0000000000000000E+00    4.1799999999999908E+00
             8.6699999999999839E+00    2.9549999999999943E+00    4.1799999999999908E+00
             8.6699999999999839E+00    5.9109999999999898E+00    4.1799999999999908E+00
             1.1625999999999976E+01    0.0000000000000000E+00    4.1799999999999908E+00
             1.1625999999999976E+01    2.9549999999999943E+00    4.1799999999999908E+00
             1.1625999999999976E+01    5.9109999999999898E+00    4.1799999999999908E+00
             1.4779999999999975E+00    1.4779999999999975E+00    6.2699999999999907E+00
             1.4779999999999975E+00    4.4329999999999909E+00    6.2699999999999907E+00
             1.4779999999999975E+00    7.3889999999999860E+00    6.2699999999999907E+00
             4.4339999999999957E+00    1.4779999999999975E+00    6.2699999999999907E+00
             4.4339999999999957E+00    4.4329999999999909E+00    6.2699999999999907E+00
             4.4339999999999957E+00    7.3889999999999860E+00    6.2699999999999907E+00
             7.1919999999999895E+00    1.4779999999999975E+00    6.2699999999999907E+00
             7.1919999999999895E+00    4.4329999999999909E+00    6.2699999999999907E+00
             7.1919999999999895E+00    7.3889999999999860E+00    6.2699999999999907E+00
             1.0147999999999985E+01    1.4779999999999975E+00    6.2699999999999907E+00
             1.0147999999999985E+01    4.4329999999999909E+00    6.2699999999999907E+00
             1.0147999999999985E+01    7.3889999999999860E+00    6.2699999999999907E+00
             1.3103999999999985E+01    1.4779999999999975E+00    6.2699999999999907E+00
             1.3103999999999985E+01    4.4329999999999909E+00    6.2699999999999907E+00
             1.3103999999999985E+01    7.3889999999999860E+00    6.2699999999999907E+00
             0.0000000000000000E+00    0.0000000000000000E+00    8.3599999999999817E+00
             0.0000000000000000E+00    2.9549999999999943E+00    8.3599999999999817E+00
             0.0000000000000000E+00    5.9109999999999898E+00    8.3599999999999817E+00
             2.9559999999999951E+00    0.0000000000000000E+00    8.3599999999999817E+00
             2.9559999999999951E+00    2.9549999999999943E+00    8.3599999999999817E+00
             2.9559999999999951E+00    5.9109999999999898E+00    8.3599999999999817E+00
             5.9119999999999902E+00    0.0000000000000000E+00    8.3599999999999817E+00
             5.9119999999999902E+00    2.9549999999999943E+00    8.3599999999999817E+00
             5.9119999999999902E+00    5.9109999999999898E+00    8.3599999999999817E+00
             8.6699999999999839E+00    0.0000000000000000E+00    8.3599999999999817E+00
             8.6699999999999839E+00    2.9549999999999943E+00    8.3599999999999817E+00
             8.6699999999999839E+00    5.9109999999999898E+00    8.3599999999999817E+00
             1.1625999999999976E+01    0.0000000000000000E+00    8.3599999999999817E+00
             1.1625999999999976E+01    2.9549999999999943E+00    8.3599999999999817E+00
             1.1625999999999976E+01    5.9109999999999898E+00    8.3599999999999817E+00
             1.4779999999999975E+00    1.4779999999999975E+00    1.0449999999999982E+01
             1.4779999999999975E+00    4.4329999999999909E+00    1.0449999999999982E+01
             1.4779999999999975E+00    7.3889999999999860E+00    1.0449999999999982E+01
             4.4339999999999957E+00    1.4779999999999975E+00    1.0449999999999982E+01
             4.4339999999999957E+00    4.4329999999999909E+00    1.0449999999999982E+01
             4.4339999999999957E+00    7.3889999999999860E+00    1.0449999999999982E+01
             7.1919999999999895E+00    1.4779999999999975E+00    1.0449999999999982E+01
             7.1919999999999895E+00    4.4329999999999909E+00    1.0449999999999982E+01
             7.1919999999999895E+00    7.3889999999999860E+00    1.0449999999999982E+01
             1.0147999999999985E+01    1.4779999999999975E+00    1.0449999999999982E+01
             1.0147999999999985E+01    4.4329999999999909E+00    1.0449999999999982E+01
             1.0147999999999985E+01    7.3889999999999860E+00    1.0449999999999982E+01
             1.3103999999999985E+01    1.4779999999999975E+00    1.0449999999999982E+01
             1.3103999999999985E+01    4.4329999999999909E+00    1.0449999999999982E+01
             1.3103999999999985E+01    7.3889999999999860E+00    1.0449999999999982E+01
             4.8553999999999906E+00    5.9118999999999913E+00    1.2031799999999979E+01
             9.5279999999999809E+00    5.9136999999999933E+00    1.2033999999999981E+01
             7.1919999999999895E+00    5.9339999999999913E+00    1.2039999999999983E+01
             4.0750319167999933E+00    5.9049488169999895E+00    1.2696844061799984E+01
             1.0293988349499978E+01    5.9062142778999887E+00    1.2716532694499978E+01
             6.0099999685999910E+00    5.9120523852999876E+00    1.2765819797399983E+01
             8.3750478947999873E+00    5.9129627334999899E+00    1.2760746495899976E+01
             8.4047327064999866E+00    5.8893877815999884E+00    1.4094060897199968E+01
             5.9788500868999908E+00    5.8882515164999898E+00    1.4094239568499972E+01
             7.1943473362999866E+00    5.8799164376999897E+00    1.4701118490299972E+01
             7.1912293096999882E+00    5.8521058220999906E+00    1.6050622658199959E+01
             6.3086348446999896E+00    5.8615539360999929E+00    1.6548439364999972E+01
             8.0709262664999866E+00    5.8621389353999875E+00    1.6553588809699971E+01
             7.3119999999999878E+00    5.9339999999999913E+00    2.1042999999999960E+01
             5.8129999999999882E+00    7.4339999999999868E+00    2.2991999999999969E+01
             8.8129999999999811E+00    4.4339999999999957E+00    2.2991999999999969E+01
             5.8129999999999882E+00    4.4329999999999909E+00    2.2991999999999969E+01
             8.8129999999999811E+00    7.4339999999999868E+00    2.2991999999999969E+01
             1.4779999999999975E+00    1.4779999999999975E+00    2.5081999999999947E+01
             1.4779999999999975E+00    4.4329999999999909E+00    2.5081999999999947E+01
             1.4779999999999975E+00    7.3889999999999860E+00    2.5081999999999947E+01
             4.4339999999999957E+00    1.4779999999999975E+00    2.5081999999999947E+01
             4.4339999999999957E+00    4.4329999999999909E+00    2.5081999999999947E+01
             4.4339999999999957E+00    7.3889999999999860E+00    2.5081999999999947E+01
             7.1919999999999895E+00    1.4779999999999975E+00    2.5081999999999947E+01
             7.1919999999999895E+00    4.4329999999999909E+00    2.5081999999999947E+01
             7.1919999999999895E+00    7.3889999999999860E+00    2.5081999999999947E+01
             1.0147999999999985E+01    1.4779999999999975E+00    2.5081999999999947E+01
             1.0147999999999985E+01    4.4329999999999909E+00    2.5081999999999947E+01
             1.0147999999999985E+01    7.3889999999999860E+00    2.5081999999999947E+01
             1.3103999999999985E+01    1.4779999999999975E+00    2.5081999999999947E+01
             1.3103999999999985E+01    4.4329999999999909E+00    2.5081999999999947E+01
             1.3103999999999985E+01    7.3889999999999860E+00    2.5081999999999947E+01
             0.0000000000000000E+00    0.0000000000000000E+00    2.7171999999999954E+01
             0.0000000000000000E+00    2.9549999999999943E+00    2.7171999999999954E+01
             0.0000000000000000E+00    5.9109999999999898E+00    2.7171999999999954E+01
             2.9559999999999951E+00    0.0000000000000000E+00    2.7171999999999954E+01
             2.9559999999999951E+00    2.9549999999999943E+00    2.7171999999999954E+01
             2.9559999999999951E+00    5.9109999999999898E+00    2.7171999999999954E+01
             5.9119999999999902E+00    0.0000000000000000E+00    2.7171999999999954E+01
             5.9119999999999902E+00    2.9549999999999943E+00    2.7171999999999954E+01
             5.9119999999999902E+00    5.9109999999999898E+00    2.7171999999999954E+01
             8.6699999999999839E+00    0.0000000000000000E+00    2.7171999999999954E+01
             8.6699999999999839E+00    2.9549999999999943E+00    2.7171999999999954E+01
             8.6699999999999839E+00    5.9109999999999898E+00    2.7171999999999954E+01
             1.1625999999999976E+01    0.0000000000000000E+00    2.7171999999999954E+01
             1.1625999999999976E+01    2.9549999999999943E+00    2.7171999999999954E+01
             1.1625999999999976E+01    5.9109999999999898E+00    2.7171999999999954E+01
             1.4779999999999975E+00    1.4779999999999975E+00    2.9261999999999951E+01
             1.4779999999999975E+00    4.4329999999999909E+00    2.9261999999999951E+01
             1.4779999999999975E+00    7.3889999999999860E+00    2.9261999999999951E+01
             4.4339999999999957E+00    1.4779999999999975E+00    2.9261999999999951E+01
             4.4339999999999957E+00    4.4329999999999909E+00    2.9261999999999951E+01
             4.4339999999999957E+00    7.3889999999999860E+00    2.9261999999999951E+01
             7.1919999999999895E+00    1.4779999999999975E+00    2.9261999999999951E+01
             7.1919999999999895E+00    4.4329999999999909E+00    2.9261999999999951E+01
             7.1919999999999895E+00    7.3889999999999860E+00    2.9261999999999951E+01
             1.0147999999999985E+01    1.4779999999999975E+00    2.9261999999999951E+01
             1.0147999999999985E+01    4.4329999999999909E+00    2.9261999999999951E+01
             1.0147999999999985E+01    7.3889999999999860E+00    2.9261999999999951E+01
             1.3103999999999985E+01    1.4779999999999975E+00    2.9261999999999951E+01
             1.3103999999999985E+01    4.4329999999999909E+00    2.9261999999999951E+01
             1.3103999999999985E+01    7.3889999999999860E+00    2.9261999999999951E+01
             0.0000000000000000E+00    0.0000000000000000E+00    3.1351999999999940E+01
             0.0000000000000000E+00    2.9549999999999943E+00    3.1351999999999940E+01
             0.0000000000000000E+00    5.9109999999999898E+00    3.1351999999999940E+01
             2.9559999999999951E+00    0.0000000000000000E+00    3.1351999999999940E+01
             2.9559999999999951E+00    2.9549999999999943E+00    3.1351999999999940E+01
             2.9559999999999951E+00    5.9109999999999898E+00    3.1351999999999940E+01
             5.9119999999999902E+00    0.0000000000000000E+00    3.1351999999999940E+01
             5.9119999999999902E+00    2.9549999999999943E+00    3.1351999999999940E+01
             5.9119999999999902E+00    5.9109999999999898E+00    3.1351999999999940E+01
             8.6699999999999839E+00    0.0000000000000000E+00    3.1351999999999940E+01
             8.6699999999999839E+00    2.9549999999999943E+00    3.1351999999999940E+01
             8.6699999999999839E+00    5.9109999999999898E+00    3.1351999999999940E+01
             1.1625999999999976E+01    0.0000000000000000E+00    3.1351999999999940E+01
             1.1625999999999976E+01    2.9549999999999943E+00    3.1351999999999940E+01
             1.1625999999999976E+01    5.9109999999999898E+00    3.1351999999999940E+01
             1.4779999999999975E+00    1.4779999999999975E+00    3.3441999999999958E+01
             1.4779999999999975E+00    4.4329999999999909E+00    3.3441999999999958E+01
             1.4779999999999975E+00    7.3889999999999860E+00    3.3441999999999958E+01
             4.4339999999999957E+00    1.4779999999999975E+00    3.3441999999999958E+01
             4.4339999999999957E+00    4.4329999999999909E+00    3.3441999999999958E+01
             4.4339999999999957E+00    7.3889999999999860E+00    3.3441999999999958E+01
             7.1919999999999895E+00    1.4779999999999975E+00    3.3441999999999958E+01
             7.1919999999999895E+00    4.4329999999999909E+00    3.3441999999999958E+01
             7.1919999999999895E+00    7.3889999999999860E+00    3.3441999999999958E+01
             1.0147999999999985E+01    1.4779999999999975E+00    3.3441999999999958E+01
             1.0147999999999985E+01    4.4329999999999909E+00    3.3441999999999958E+01
             1.0147999999999985E+01    7.3889999999999860E+00    3.3441999999999958E+01
             1.3103999999999985E+01    1.4779999999999975E+00    3.3441999999999958E+01
             1.3103999999999985E+01    4.4329999999999909E+00    3.3441999999999958E+01
             1.3103999999999985E+01    7.3889999999999860E+00    3.3441999999999958E+01
       &END COORD
       &VELOCITY
             0.0000000000000000E+00    0.0000000000000000E+00    0.0000000000000000E+00
             0.0000000000000000E+00    0.0000000000000000E+00    0.0000000000000000E+00
             0.0000000000000000E+00    0.0000000000000000E+00    0.0000000000000000E+00
             0.0000000000000000E+00    0.0000000000000000E+00    0.0000000000000000E+00
             0.0000000000000000E+00    0.0000000000000000E+00    0.0000000000000000E+00
             0.0000000000000000E+00    0.0000000000000000E+00    0.0000000000000000E+00
             0.0000000000000000E+00    0.0000000000000000E+00    0.0000000000000000E+00
             0.0000000000000000E+00    0.0000000000000000E+00    0.0000000000000000E+00
             0.0000000000000000E+00    0.0000000000000000E+00    0.0000000000000000E+00
             0.0000000000000000E+00    0.0000000000000000E+00    0.0000000000000000E+00
             0.0000000000000000E+00    0.0000000000000000E+00    0.0000000000000000E+00
             0.0000000000000000E+00    0.0000000000000000E+00    0.0000000000000000E+00
             0.0000000000000000E+00    0.0000000000000000E+00    0.0000000000000000E+00
             0.0000000000000000E+00    0.0000000000000000E+00    0.0000000000000000E+00
             0.0000000000000000E+00    0.0000000000000000E+00    0.0000000000000000E+00
             0.0000000000000000E+00    0.0000000000000000E+00    0.0000000000000000E+00
             0.0000000000000000E+00    0.0000000000000000E+00    0.0000000000000000E+00
             0.0000000000000000E+00    0.0000000000000000E+00    0.0000000000000000E+00
             0.0000000000000000E+00    0.0000000000000000E+00    0.0000000000000000E+00
             0.0000000000000000E+00    0.0000000000000000E+00    0.0000000000000000E+00
             0.0000000000000000E+00    0.0000000000000000E+00    0.0000000000000000E+00
             0.0000000000000000E+00    0.0000000000000000E+00    0.0000000000000000E+00
             0.0000000000000000E+00    0.0000000000000000E+00    0.0000000000000000E+00
             0.0000000000000000E+00    0.0000000000000000E+00    0.0000000000000000E+00
             0.0000000000000000E+00    0.0000000000000000E+00    0.0000000000000000E+00
             0.0000000000000000E+00    0.0000000000000000E+00    0.0000000000000000E+00
             0.0000000000000000E+00    0.0000000000000000E+00    0.0000000000000000E+00
             0.0000000000000000E+00    0.0000000000000000E+00    0.0000000000000000E+00
             0.0000000000000000E+00    0.0000000000000000E+00    0.0000000000000000E+00
             0.0000000000000000E+00    0.0000000000000000E+00    0.0000000000000000E+00
             0.0000000000000000E+00    0.0000000000000000E+00    0.0000000000000000E+00
             0.0000000000000000E+00    0.0000000000000000E+00    0.0000000000000000E+00
             0.0000000000000000E+00    0.0000000000000000E+00    0.0000000000000000E+00
             0.0000000000000000E+00    0.0000000000000000E+00    0.0000000000000000E+00
             0.0000000000000000E+00    0.0000000000000000E+00    0.0000000000000000E+00
             0.0000000000000000E+00    0.0000000000000000E+00    0.0000000000000000E+00
             0.0000000000000000E+00    0.0000000000000000E+00    0.0000000000000000E+00
             0.0000000000000000E+00    0.0000000000000000E+00    0.0000000000000000E+00
             0.0000000000000000E+00    0.0000000000000000E+00    0.0000000000000000E+00
             0.0000000000000000E+00    0.0000000000000000E+00    0.0000000000000000E+00
             0.0000000000000000E+00    0.0000000000000000E+00    0.0000000000000000E+00
             0.0000000000000000E+00    0.0000000000000000E+00    0.0000000000000000E+00
             0.0000000000000000E+00    0.0000000000000000E+00    0.0000000000000000E+00
             0.0000000000000000E+00    0.0000000000000000E+00    0.0000000000000000E+00
             0.0000000000000000E+00    0.0000000000000000E+00    0.0000000000000000E+00
             0.0000000000000000E+00    0.0000000000000000E+00    0.0000000000000000E+00
             0.0000000000000000E+00    0.0000000000000000E+00    0.0000000000000000E+00
             0.0000000000000000E+00    0.0000000000000000E+00    0.0000000000000000E+00
             0.0000000000000000E+00    0.0000000000000000E+00    0.0000000000000000E+00
             0.0000000000000000E+00    0.0000000000000000E+00    0.0000000000000000E+00
             0.0000000000000000E+00    0.0000000000000000E+00    0.0000000000000000E+00
             0.0000000000000000E+00    0.0000000000000000E+00    0.0000000000000000E+00
             0.0000000000000000E+00    0.0000000000000000E+00    0.0000000000000000E+00
             0.0000000000000000E+00    0.0000000000000000E+00    0.0000000000000000E+00
             0.0000000000000000E+00    0.0000000000000000E+00    0.0000000000000000E+00
             0.0000000000000000E+00    0.0000000000000000E+00    0.0000000000000000E+00
             0.0000000000000000E+00    0.0000000000000000E+00    0.0000000000000000E+00
             0.0000000000000000E+00    0.0000000000000000E+00    0.0000000000000000E+00
             0.0000000000000000E+00    0.0000000000000000E+00    0.0000000000000000E+00
             0.0000000000000000E+00    0.0000000000000000E+00    0.0000000000000000E+00
             0.0000000000000000E+00    0.0000000000000000E+00    0.0000000000000000E+00
             0.0000000000000000E+00    0.0000000000000000E+00    0.0000000000000000E+00
             0.0000000000000000E+00    0.0000000000000000E+00    0.0000000000000000E+00
             0.0000000000000000E+00    0.0000000000000000E+00    0.0000000000000000E+00
             0.0000000000000000E+00    0.0000000000000000E+00    0.0000000000000000E+00
             0.0000000000000000E+00    0.0000000000000000E+00    0.0000000000000000E+00
             0.0000000000000000E+00    0.0000000000000000E+00    0.0000000000000000E+00
             0.0000000000000000E+00    0.0000000000000000E+00    0.0000000000000000E+00
             0.0000000000000000E+00    0.0000000000000000E+00    0.0000000000000000E+00
             0.0000000000000000E+00    0.0000000000000000E+00    0.0000000000000000E+00
             0.0000000000000000E+00    0.0000000000000000E+00    0.0000000000000000E+00
             0.0000000000000000E+00    0.0000000000000000E+00    0.0000000000000000E+00
             0.0000000000000000E+00    0.0000000000000000E+00    0.0000000000000000E+00
             0.0000000000000000E+00    0.0000000000000000E+00    0.0000000000000000E+00
             0.0000000000000000E+00    0.0000000000000000E+00    0.0000000000000000E+00
             0.0000000000000000E+00    0.0000000000000000E+00    0.0000000000000000E+00
             0.0000000000000000E+00    0.0000000000000000E+00    0.0000000000000000E+00
             0.0000000000000000E+00    0.0000000000000000E+00    0.0000000000000000E+00
             0.0000000000000000E+00    0.0000000000000000E+00    0.0000000000000000E+00
             0.0000000000000000E+00    0.0000000000000000E+00    0.0000000000000000E+00
             0.0000000000000000E+00    0.0000000000000000E+00    0.0000000000000000E+00
             0.0000000000000000E+00    0.0000000000000000E+00    0.0000000000000000E+00
             0.0000000000000000E+00    0.0000000000000000E+00    0.0000000000000000E+00
             0.0000000000000000E+00    0.0000000000000000E+00    0.0000000000000000E+00
             0.0000000000000000E+00    0.0000000000000000E+00    0.0000000000000000E+00
             0.0000000000000000E+00    0.0000000000000000E+00    0.0000000000000000E+00
             0.0000000000000000E+00    0.0000000000000000E+00    0.0000000000000000E+00
             0.0000000000000000E+00    0.0000000000000000E+00    0.0000000000000000E+00
             0.0000000000000000E+00    0.0000000000000000E+00    0.0000000000000000E+00
             0.0000000000000000E+00    0.0000000000000000E+00    0.0000000000000000E+00
             0.0000000000000000E+00    0.0000000000000000E+00    0.0000000000000000E+00
             0.0000000000000000E+00    0.0000000000000000E+00    0.0000000000000000E+00
             0.0000000000000000E+00    0.0000000000000000E+00    0.0000000000000000E+00
             0.0000000000000000E+00    0.0000000000000000E+00    0.0000000000000000E+00
             0.0000000000000000E+00    0.0000000000000000E+00    0.0000000000000000E+00
             0.0000000000000000E+00    0.0000000000000000E+00    0.0000000000000000E+00
             0.0000000000000000E+00    0.0000000000000000E+00    0.0000000000000000E+00
             0.0000000000000000E+00    0.0000000000000000E+00    0.0000000000000000E+00
             0.0000000000000000E+00    0.0000000000000000E+00    0.0000000000000000E+00
             0.0000000000000000E+00    0.0000000000000000E+00    0.0000000000000000E+00
             0.0000000000000000E+00    0.0000000000000000E+00    0.0000000000000000E+00
             0.0000000000000000E+00    0.0000000000000000E+00    0.0000000000000000E+00
             0.0000000000000000E+00    0.0000000000000000E+00    0.0000000000000000E+00
             0.0000000000000000E+00    0.0000000000000000E+00    0.0000000000000000E+00
             0.0000000000000000E+00    0.0000000000000000E+00    0.0000000000000000E+00
             0.0000000000000000E+00    0.0000000000000000E+00    0.0000000000000000E+00
             0.0000000000000000E+00    0.0000000000000000E+00    0.0000000000000000E+00
             0.0000000000000000E+00    0.0000000000000000E+00    0.0000000000000000E+00
             0.0000000000000000E+00    0.0000000000000000E+00    0.0000000000000000E+00
             0.0000000000000000E+00    0.0000000000000000E+00    0.0000000000000000E+00
             0.0000000000000000E+00    0.0000000000000000E+00    0.0000000000000000E+00
             0.0000000000000000E+00    0.0000000000000000E+00    0.0000000000000000E+00
             0.0000000000000000E+00    0.0000000000000000E+00    0.0000000000000000E+00
             0.0000000000000000E+00    0.0000000000000000E+00    0.0000000000000000E+00
             0.0000000000000000E+00    0.0000000000000000E+00    0.0000000000000000E+00
             0.0000000000000000E+00    0.0000000000000000E+00    0.0000000000000000E+00
             0.0000000000000000E+00    0.0000000000000000E+00    0.0000000000000000E+00
             0.0000000000000000E+00    0.0000000000000000E+00    0.0000000000000000E+00
             0.0000000000000000E+00    0.0000000000000000E+00    0.0000000000000000E+00
             0.0000000000000000E+00    0.0000000000000000E+00    0.0000000000000000E+00
             0.0000000000000000E+00    0.0000000000000000E+00    0.0000000000000000E+00
             0.0000000000000000E+00    0.0000000000000000E+00    0.0000000000000000E+00
             0.0000000000000000E+00    0.0000000000000000E+00    0.0000000000000000E+00
             0.0000000000000000E+00    0.0000000000000000E+00    0.0000000000000000E+00
             0.0000000000000000E+00    0.0000000000000000E+00    0.0000000000000000E+00
             0.0000000000000000E+00    0.0000000000000000E+00    0.0000000000000000E+00
             0.0000000000000000E+00    0.0000000000000000E+00    0.0000000000000000E+00
             0.0000000000000000E+00    0.0000000000000000E+00    0.0000000000000000E+00
             0.0000000000000000E+00    0.0000000000000000E+00    0.0000000000000000E+00
             0.0000000000000000E+00    0.0000000000000000E+00    0.0000000000000000E+00
             0.0000000000000000E+00    0.0000000000000000E+00    0.0000000000000000E+00
             0.0000000000000000E+00    0.0000000000000000E+00    0.0000000000000000E+00
             0.0000000000000000E+00    0.0000000000000000E+00    0.0000000000000000E+00
             0.0000000000000000E+00    0.0000000000000000E+00    0.0000000000000000E+00
             0.0000000000000000E+00    0.0000000000000000E+00    0.0000000000000000E+00
             0.0000000000000000E+00    0.0000000000000000E+00    0.0000000000000000E+00
             0.0000000000000000E+00    0.0000000000000000E+00    0.0000000000000000E+00
             0.0000000000000000E+00    0.0000000000000000E+00    0.0000000000000000E+00
             0.0000000000000000E+00    0.0000000000000000E+00    0.0000000000000000E+00
             0.0000000000000000E+00    0.0000000000000000E+00    0.0000000000000000E+00
             0.0000000000000000E+00    0.0000000000000000E+00    0.0000000000000000E+00
             0.0000000000000000E+00    0.0000000000000000E+00    0.0000000000000000E+00
             0.0000000000000000E+00    0.0000000000000000E+00    0.0000000000000000E+00
             0.0000000000000000E+00    0.0000000000000000E+00    0.0000000000000000E+00
             0.0000000000000000E+00    0.0000000000000000E+00    0.0000000000000000E+00