         0      -5729.810926760      -5729.731304778      -5729.782607823          2.817311921          1.923090167
         1      -5729.810926761      -5729.859086328      -5729.782607823          2.846516206          2.283441175
         2      -5729.810926761      -5729.887233676      -5729.782607823          2.833400455          2.336689433
         3      -5729.810926761      -5729.898549853      -5729.782607823          2.846880459          2.421938884
         4      -5729.810926761      -5729.906910486      -5729.782607823          2.852717773          2.466436406
         5      -5729.810926761      -5729.913609114      -5729.782607823          2.872825649          2.535296066
         6      -5729.810926760      -5729.919061723      -5729.782607823          2.882413057          2.569613699
         7      -5729.810926761      -5729.919902255      -5729.782607823          2.920243498          2.560752545
         8      -5729.810926761      -5729.929707647      -5729.782607823          3.622283346          2.525271999
         9      -5729.810926760      -5729.935382630      -5729.782607823          3.623399591          2.539759432
        10      -5729.810926760      -5729.938419414      -5729.782607823          3.642578325          2.601997446
        11      -5729.810926761      -5729.941957569      -5729.782607823          3.648406321          2.634897374
        12      -5729.810926760      -5729.945082630      -5729.782607823          3.676283713          2.772176845
        13      -5729.810926761      -5729.949012956      -5729.782607823          3.677875219          2.785068556
        14      -5729.810926761      -5729.950137455      -5729.782607824          3.683944979          2.805159692
        15      -5729.810926760      -5729.954519450      -5729.782607823          3.760676637          3.015101992
        16      -5729.810926761      -5729.959414770      -5729.782607823          3.763981111          3.025833663
        17      -5729.810926761      -5729.961098476      -5729.782607823          3.799977556          3.089975638
        18      -5729.810926761      -5729.962775617      -5729.782607824          3.806131180          3.102654186
        19      -5729.810926760      -5729.965445359      -5729.782607823          3.880196696          3.226380750
        20      -5729.810926761      -5729.968120836      -5729.782607823          3.886917248          3.238729871
        21      -5729.810926760      -5729.969152142      -5729.782607823          3.910086285          3.274331371
        22      -5729.810926761      -5729.977696057      -5729.782607824          4.067746927          3.517794339
        23      -5729.810926760      -5729.978372608      -5729.782607823          4.078489001          3.533262575
        24      -5729.810926760      -5729.982395088      -5729.782607823          4.252839734          3.775919610
        25      -5729.810926760      -5729.986381401      -5729.782607823          4.262235801          3.787607368
        26      -5729.810926760      -5729.987875819      -5729.782607824          4.326100619          3.873956279
        27      -5729.810926760      -5729.989284079      -5729.782607823          4.337687558          3.888791782
        28      -5729.810926761      -5729.990107059      -5729.782607823          4.366906441          3.927619738
        29      -5729.810926760      -5729.991249790      -5729.782607823          4.387403221          3.954064903
        30      -5729.810926761      -5729.999499794      -5729.782607823          4.909377156          4.614415776
        31      -5729.810926760      -5730.006825333      -5729.782607823          4.923183069          4.630482421
        32      -5729.810926761      -5730.007874693      -5729.782607824          4.937341344          4.647349612
        33      -5729.810926761      -5730.008433104      -5729.782607823          4.951564478          4.664195040
        34      -5729.810926761      -5730.026386678      -5729.782607823          6.423370580          6.363101536
        35      -5729.810926760      -5730.034782152      -5729.782607823          6.435366066          6.379326907
        36      -5729.810926761      -5730.036762174      -5729.782607823          6.443257078          6.388120236
        37      -5729.810926760      -5730.037574338      -5729.782607823          6.468263972          6.414649928
        38      -5729.810926760      -5730.037852346      -5729.782607823          6.480884668          6.428443497
        39      -5729.810926760      -5730.038092006      -5729.782607824          6.501284392          6.450127662
        40      -5729.810926761      -5730.038303164      -5729.782607823          6.508632506          6.458138069
        41      -5729.810926761      -5730.047917907      -5729.782607823          8.209147983          8.257383238
        42      -5729.810926761      -5730.055780387      -5729.782607823          8.213657204          8.263806559
        43      -5729.810926760      -5730.056589013      -5729.782607823          8.239802762          8.299388007
        44      -5729.810926761      -5730.056999541      -5729.782607823          8.249210688          8.310883965
        45      -5729.810926760      -5730.057146860      -5729.782607823          8.257820512          8.321461533
        46      -5729.810926760      -5730.057644839      -5729.782607823          8.364007697          8.449230548
        47      -5729.810926761      -5730.058134607      -5729.782607823          8.371023282          8.456798423
        48      -5729.810926760      -5730.058254795      -5729.782607823          8.389323236          8.476678938
        49      -5729.810926761      -5730.058383063      -5729.782607823          8.396296776          8.484110488
        50      -5729.810926760      -5730.058480846      -5729.782607823          8.413338589          8.502466284
        51      -5729.810926761      -5730.058594630      -5729.782607823          8.420212952          8.509720551
        52      -5729.810926760      -5730.058674690      -5729.782607823          8.429320000          8.519405223
        53      -5729.810926760      -5730.058739414      -5729.782607823          8.435992352          8.526540061
        54      -5729.810926760      -5730.059098855      -5729.782607823          8.535425455          8.631989325
        55      -5729.810926761      -5730.059611071      -5729.782607824          8.540098238          8.637064018
        56      -5729.810926760      -5730.059949652      -5729.782607823          8.630565095          8.731525126
        57      -5729.810926761      -5730.060429850      -5729.782607823          8.635311057          8.736742385
        58      -5729.810926760      -5730.060657979      -5729.782607824          8.691024199          8.795532254
        59      -5729.810926760      -5730.060947646      -5729.782607824          8.696184037          8.800978807
        60      -5729.810926761      -5730.061037084      -5729.782607824          8.709497701          8.814834081
        61      -5729.810926760      -5730.061130414      -5729.782607823          8.716203836          8.822024333
        62      -5729.810926760      -5730.061212350      -5729.782607823          8.728746143          8.835188352
        63      -5729.810926761      -5730.061303171      -5729.782607823          8.735395035          8.842265889
        64      -5729.810926761      -5730.061353578      -5729.782607823          8.739591372          8.846664417
        65      -5729.810926760      -5730.073569228      -5729.782607823         10.325690613         10.499740632
        66      -5729.810926761      -5730.075743394      -5729.782607823         10.328232353         10.502813486
        67      -5729.810926760      -5730.076033253      -5729.782607823         10.333619087         10.508323604
        68      -5729.810926761      -5730.076298003      -5729.782607823         10.337505084         10.512348797
        69      -5729.810926760      -5730.076459200      -5729.782607823         10.339765964         10.514594812
        70      -5729.810926760      -5730.084234946      -5729.782607824         10.622199692         10.797704315
        71      -5729.810926761      -5730.086895218      -5729.782607823         10.629666393         10.805102321
        72      -5729.810926760      -5730.088562166      -5729.782607823         10.644021909         10.818499011
        73      -5729.810926761      -5730.089611141      -5729.782607823         10.650766240         10.825135439
        74      -5729.810926761      -5730.090545855      -5729.782607823         10.662727988         10.836611163
        75      -5729.810926760      -5730.091279320      -5729.782607823         10.682341975         10.855572324
        76      -5729.810926760      -5730.091882421      -5729.782607823         10.687712522         10.861027485
        77      -5729.810926761      -5730.092445796      -5729.782607823         10.706931061         10.879941355
        78      -5729.810926761      -5730.092971633      -5729.782607823         10.711278101         10.884403824
        79      -5729.810926760      -5730.098021695      -5729.782607823         10.942410663         11.115177638
        80      -5729.810926760      -5730.101566454      -5729.782607823         10.945505164         11.119029226
        81      -5729.810926760      -5730.103288753      -5729.782607823         11.002691804         11.181466861
        82      -5729.810926760      -5730.104347688      -5729.782607823         11.006658634         11.185559621
        83      -5729.810926760      -5730.104559623      -5729.782607823         11.011521499         11.190349563
        84      -5729.810926760      -5730.108150259      -5729.782607823         11.198213343         11.374890386
        85      -5729.810926760      -5730.109193657      -5729.782607823         11.200603660         11.377479478
        86      -5729.810926761      -5730.109792211      -5729.782607823         11.204263661         11.381276569
        87      -5729.810926761      -5730.110136855      -5729.782607823         11.206250401         11.383400039
        88      -5729.810926760      -5730.111256516      -5729.782607823         11.233251251         11.411368509
        89      -5729.810926761      -5730.111472922      -5729.782607823         11.238816162         11.417121369
        90      -5729.810926760      -5730.111643366      -5729.782607823         11.243815811         11.422110179
        91      -5729.810926761      -5730.111789248      -5729.782607823         11.248782350         11.427195280
        92      -5729.810926760      -5730.111887989      -5729.782607823         11.251028180         11.429421829
        93      -5729.810926761      -5730.113509763      -5729.782607824         11.372246961         11.551049582
        94      -5729.810926761      -5730.114144085      -5729.782607823         11.373255972         11.552065473
        95      -5729.810926761      -5730.114438584      -5729.782607823         11.376691770         11.555089795
        96      -5729.810926760      -5730.114613786      -5729.782607823         11.378171217         11.556534563
        97      -5729.810926761      -5730.114754433      -5729.782607823         11.381043343         11.559180257
        98      -5729.810926760      -5730.114921833      -5729.782607823         11.391065023         11.568552400
        99      -5729.810926760      -5730.115061029      -5729.782607823         11.392578888         11.570071715
       100      -5729.810926761      -5730.115200440      -5729.782607824         11.403557631         11.580512400
       101      -5729.810926760      -5730.115335382      -5729.782607823         11.404970148         11.581923404
       102      -5729.810926761      -5730.115464750      -5729.782607823         11.415348255         11.591762618
       103      -5729.810926760      -5730.115589712      -5729.782607823         11.416733215         11.593162327
       104      -5729.810926760      -5730.115636760      -5729.782607823         11.418946693         11.595288102
       105      -5729.810926761      -5730.115759180      -5729.782607824         11.429194370         11.605028398
       106      -5729.810926761      -5730.115877983      -5729.782607823         11.430499707         11.606340751
       107      -5729.810926760      -5730.115992634      -5729.782607823         11.440351265         11.615701441
       108      -5729.810926760      -5730.116103792      -5729.782607824         11.441655094         11.617011902
       109      -5729.810926761      -5730.116177503      -5729.782607823         11.447640045         11.622687229
       110      -5729.810926760      -5730.116249781      -5729.782607823         11.448965247         11.624003071
       111      -5729.810926761      -5730.116320419      -5729.782607823         11.454796576         11.629529410
       112      -5729.810926761      -5730.116389690      -5729.782607824         11.456088790         11.630812113
       113      -5729.810926760      -5730.116435020      -5729.782607823         11.458416641         11.633036741
       114      -5729.810926761      -5730.116502015      -5729.782607823         11.464070832         11.638393389
       115      -5729.810926761      -5730.116567760      -5729.782607824         11.465321047         11.639633941
       116      -5729.810926761      -5730.116632058      -5729.782607823         11.470837678         11.644856818
       117      -5729.810926761      -5730.116694433      -5729.782607823         11.471920734         11.645931633
       118      -5729.810926760      -5730.116984967      -5729.782607823         11.502385641         11.674933596
       119      -5729.810926761      -5730.117249988      -5729.782607823         11.503316180         11.675918290
       120      -5729.810926761      -5730.117488979      -5729.782607823         11.530009942         11.701227751
       121      -5729.810926761      -5730.117707760      -5729.782607823         11.530881007         11.702158281
       122      -5729.810926760      -5730.117727110      -5729.782607823         11.532053710         11.703279431
       123      -5729.810926761      -5730.117947502      -5729.782607823         11.558500059         11.728298269
       124      -5729.810926760      -5730.118148651      -5729.782607823         11.559222947         11.729041624
       125      -5729.810926761      -5730.118248513      -5729.782607823         11.570953909         11.739844452
       126      -5729.810926760      -5730.118327482      -5729.782607823         11.571383241         11.740415274
       127      -5729.810926760      -5730.118350040      -5729.782607823         11.572933789         11.741911641
       128      -5729.810926760      -5730.118369659      -5729.782607823         11.574128600         11.743055430
       129      -5729.810926760      -5730.118389074      -5729.782607823         11.575539915         11.744355581
       130      -5729.810926760      -5730.118403716      -5729.782607823         11.576149324         11.744940653
       131      -5729.810926760      -5730.119109903      -5729.782607823         11.675581060         11.838676017
       132      -5729.810926761      -5730.119550577      -5729.782607824         11.675876606         11.838829349
       133      -5729.810926760      -5730.119683621      -5729.782607823         11.695845519         11.856877158
       134      -5729.810926760      -5730.119779575      -5729.782607823         11.696251486         11.857259234
       135      -5729.810926761      -5730.119793532      -5729.782607823         11.696640540         11.857635959
       136      -5729.810926760      -5730.119822693      -5729.782607823         11.699154618         11.859890206
       137      -5729.810926761      -5730.119837643      -5729.782607823         11.699546403         11.860208268
       138      -5729.810926760      -5730.119846403      -5729.782607823         11.700139304         11.860664053
       139      -5729.810926761      -5730.119863792      -5729.782607823         11.701334376         11.861651291
       140      -5729.810926760      -5730.119895383      -5729.782607824         11.705390497         11.865260987
       141      -5729.810926760      -5730.119914466      -5729.782607823         11.705769476         11.865504695
       142      -5729.810926761      -5730.119922439      -5729.782607823         11.706104546         11.865785108
       143      -5729.810926761      -5730.119968500      -5729.782607823         11.712508239         11.871177930
       144      -5729.810926761      -5730.120001219      -5729.782607823         11.713314701         11.872041142
       145      -5729.810926761      -5730.120010533      -5729.782607823         11.713686278         11.872357650
       146      -5729.810926761      -5730.120017414      -5729.782607823         11.714215700         11.872841186
       147      -5729.810926760      -5730.120149533      -5729.782607823         11.735114625         11.891272240
       148      -5729.810926761      -5730.120229668      -5729.782607823         11.735437501         11.891530106
       149      -5729.810926761      -5730.120242481      -5729.782607823         11.735741398         11.891829657
       150      -5729.810926760      -5730.120251641      -5729.782607824         11.737684327         11.893549349
       151      -5729.810926761      -5730.120264552      -5729.782607823         11.737942996         11.893783588
       152      -5729.810926760      -5730.120272359      -5729.782607823         11.739755006         11.895295385
       153      -5729.810926761      -5730.120286321      -5729.782607824         11.740041998         11.895587552
       154      -5729.810926761      -5730.120299849      -5729.782607823         11.742360932         11.897692471
       155      -5729.810926761      -5730.120310642      -5729.782607823         11.742627383         11.897908198
       156      -5729.810926761      -5730.120316243      -5729.782607823         11.743183089         11.898352985
       157      -5729.810926761      -5730.120321029      -5729.782607823         11.743561767         11.898702193
       158      -5729.810926761      -5730.120327543      -5729.782607823         11.744166977         11.899229071
       159      -5729.810926761      -5730.120335422      -5729.782607823         11.745608293         11.900487802
       160      -5729.810926761      -5730.120344255      -5729.782607823         11.745853930         11.900717929
       161      -5729.810926761      -5730.120372318      -5729.782607823         11.750707656         11.904925244
       162      -5729.810926760      -5730.120393546      -5729.782607823         11.750972217         11.905201334
       163      -5729.810926760      -5730.120405146      -5729.782607823         11.753113522         11.907136231
       164      -5729.810926760      -5730.120415067      -5729.782607823         11.753348573         11.907334509
       165      -5729.810926760      -5730.120418879      -5729.782607823         11.753639645         11.907570975
       166      -5729.810926761      -5730.120465913      -5729.782607824         11.763731788         11.916301458
       167      -5729.810926760      -5730.120508658      -5729.782607824         11.764064169         11.916694651
       168      -5729.810926760      -5730.120516984      -5729.782607823         11.764598799         11.917217576
       169      -5729.810926761      -5730.120521882      -5729.782607823         11.765086301         11.917678678
       170      -5729.810926761      -5730.120530552      -5729.782607824         11.766322108         11.918701264
       171      -5729.810926761      -5730.120535916      -5729.782607823         11.766651494         11.919029429
       172      -5729.810926761      -5730.120539168      -5729.782607823         11.766956660         11.919306243
       173      -5729.810926761      -5730.120599689      -5729.782607823         11.781091803         11.931873019
       174      -5729.810926761      -5730.120653754      -5729.782607823         11.781254597         11.932025956
       175      -5729.810926760      -5730.120660408      -5729.782607823         11.781726189         11.932374371
       176      -5729.810926761      -5730.120663751      -5729.782607824         11.782070171         11.932685460
       177      -5729.810926761      -5730.119124186      -5729.782607823         11.764828065         11.916775529
       178      -5729.810926760      -5730.120319708      -5729.782607823         11.765344404         11.917457086
       179      -5729.810926761      -5730.120440871      -5729.782607824         11.765686274         11.917930348
       180      -5729.810926760      -5730.120516349      -5729.782607823         11.766276734         11.918617233
       181      -5729.810926761      -5730.120527837      -5729.782607823         11.766555466         11.918908627
       182      -5729.810926761      -5730.120532560      -5729.782607823         11.767332429         11.919624324
       183      -5729.810926761      -5730.120545541      -5729.782607823         11.768599121         11.920777404
       184      -5729.810926760      -5730.120550783      -5729.782607823         11.769258675         11.921319003
       185      -5729.810926761      -5730.120554733      -5729.782607823         11.769554331         11.921601689
       186      -5729.810926760      -5730.120558148      -5729.782607823         11.769905056         11.921915392
       187      -5729.810926761      -5730.120575205      -5729.782607823         11.774138544         11.925652601
       188      -5729.810926761      -5730.120596163      -5729.782607823         11.774342810         11.925864215
       189      -5729.810926760      -5730.120588567      -5729.782607823         11.783330965         11.933802901
       190      -5729.810926761      -5730.120666610      -5729.782607823         11.783581593         11.934084822
       191      -5729.810926760      -5730.120673281      -5729.782607824         11.783768905         11.934235599
       192      -5729.810926760      -5730.120678392      -5729.782607823         11.784708212         11.935086819
       193      -5729.810926760      -5730.120682547      -5729.782607823         11.784920779         11.935264235
       194      -5729.810926760      -5730.120686374      -5729.782607824         11.785683555         11.935955423
       195      -5729.810926761      -5730.120690207      -5729.782607823         11.785851058         11.936094672
       196      -5729.810926761      -5730.120777624      -5729.782607823         11.800253665         11.948981799
       197      -5729.810926760      -5730.120796544      -5729.782607823         11.800414785         11.949097986
       198      -5729.810926761      -5730.120800883      -5729.782607823         11.800801690         11.949443929
       199      -5729.810926760      -5730.120803184      -5729.782607823         11.801031444         11.949637762
       200      -5729.810926761      -5730.120805109      -5729.782607823         11.801258666         11.949842304
       201      -5729.810926761      -5730.120827925      -5729.782607823         11.805229035         11.953395400
       202      -5729.810926761      -5730.120834558      -5729.782607824         11.805378829         11.953511609
       203      -5729.810926761      -5730.120839957      -5729.782607823         11.806457676         11.954485719
       204      -5729.810926761      -5730.120843290      -5729.782607823         11.806632633         11.954634078
       205      -5729.810926761      -5730.120846613      -5729.782607823         11.807403725         11.955336296
       206      -5729.810926760      -5730.120849871      -5729.782607824         11.807574235         11.955476247
       207      -5729.810926760      -5730.120852869      -5729.782607823         11.808131807         11.955981981
       208      -5729.810926760      -5730.120855091      -5729.782607823         11.808351733         11.956169097
       209      -5729.810926761      -5730.120856355      -5729.782607824         11.808489100         11.956295083
       210      -5729.810926761      -5730.120974449      -5729.782607823         11.829880840         11.975474197
       211      -5729.810926761      -5730.120990210      -5729.782607823         11.829994221         11.975552983
       212      -5729.810926761      -5730.121003234      -5729.782607823         11.833699076         11.978887760
       213      -5729.810926761      -5730.121012245      -5729.782607823         11.833788121         11.978930340
       214      -5729.810926761      -5730.121013414      -5729.782607823         11.833940157         11.979054268
       215      -5729.810926760      -5730.121029428      -5729.782607823         11.841891796         11.985958747
       216      -5729.810926761      -5730.121055702      -5729.782607823         11.842103944         11.986175673
       217      -5729.810926760      -5730.121060126      -5729.782607823         11.842367414         11.986453076
       218      -5729.810926761      -5730.121062023      -5729.782607823         11.842609409         11.986672711
       219      -5729.810926761      -5730.121065268      -5729.782607824         11.844124421         11.987936099
       220      -5729.810926760      -5730.121071013      -5729.782607824         11.844304707         11.988114666
       221      -5729.810926760      -5730.121072382      -5729.782607823         11.844478363         11.988287389
       222      -5729.810926761      -5730.121080057      -5729.782607823         11.848177171         11.991683941
       223      -5729.810926761      -5730.121090879      -5729.782607823         11.848220800         11.991600526
       224      -5729.810926760      -5730.121092419      -5729.782607823         11.848368851         11.991712815
       225      -5729.810926761      -5730.121093466      -5729.782607823         11.848502767         11.991820697
       226      -5729.810926761      -5730.121094681      -5729.782607823         11.848723983         11.992011769
       227      -5729.810926760      -5730.121103362      -5729.782607823         11.850435186         11.993478397
       228      -5729.810926761      -5730.121104329      -5729.782607823         11.850597238         11.993625866
       229      -5729.810926760      -5730.121105907      -5729.782607823         11.850919132         11.993905998
       230      -5729.810926760      -5730.121107114      -5729.782607823         11.851226793         11.994179407
       231      -5729.810926760      -5730.121108233      -5729.782607823         11.851405229         11.994325904
       232      -5729.810926761      -5730.121109250      -5729.782607823         11.851644703         11.994540044
       233      -5729.810926761      -5730.121110170      -5729.782607823         11.851734787         11.994613842
       234      -5729.810926761      -5730.121116093      -5729.782607823         11.853032752         11.995727336
       235      -5729.810926760      -5730.121117342      -5729.782607823         11.853179391         11.995860552
       236      -5729.810926761      -5730.121118498      -5729.782607823         11.853434779         11.996075075
       237      -5729.810926761      -5730.121119500      -5729.782607823         11.853669637         11.996284237
       238      -5729.810926760      -5730.121120355      -5729.782607823         11.853759893         11.996358178
       239      -5729.810926761      -5730.121127293      -5729.782607823         11.855278154         11.997658420
       240      -5729.810926760      -5730.121128501      -5729.782607823         11.855422959         11.997789616
       241      -5729.810926761      -5730.121129423      -5729.782607823         11.855605550         11.997942398
       242      -5729.810926761      -5730.121130818      -5729.782607824         11.856111332         11.998384167
       243      -5729.810926760      -5730.121132450      -5729.782607823         11.856209058         11.998460838
       244      -5729.810926760      -5730.121227698      -5729.782607823         11.898944335         12.035407749
       245      -5729.810926760      -5730.121300553      -5729.782607823         11.898993459         12.035392140
       246      -5729.810926761      -5730.121302699      -5729.782607823         11.899839769         12.036054372
       247      -5729.810926760      -5730.121303958      -5729.782607823         11.899912072         12.036090047
       248      -5729.810926760      -5730.121304342      -5729.782607823         11.899986839         12.036134906
