 # Version information for this restart file 
 # current date 2024-01-12 19:17:07.178
 # current working dir /gpfs/home/cahart/transport/melamine/au_from-h2/ci-neb/ts1/dft_leads-sz_tip-dzvp_surf-dzvp_kpoints-2-4-20_replicas-3
 # Program compiled at                              Thu 21 Sep 19:20:17 BST 2023
 # Program compiled on                                           hx1-c12-login-1
 # Program compiled for                                                    local
 # Source code revision number                                       git:5518aa6
 &GLOBAL
   EXTENDED_FFT_LENGTHS  T
   PRINT_LEVEL  MEDIUM
   PROJECT_NAME 2_dft_wfn-r-0
   OUTPUT_FILE_NAME 2_dft_wfn-r-0.out
   RUN_TYPE  BAND
 &END GLOBAL
 &MOTION
   &BAND
     NPROC_REP  64
     BAND_TYPE  CI-NEB
     NUMBER_OF_REPLICA  3
     K_SPRING     5.0000000000000003E-02
     &CI_NEB
       NSTEPS_IT  5
     &END CI_NEB
     &OPTIMIZE_BAND
       OPT_TYPE  DIIS
       &DIIS
         MAX_STEPS  1000
       &END DIIS
     &END OPTIMIZE_BAND
     &REPLICA
       &COORD
             0.0000000000000000E+00    0.0000000000000000E+00    0.0000000000000000E+00
             0.0000000000000000E+00    2.9549999999999979E+00    0.0000000000000000E+00
             0.0000000000000000E+00    5.9109999999999987E+00    0.0000000000000000E+00
             2.9560000000000008E+00    0.0000000000000000E+00    0.0000000000000000E+00
             2.9560000000000008E+00    2.9549999999999979E+00    0.0000000000000000E+00
             2.9560000000000008E+00    5.9109999999999987E+00    0.0000000000000000E+00
             5.9120000000000017E+00    0.0000000000000000E+00    0.0000000000000000E+00
             5.9120000000000017E+00    2.9549999999999979E+00    0.0000000000000000E+00
             5.9120000000000017E+00    5.9109999999999987E+00    0.0000000000000000E+00
             8.6699999999999964E+00    0.0000000000000000E+00    0.0000000000000000E+00
             8.6699999999999964E+00    2.9549999999999979E+00    0.0000000000000000E+00
             8.6699999999999964E+00    5.9109999999999987E+00    0.0000000000000000E+00
             1.1625999999999982E+01    0.0000000000000000E+00    0.0000000000000000E+00
             1.1625999999999982E+01    2.9549999999999979E+00    0.0000000000000000E+00
             1.1625999999999982E+01    5.9109999999999987E+00    0.0000000000000000E+00
             1.4780000000000004E+00    1.4780000000000004E+00    2.0899999999999976E+00
             1.4780000000000004E+00    4.4329999999999936E+00    2.0899999999999976E+00
             1.4780000000000004E+00    7.3889999999999931E+00    2.0899999999999976E+00
             4.4339999999999984E+00    1.4780000000000004E+00    2.0899999999999976E+00
             4.4339999999999984E+00    4.4329999999999936E+00    2.0899999999999976E+00
             4.4339999999999984E+00    7.3889999999999931E+00    2.0899999999999976E+00
             7.1919999999999948E+00    1.4780000000000004E+00    2.0899999999999976E+00
             7.1919999999999948E+00    4.4329999999999936E+00    2.0899999999999976E+00
             7.1919999999999948E+00    7.3889999999999931E+00    2.0899999999999976E+00
             1.0147999999999984E+01    1.4780000000000004E+00    2.0899999999999976E+00
             1.0147999999999984E+01    4.4329999999999936E+00    2.0899999999999976E+00
             1.0147999999999984E+01    7.3889999999999931E+00    2.0899999999999976E+00
             1.3103999999999996E+01    1.4780000000000004E+00    2.0899999999999976E+00
             1.3103999999999996E+01    4.4329999999999936E+00    2.0899999999999976E+00
             1.3103999999999996E+01    7.3889999999999931E+00    2.0899999999999976E+00
             0.0000000000000000E+00    0.0000000000000000E+00    4.1799999999999953E+00
             0.0000000000000000E+00    2.9549999999999979E+00    4.1799999999999953E+00
             0.0000000000000000E+00    5.9109999999999987E+00    4.1799999999999953E+00
             2.9560000000000008E+00    0.0000000000000000E+00    4.1799999999999953E+00
             2.9560000000000008E+00    2.9549999999999979E+00    4.1799999999999953E+00
             2.9560000000000008E+00    5.9109999999999987E+00    4.1799999999999953E+00
             5.9120000000000017E+00    0.0000000000000000E+00    4.1799999999999953E+00
             5.9120000000000017E+00    2.9549999999999979E+00    4.1799999999999953E+00
             5.9120000000000017E+00    5.9109999999999987E+00    4.1799999999999953E+00
             8.6699999999999964E+00    0.0000000000000000E+00    4.1799999999999953E+00
             8.6699999999999964E+00    2.9549999999999979E+00    4.1799999999999953E+00
             8.6699999999999964E+00    5.9109999999999987E+00    4.1799999999999953E+00
             1.1625999999999982E+01    0.0000000000000000E+00    4.1799999999999953E+00
             1.1625999999999982E+01    2.9549999999999979E+00    4.1799999999999953E+00
             1.1625999999999982E+01    5.9109999999999987E+00    4.1799999999999953E+00
             1.4780000000000004E+00    1.4780000000000004E+00    6.2700000000000058E+00
             1.4780000000000004E+00    4.4329999999999936E+00    6.2700000000000058E+00
             1.4780000000000004E+00    7.3889999999999931E+00    6.2700000000000058E+00
             4.4339999999999984E+00    1.4780000000000004E+00    6.2700000000000058E+00
             4.4339999999999984E+00    4.4329999999999936E+00    6.2700000000000058E+00
             4.4339999999999984E+00    7.3889999999999931E+00    6.2700000000000058E+00
             7.1919999999999948E+00    1.4780000000000004E+00    6.2700000000000058E+00
             7.1919999999999948E+00    4.4329999999999936E+00    6.2700000000000058E+00
             7.1919999999999948E+00    7.3889999999999931E+00    6.2700000000000058E+00
             1.0147999999999984E+01    1.4780000000000004E+00    6.2700000000000058E+00
             1.0147999999999984E+01    4.4329999999999936E+00    6.2700000000000058E+00
             1.0147999999999984E+01    7.3889999999999931E+00    6.2700000000000058E+00
             1.3103999999999996E+01    1.4780000000000004E+00    6.2700000000000058E+00
             1.3103999999999996E+01    4.4329999999999936E+00    6.2700000000000058E+00
             1.3103999999999996E+01    7.3889999999999931E+00    6.2700000000000058E+00
             0.0000000000000000E+00    0.0000000000000000E+00    8.3599999999999905E+00
             0.0000000000000000E+00    2.9549999999999979E+00    8.3599999999999905E+00
             0.0000000000000000E+00    5.9109999999999987E+00    8.3599999999999905E+00
             2.9560000000000008E+00    0.0000000000000000E+00    8.3599999999999905E+00
             2.9560000000000008E+00    2.9549999999999979E+00    8.3599999999999905E+00
             2.9560000000000008E+00    5.9109999999999987E+00    8.3599999999999905E+00
             5.9120000000000017E+00    0.0000000000000000E+00    8.3599999999999905E+00
             5.9120000000000017E+00    2.9549999999999979E+00    8.3599999999999905E+00
             5.9120000000000017E+00    5.9109999999999987E+00    8.3599999999999905E+00
             8.6699999999999964E+00    0.0000000000000000E+00    8.3599999999999905E+00
             8.6699999999999964E+00    2.9549999999999979E+00    8.3599999999999905E+00
             8.6699999999999964E+00    5.9109999999999987E+00    8.3599999999999905E+00
             1.1625999999999982E+01    0.0000000000000000E+00    8.3599999999999905E+00
             1.1625999999999982E+01    2.9549999999999979E+00    8.3599999999999905E+00
             1.1625999999999982E+01    5.9109999999999987E+00    8.3599999999999905E+00
             1.4780000000000004E+00    1.4780000000000004E+00    1.0449999999999989E+01
             1.4780000000000004E+00    4.4329999999999936E+00    1.0449999999999989E+01
             1.4780000000000004E+00    7.3889999999999931E+00    1.0449999999999989E+01
             4.4339999999999984E+00    1.4780000000000004E+00    1.0449999999999989E+01
             4.4339999999999984E+00    4.4329999999999936E+00    1.0449999999999989E+01
             4.4339999999999984E+00    7.3889999999999931E+00    1.0449999999999989E+01
             7.1919999999999948E+00    1.4780000000000004E+00    1.0449999999999989E+01
             7.1919999999999948E+00    4.4329999999999936E+00    1.0449999999999989E+01
             7.1919999999999948E+00    7.3889999999999931E+00    1.0449999999999989E+01
             1.0147999999999984E+01    1.4780000000000004E+00    1.0449999999999989E+01
             1.0147999999999984E+01    4.4329999999999936E+00    1.0449999999999989E+01
             1.0147999999999984E+01    7.3889999999999931E+00    1.0449999999999989E+01
             1.3103999999999996E+01    1.4780000000000004E+00    1.0449999999999989E+01
             1.3103999999999996E+01    4.4329999999999936E+00    1.0449999999999989E+01
             1.3103999999999996E+01    7.3889999999999931E+00    1.0449999999999989E+01
             4.8554000000000013E+00    5.9118999999999957E+00    1.2031799999999993E+01
             9.5279999999999880E+00    5.9137000000000004E+00    1.2033999999999995E+01
             7.1919999999999948E+00    5.9340000000000002E+00    1.2040000000000003E+01
             4.0750319167999960E+00    5.9049488169999922E+00    1.2696844061799993E+01
             1.0293988349499990E+01    5.9062142778999966E+00    1.2716532694499989E+01
             6.0099999686000016E+00    5.9120523852999920E+00    1.2765819797399992E+01
             8.3750478947999945E+00    5.9129627334999961E+00    1.2760746495899991E+01
             8.4047327064999973E+00    5.8893877815999920E+00    1.4094060897199972E+01
             5.9788500868999961E+00    5.8882515164999960E+00    1.4094239568499987E+01
             7.1943473362999875E+00    5.8799164376999942E+00    1.4701118490299978E+01
             7.1912293096999917E+00    5.8521058220999960E+00    1.6050622658199963E+01
             6.3086348446999958E+00    5.8615539360999946E+00    1.6548439364999986E+01
             8.0709262665000026E+00    5.8621389353999964E+00    1.6553588809699995E+01
             7.3119999999999887E+00    5.9340000000000002E+00    2.1042999999999989E+01
             5.8129999999999908E+00    7.4339999999999966E+00    2.2991999999999976E+01
             8.8129999999999882E+00    4.4339999999999984E+00    2.2991999999999976E+01
             5.8129999999999908E+00    4.4329999999999936E+00    2.2991999999999976E+01
             8.8129999999999882E+00    7.4339999999999966E+00    2.2991999999999976E+01
             1.4780000000000004E+00    1.4780000000000004E+00    2.5081999999999951E+01
             1.4780000000000004E+00    4.4329999999999936E+00    2.5081999999999951E+01
             1.4780000000000004E+00    7.3889999999999931E+00    2.5081999999999951E+01
             4.4339999999999984E+00    1.4780000000000004E+00    2.5081999999999951E+01
             4.4339999999999984E+00    4.4329999999999936E+00    2.5081999999999951E+01
             4.4339999999999984E+00    7.3889999999999931E+00    2.5081999999999951E+01
             7.1919999999999948E+00    1.4780000000000004E+00    2.5081999999999951E+01
             7.1919999999999948E+00    4.4329999999999936E+00    2.5081999999999951E+01
             7.1919999999999948E+00    7.3889999999999931E+00    2.5081999999999951E+01
             1.0147999999999984E+01    1.4780000000000004E+00    2.5081999999999951E+01
             1.0147999999999984E+01    4.4329999999999936E+00    2.5081999999999951E+01
             1.0147999999999984E+01    7.3889999999999931E+00    2.5081999999999951E+01
             1.3103999999999996E+01    1.4780000000000004E+00    2.5081999999999951E+01
             1.3103999999999996E+01    4.4329999999999936E+00    2.5081999999999951E+01
             1.3103999999999996E+01    7.3889999999999931E+00    2.5081999999999951E+01
             0.0000000000000000E+00    0.0000000000000000E+00    2.7171999999999976E+01
             0.0000000000000000E+00    2.9549999999999979E+00    2.7171999999999976E+01
             0.0000000000000000E+00    5.9109999999999987E+00    2.7171999999999976E+01
             2.9560000000000008E+00    0.0000000000000000E+00    2.7171999999999976E+01
             2.9560000000000008E+00    2.9549999999999979E+00    2.7171999999999976E+01
             2.9560000000000008E+00    5.9109999999999987E+00    2.7171999999999976E+01
             5.9120000000000017E+00    0.0000000000000000E+00    2.7171999999999976E+01
             5.9120000000000017E+00    2.9549999999999979E+00    2.7171999999999976E+01
             5.9120000000000017E+00    5.9109999999999987E+00    2.7171999999999976E+01
             8.6699999999999964E+00    0.0000000000000000E+00    2.7171999999999976E+01
             8.6699999999999964E+00    2.9549999999999979E+00    2.7171999999999976E+01
             8.6699999999999964E+00    5.9109999999999987E+00    2.7171999999999976E+01
             1.1625999999999982E+01    0.0000000000000000E+00    2.7171999999999976E+01
             1.1625999999999982E+01    2.9549999999999979E+00    2.7171999999999976E+01
             1.1625999999999982E+01    5.9109999999999987E+00    2.7171999999999976E+01
             1.4780000000000004E+00    1.4780000000000004E+00    2.9261999999999986E+01
             1.4780000000000004E+00    4.4329999999999936E+00    2.9261999999999986E+01
             1.4780000000000004E+00    7.3889999999999931E+00    2.9261999999999986E+01
             4.4339999999999984E+00    1.4780000000000004E+00    2.9261999999999986E+01
             4.4339999999999984E+00    4.4329999999999936E+00    2.9261999999999986E+01
             4.4339999999999984E+00    7.3889999999999931E+00    2.9261999999999986E+01
             7.1919999999999948E+00    1.4780000000000004E+00    2.9261999999999986E+01
             7.1919999999999948E+00    4.4329999999999936E+00    2.9261999999999986E+01
             7.1919999999999948E+00    7.3889999999999931E+00    2.9261999999999986E+01
             1.0147999999999984E+01    1.4780000000000004E+00    2.9261999999999986E+01
             1.0147999999999984E+01    4.4329999999999936E+00    2.9261999999999986E+01
             1.0147999999999984E+01    7.3889999999999931E+00    2.9261999999999986E+01
             1.3103999999999996E+01    1.4780000000000004E+00    2.9261999999999986E+01
             1.3103999999999996E+01    4.4329999999999936E+00    2.9261999999999986E+01
             1.3103999999999996E+01    7.3889999999999931E+00    2.9261999999999986E+01
             0.0000000000000000E+00    0.0000000000000000E+00    3.1351999999999943E+01
             0.0000000000000000E+00    2.9549999999999979E+00    3.1351999999999943E+01
             0.0000000000000000E+00    5.9109999999999987E+00    3.1351999999999943E+01
             2.9560000000000008E+00    0.0000000000000000E+00    3.1351999999999943E+01
             2.9560000000000008E+00    2.9549999999999979E+00    3.1351999999999943E+01
             2.9560000000000008E+00    5.9109999999999987E+00    3.1351999999999943E+01
             5.9120000000000017E+00    0.0000000000000000E+00    3.1351999999999943E+01
             5.9120000000000017E+00    2.9549999999999979E+00    3.1351999999999943E+01
             5.9120000000000017E+00    5.9109999999999987E+00    3.1351999999999943E+01
             8.6699999999999964E+00    0.0000000000000000E+00    3.1351999999999943E+01
             8.6699999999999964E+00    2.9549999999999979E+00    3.1351999999999943E+01
             8.6699999999999964E+00    5.9109999999999987E+00    3.1351999999999943E+01
             1.1625999999999982E+01    0.0000000000000000E+00    3.1351999999999943E+01
             1.1625999999999982E+01    2.9549999999999979E+00    3.1351999999999943E+01
             1.1625999999999982E+01    5.9109999999999987E+00    3.1351999999999943E+01
             1.4780000000000004E+00    1.4780000000000004E+00    3.3441999999999965E+01
             1.4780000000000004E+00    4.4329999999999936E+00    3.3441999999999965E+01
             1.4780000000000004E+00    7.3889999999999931E+00    3.3441999999999965E+01
             4.4339999999999984E+00    1.4780000000000004E+00    3.3441999999999965E+01
             4.4339999999999984E+00    4.4329999999999936E+00    3.3441999999999965E+01
             4.4339999999999984E+00    7.3889999999999931E+00    3.3441999999999965E+01
             7.1919999999999948E+00    1.4780000000000004E+00    3.3441999999999965E+01
             7.1919999999999948E+00    4.4329999999999936E+00    3.3441999999999965E+01
             7.1919999999999948E+00    7.3889999999999931E+00    3.3441999999999965E+01
             1.0147999999999984E+01    1.4780000000000004E+00    3.3441999999999965E+01
             1.0147999999999984E+01    4.4329999999999936E+00    3.3441999999999965E+01
             1.0147999999999984E+01    7.3889999999999931E+00    3.3441999999999965E+01
             1.3103999999999996E+01    1.4780000000000004E+00    3.3441999999999965E+01
             1.3103999999999996E+01    4.4329999999999936E+00    3.3441999999999965E+01
             1.3103999999999996E+01    7.3889999999999931E+00    3.3441999999999965E+01
       &END COORD
       &VELOCITY
             0.0000000000000000E+00    0.0000000000000000E+00    0.0000000000000000E+00
             0.0000000000000000E+00    0.0000000000000000E+00    0.0000000000000000E+00
             0.0000000000000000E+00    0.0000000000000000E+00    0.0000000000000000E+00
             0.0000000000000000E+00    0.0000000000000000E+00    0.0000000000000000E+00
             0.0000000000000000E+00    0.0000000000000000E+00    0.0000000000000000E+00
             0.0000000000000000E+00    0.0000000000000000E+00    0.0000000000000000E+00
             0.0000000000000000E+00    0.0000000000000000E+00    0.0000000000000000E+00
             0.0000000000000000E+00    0.0000000000000000E+00    0.0000000000000000E+00
             0.0000000000000000E+00    0.0000000000000000E+00    0.0000000000000000E+00
             0.0000000000000000E+00    0.0000000000000000E+00    0.0000000000000000E+00
             0.0000000000000000E+00    0.0000000000000000E+00    0.0000000000000000E+00
             0.0000000000000000E+00    0.0000000000000000E+00    0.0000000000000000E+00
             0.0000000000000000E+00    0.0000000000000000E+00    0.0000000000000000E+00
             0.0000000000000000E+00    0.0000000000000000E+00    0.0000000000000000E+00
             0.0000000000000000E+00    0.0000000000000000E+00    0.0000000000000000E+00
             0.0000000000000000E+00    0.0000000000000000E+00    0.0000000000000000E+00
             0.0000000000000000E+00    0.0000000000000000E+00    0.0000000000000000E+00
             0.0000000000000000E+00    0.0000000000000000E+00    0.0000000000000000E+00
             0.0000000000000000E+00    0.0000000000000000E+00    0.0000000000000000E+00
             0.0000000000000000E+00    0.0000000000000000E+00    0.0000000000000000E+00
             0.0000000000000000E+00    0.0000000000000000E+00    0.0000000000000000E+00
             0.0000000000000000E+00    0.0000000000000000E+00    0.0000000000000000E+00
             0.0000000000000000E+00    0.0000000000000000E+00    0.0000000000000000E+00
             0.0000000000000000E+00    0.0000000000000000E+00    0.0000000000000000E+00
             0.0000000000000000E+00    0.0000000000000000E+00    0.0000000000000000E+00
             0.0000000000000000E+00    0.0000000000000000E+00    0.0000000000000000E+00
             0.0000000000000000E+00    0.0000000000000000E+00    0.0000000000000000E+00
             0.0000000000000000E+00    0.0000000000000000E+00    0.0000000000000000E+00
             0.0000000000000000E+00    0.0000000000000000E+00    0.0000000000000000E+00
             0.0000000000000000E+00    0.0000000000000000E+00    0.0000000000000000E+00
             0.0000000000000000E+00    0.0000000000000000E+00    0.0000000000000000E+00
             0.0000000000000000E+00    0.0000000000000000E+00    0.0000000000000000E+00
             0.0000000000000000E+00    0.0000000000000000E+00    0.0000000000000000E+00
             0.0000000000000000E+00    0.0000000000000000E+00    0.0000000000000000E+00
             0.0000000000000000E+00    0.0000000000000000E+00    0.0000000000000000E+00
             0.0000000000000000E+00    0.0000000000000000E+00    0.0000000000000000E+00
             0.0000000000000000E+00    0.0000000000000000E+00    0.0000000000000000E+00
             0.0000000000000000E+00    0.0000000000000000E+00    0.0000000000000000E+00
             0.0000000000000000E+00    0.0000000000000000E+00    0.0000000000000000E+00
             0.0000000000000000E+00    0.0000000000000000E+00    0.0000000000000000E+00
             0.0000000000000000E+00    0.0000000000000000E+00    0.0000000000000000E+00
             0.0000000000000000E+00    0.0000000000000000E+00    0.0000000000000000E+00
             0.0000000000000000E+00    0.0000000000000000E+00    0.0000000000000000E+00
             0.0000000000000000E+00    0.0000000000000000E+00    0.0000000000000000E+00
             0.0000000000000000E+00    0.0000000000000000E+00    0.0000000000000000E+00
             0.0000000000000000E+00    0.0000000000000000E+00    0.0000000000000000E+00
             0.0000000000000000E+00    0.0000000000000000E+00    0.0000000000000000E+00
             0.0000000000000000E+00    0.0000000000000000E+00    0.0000000000000000E+00
             0.0000000000000000E+00    0.0000000000000000E+00    0.0000000000000000E+00
             0.0000000000000000E+00    0.0000000000000000E+00    0.0000000000000000E+00
             0.0000000000000000E+00    0.0000000000000000E+00    0.0000000000000000E+00
             0.0000000000000000E+00    0.0000000000000000E+00    0.0000000000000000E+00
             0.0000000000000000E+00    0.0000000000000000E+00    0.0000000000000000E+00
             0.0000000000000000E+00    0.0000000000000000E+00    0.0000000000000000E+00
             0.0000000000000000E+00    0.0000000000000000E+00    0.0000000000000000E+00
             0.0000000000000000E+00    0.0000000000000000E+00    0.0000000000000000E+00
             0.0000000000000000E+00    0.0000000000000000E+00    0.0000000000000000E+00
             0.0000000000000000E+00    0.0000000000000000E+00    0.0000000000000000E+00
             0.0000000000000000E+00    0.0000000000000000E+00    0.0000000000000000E+00
             0.0000000000000000E+00    0.0000000000000000E+00    0.0000000000000000E+00
             0.0000000000000000E+00    0.0000000000000000E+00    0.0000000000000000E+00
             0.0000000000000000E+00    0.0000000000000000E+00    0.0000000000000000E+00
             0.0000000000000000E+00    0.0000000000000000E+00    0.0000000000000000E+00
             0.0000000000000000E+00    0.0000000000000000E+00    0.0000000000000000E+00
             0.0000000000000000E+00    0.0000000000000000E+00    0.0000000000000000E+00
             0.0000000000000000E+00    0.0000000000000000E+00    0.0000000000000000E+00
             0.0000000000000000E+00    0.0000000000000000E+00    0.0000000000000000E+00
             0.0000000000000000E+00    0.0000000000000000E+00    0.0000000000000000E+00
             0.0000000000000000E+00    0.0000000000000000E+00    0.0000000000000000E+00
             0.0000000000000000E+00    0.0000000000000000E+00    0.0000000000000000E+00
             0.0000000000000000E+00    0.0000000000000000E+00    0.0000000000000000E+00
             0.0000000000000000E+00    0.0000000000000000E+00    0.0000000000000000E+00
             0.0000000000000000E+00    0.0000000000000000E+00    0.0000000000000000E+00
             0.0000000000000000E+00    0.0000000000000000E+00    0.0000000000000000E+00
             0.0000000000000000E+00    0.0000000000000000E+00    0.0000000000000000E+00
             0.0000000000000000E+00    0.0000000000000000E+00    0.0000000000000000E+00
             0.0000000000000000E+00    0.0000000000000000E+00    0.0000000000000000E+00
             0.0000000000000000E+00    0.0000000000000000E+00    0.0000000000000000E+00
             0.0000000000000000E+00    0.0000000000000000E+00    0.0000000000000000E+00
             0.0000000000000000E+00    0.0000000000000000E+00    0.0000000000000000E+00
             0.0000000000000000E+00    0.0000000000000000E+00    0.0000000000000000E+00
             0.0000000000000000E+00    0.0000000000000000E+00    0.0000000000000000E+00
             0.0000000000000000E+00    0.0000000000000000E+00    0.0000000000000000E+00
             0.0000000000000000E+00    0.0000000000000000E+00    0.0000000000000000E+00
             0.0000000000000000E+00    0.0000000000000000E+00    0.0000000000000000E+00
             0.0000000000000000E+00    0.0000000000000000E+00    0.0000000000000000E+00
             0.0000000000000000E+00    0.0000000000000000E+00    0.0000000000000000E+00
             0.0000000000000000E+00    0.0000000000000000E+00    0.0000000000000000E+00
             0.0000000000000000E+00    0.0000000000000000E+00    0.0000000000000000E+00
             0.0000000000000000E+00    0.0000000000000000E+00    0.0000000000000000E+00
             0.0000000000000000E+00    0.0000000000000000E+00    0.0000000000000000E+00
             0.0000000000000000E+00    0.0000000000000000E+00    0.0000000000000000E+00
             0.0000000000000000E+00    0.0000000000000000E+00    0.0000000000000000E+00
             0.0000000000000000E+00    0.0000000000000000E+00    0.0000000000000000E+00
             0.0000000000000000E+00    0.0000000000000000E+00    0.0000000000000000E+00
             0.0000000000000000E+00    0.0000000000000000E+00    0.0000000000000000E+00
             0.0000000000000000E+00    0.0000000000000000E+00    0.0000000000000000E+00
             0.0000000000000000E+00    0.0000000000000000E+00    0.0000000000000000E+00
             0.0000000000000000E+00    0.0000000000000000E+00    0.0000000000000000E+00
             0.0000000000000000E+00    0.0000000000000000E+00    0.0000000000000000E+00
             0.0000000000000000E+00    0.0000000000000000E+00    0.0000000000000000E+00
             0.0000000000000000E+00    0.0000000000000000E+00    0.0000000000000000E+00
             0.0000000000000000E+00    0.0000000000000000E+00    0.0000000000000000E+00
             0.0000000000000000E+00    0.0000000000000000E+00    0.0000000000000000E+00
             0.0000000000000000E+00    0.0000000000000000E+00    0.0000000000000000E+00
             0.0000000000000000E+00    0.0000000000000000E+00    0.0000000000000000E+00
             0.0000000000000000E+00    0.0000000000000000E+00    0.0000000000000000E+00
             0.0000000000000000E+00    0.0000000000000000E+00    0.0000000000000000E+00
             0.0000000000000000E+00    0.0000000000000000E+00    0.0000000000000000E+00
             0.0000000000000000E+00    0.0000000000000000E+00    0.0000000000000000E+00
             0.0000000000000000E+00    0.0000000000000000E+00    0.0000000000000000E+00
             0.0000000000000000E+00    0.0000000000000000E+00    0.0000000000000000E+00
             0.0000000000000000E+00    0.0000000000000000E+00    0.0000000000000000E+00
             0.0000000000000000E+00    0.0000000000000000E+00    0.0000000000000000E+00
             0.0000000000000000E+00    0.0000000000000000E+00    0.0000000000000000E+00
             0.0000000000000000E+00    0.0000000000000000E+00    0.0000000000000000E+00
             0.0000000000000000E+00    0.0000000000000000E+00    0.0000000000000000E+00
             0.0000000000000000E+00    0.0000000000000000E+00    0.0000000000000000E+00
             0.0000000000000000E+00    0.0000000000000000E+00    0.0000000000000000E+00
             0.0000000000000000E+00    0.0000000000000000E+00    0.0000000000000000E+00
             0.0000000000000000E+00    0.0000000000000000E+00    0.0000000000000000E+00
             0.0000000000000000E+00    0.0000000000000000E+00    0.0000000000000000E+00
             0.0000000000000000E+00    0.0000000000000000E+00    0.0000000000000000E+00
             0.0000000000000000E+00    0.0000000000000000E+00    0.0000000000000000E+00
             0.0000000000000000E+00    0.0000000000000000E+00    0.0000000000000000E+00
             0.0000000000000000E+00    0.0000000000000000E+00    0.0000000000000000E+00
             0.0000000000000000E+00    0.0000000000000000E+00    0.0000000000000000E+00
             0.0000000000000000E+00    0.0000000000000000E+00    0.0000000000000000E+00
             0.0000000000000000E+00    0.0000000000000000E+00    0.0000000000000000E+00
             0.0000000000000000E+00    0.0000000000000000E+00    0.0000000000000000E+00
             0.0000000000000000E+00    0.0000000000000000E+00    0.0000000000000000E+00
             0.0000000000000000E+00    0.0000000000000000E+00    0.0000000000000000E+00
             0.0000000000000000E+00    0.0000000000000000E+00    0.0000000000000000E+00
             0.0000000000000000E+00    0.0000000000000000E+00    0.0000000000000000E+00
             0.0000000000000000E+00    0.0000000000000000E+00    0.0000000000000000E+00
             0.0000000000000000E+00    0.0000000000000000E+00    0.0000000000000000E+00
             0.0000000000000000E+00    0.0000000000000000E+00    0.0000000000000000E+00
             0.0000000000000000E+00    0.0000000000000000E+00    0.0000000000000000E+00
             0.0000000000000000E+00    0.0000000000000000E+00    0.0000000000000000E+00
             0.0000000000000000E+00    0.0000000000000000E+00    0.0000000000000000E+00
             0.0000000000000000E+00    0.0000000000000000E+00    0.0000000000000000E+00
             0.0000000000000000E+00    0.0000000000000000E+00    0.0000000000000000E+00
             0.0000000000000000E+00    0.0000000000000000E+00    0.0000000000000000E+00
             0.0000000000000000E+00    0.0000000000000000E+00    0.0000000000000000E+00
             0.0000000000000000E+00    0.0000000000000000E+00    0.0000000000000000E+00