Siesta Version  : trunk-761--smeagol-80
Architecture    : thomas-intel2017update1-intelmpi-mkl
Compiler version: ifort (IFORT) 18.0.3 20180410
Compiler flags  : mpif90 -O2  -fPIC -g -ftree-vectorize -xHost
PP flags        : -DFC_HAVE_ABORT -DMPI
Libraries       :   -lmkl_scalapack_lp64 -lmkl_blacs_intelmpi_lp64 -lmkl_intel_lp64 -lmkl_sequeential -lmkl_core
Directory       : /lustre/scratch/mmm1169/work/cp2k-smeagol-examples/au-chain/siesta4-smeagol/kpoints-2-2-20_constrained_positive_Au-2.8_alex
PARALLEL version

* Running on 2 nodes in parallel
>> Start of run:  30-OCT-2023  15:53:44

                           ***********************       
                           *  WELCOME TO SIESTA  *       
                           ***********************       

reinit: Reading from standard input
reinit: Dumped input in INPUT_TMP.49160
************************** Dump of input data file ****************************
SystemName                   au-chain_szv_shiftx_zerobias          # Descriptive name of the system
SystemLabel                     au-chain_szv_shiftx_zerobias               # Short name for naming files
NumberOfAtoms    9
NumberOfSpecies                 1               # Number of species
PAO.BasisType                   split
%block ChemicalSpeciesLabel
1 79 Au
%endblock ChemicalSpeciesLabel
%block PAO.Basis
  Au  2
n=6  0  1
6.500
1.00
n=5  2  1
5.850
1.00
%endblock PAO.Basis
%block PS.lmax
 Au   3
%endblock PS.lmax
LatticeConstant 1.000 Ang
%block LatticeVectors
  8.4    0.000   0.000    1
  0.000   8.4     0.000   1
  0.000   0.000     25.2 1
%endblock LatticeVectors
AtomicCoordinatesFormat Ang
%block AtomicCoordinatesAndAtomicSpecies
0.0 0.0 0.0 1 Au
0.0 0.0 2.8 1 Au
0.0 0.0 5.6 1 Au
0.0 0.0 8.4 1 Au
1.0 0.0 11.2 1 Au
0.0 0.0 14.0 1 Au
0.0 0.0 16.8 1 Au
0.0 0.0 19.6 1 Au
0.0 0.0 22.4 1 Au
%endblock AtomicCoordinatesAndAtomicSpecies
%block GeometryConstraints
   position   from  1 to 3
   position   from  7 to 9
%endblock GeometryConstraints
%block kgrid_Monkhorst_Pack
  2   0   0     0.0
  0   2   0     0.0
  0   0   1     0.0
%endblock kgrid_Monkhorst_Pack
xc.functional		LDA		# 'LDA', 'GGA'
xc.authors 	 		CA		# 'CA'='PZ', 'PW92', 'PBE'
SpinPolarized			F		# 'T', 'F'		
#FixSpin           F
#TotalSpin        0.0
NonCollinearSpin		F		# 'T', 'F'
MeshCutoff 	 		    200 Ry		# Equivalent plane wave cutoff for the grid
MaxSCFIterations                10000                2                10000                10000		10000
DM.MixingWeight			0.1
DM.NumberPulay			4	# Pulay convergency accelerator
DM.MixSCF1			    T
MixHamiltonian      T
DM.PulayOnFile			F		# Store in memory ('F') or in files ('T')
#DM.NumberKick         30
#DM.KickMixingWeight   0.1
DM.Tolerance 		1.0E-4
NeglNonOverlapInt		F		# 'F'=do not neglect
SolutionMethod			diagon
ElectronicTemperature		300 K		# Default value
DM.UseSaveDM 			T
#MD.UseSaveXV			T
#MD.UseSaveCG			T
WriteForces      T
WriteCoorXmol			T		# Write Atoms coordinates
SaveElectrostaticPotential      T
#SaveHS				T		# Save the Hamiltonian and Overlap matrices
SaveRho				T		# Save the valence pseudocharge density
#SaveDeltaRho			T
#WriteDenchar			T		# Write Denchar output
WriteMullikenPop		0 #write mulliken population of aromic and orbital charges
#-----
#smeagol
#-----
EMTransport              T
NEnergReal               640
NEnergImCircle           16
NEnergImLine             16
NPoles                   16
VInitial                 0.0d0 eV
VFinal                   0.0d0 eV
NIVPoints                0
Delta                    1.d-4
EnergLowestBound        -5.4d0 Ry
NSlices                  1
TrCoefficients		       T
AtomLeftVCte             2
AtomRightVCte            7
NTransmPoints            800
InitTransmRange          -2.0d0 Ry
FinalTransmRange          2.0d0 Ry
#PeriodicTransp           T
HartreeLeadsBottom      -1.83726943 eV
HartreeLeadsLeft         0.000  Ang
HartreeLeadsRight        0.000  Ang
#FullSlope                T
	TRC.EMDOS                T
        TRC.EMPDOS               F
        TRC.LeadsDOS             T
        TRC.LeadsPDOS            F
        Sigma.PDOS               F
        Sigma.DOSVV              F
%block SaveBiasSteps
 0
%endblock SaveBiasSteps
EM.CalculateForces           T
************************** End of input data file *****************************

reinit: -----------------------------------------------------------------------
reinit: System Name: au-chain_szv_shiftx_zerobias
reinit: -----------------------------------------------------------------------
reinit: System Label: au-chain_szv_shiftx_zerobias
reinit: -----------------------------------------------------------------------

initatom: Reading input for the pseudopotentials and atomic orbitals ----------
Species number:   1 Atomic number:   79 Label: Au
 
Ground state valence configuration:   6s01  5d10
Reading pseudopotential information in formatted form from Au.psf

Pseudopotential generated from a relativistic atomic calculation

Valence configuration for pseudopotential generation:
6s( 1.00) rc: 2.18
6p( 0.00) rc: 2.47
5d(10.00) rc: 1.79
5f( 0.00) rc: 2.00
relmxkb: Read Max KB Ang. Momentum=    3 for species Au
 Warning: Empty PAO shell. l =           1
 Will have a KB projector anyway...

<basis_specs>
===============================================================================
Au                   Z=  79    Mass=  196.97        Charge= 0.17977+309
Lmxo=2 Lmxkb= 3    BasisType=split      Semic=F
L=0  Nsemic=0  Cnfigmx=6
          i=1  nzeta=1  polorb=0  (6s)
            splnorm:   0.15000    
               vcte:    0.0000    
               rinn:    0.0000    
               qcoe:    0.0000    
               qyuk:    0.0000    
               qwid:   0.10000E-01
                rcs:    6.5000    
            lambdas:    1.0000    
L=1  Nsemic=0  Cnfigmx=6
L=2  Nsemic=0  Cnfigmx=5
          i=1  nzeta=1  polorb=0  (5d)
            splnorm:   0.15000    
               vcte:    0.0000    
               rinn:    0.0000    
               qcoe:    0.0000    
               qyuk:    0.0000    
               qwid:   0.10000E-01
                rcs:    5.8500    
            lambdas:    1.0000    
-------------------------------------------------------------------------------
L=0  Nkbl=1  erefs: 0.17977+309
L=1  Nkbl=1  erefs: 0.17977+309
L=2  Nkbl=1  erefs: 0.17977+309
L=3  Nkbl=1  erefs: 0.17977+309
===============================================================================
</basis_specs>

atom: Called for Au                    (Z =  79)

read_vps: Pseudopotential generation method:
read_vps: ATM3      Troullier-Martins                       
Total valence charge:   11.00000

read_vps: Pseudopotential includes a core correction:
read_vps: Pseudo-core for xc-correction

xc_check: Exchange-correlation functional:
xc_check: Ceperley-Alder
V l=0 = -2*Zval/r beyond r=  2.9833
V l=1 = -2*Zval/r beyond r=  2.9833
V l=2 = -2*Zval/r beyond r=  2.9833
V l=3 = -2*Zval/r beyond r=  2.9833
All V_l potentials equal beyond r=  2.4425
This should be close to max(r_c) in ps generation
All pots = -2*Zval/r beyond r=  2.9833

VLOCAL1: 99.0% of the norm of Vloc inside      7.276 Ry
VLOCAL1: 99.9% of the norm of Vloc inside     16.582 Ry
atom: Maximum radius for 4*pi*r*r*local-pseudopot. charge    2.94627
atom: Maximum radius for r*vlocal+2*Zval:    2.60007

KBgen: Kleinman-Bylander projectors: 
GHOST: No ghost state for L =  0
   l= 0   rc=  3.175745   el= -0.445638   Ekb=  5.072790   kbcos=  0.276607
GHOST: No ghost state for L =  1
   l= 1   rc=  3.256140   el= -0.066324   Ekb=  2.703235   kbcos=  0.227171
GHOST: No ghost state for L =  2
   l= 2   rc=  3.020861   el= -0.526103   Ekb= -4.704026   kbcos= -0.643795
GHOST: No ghost state for L =  3
   l= 3   rc=  3.466145   el=  0.003438   Ekb= -2.516122   kbcos= -0.010529

KBgen: Total number of  Kleinman-Bylander projectors:   16
atom: -------------------------------------------------------------------------

atom: SANKEY-TYPE ORBITALS:

SPLIT: Orbitals with angular momentum L= 0

SPLIT: Basis orbitals for state 6s

   izeta = 1
                 lambda =    1.000000
                     rc =    6.557093
                 energy =   -0.435455
                kinetic =    0.389259
    potential(screened) =   -0.824714
       potential(ionic) =   -8.467175

SPLIT: Orbitals with angular momentum L= 2

SPLIT: Basis orbitals for state 5d

   izeta = 1
                 lambda =    1.000000
                     rc =    5.933100
                 energy =   -0.524775
                kinetic =    4.913203
    potential(screened) =   -5.437978
       potential(ionic) =  -15.883506
atom: Total number of Sankey-type orbitals:  6

atm_pop: Valence configuration (for local Pseudopot. screening):
 6s( 1.00)                                                            
 6p( 0.00)                                                            
 5d(10.00)                                                            
Vna: chval, zval:   11.00000  11.00000

Vna:  Cut-off radius for the neutral-atom potential:   6.557093
comcore: Pseudo-core radius Rcore=  4.027091

atom: _________________________________________________________________________

prinput: Basis input ----------------------------------------------------------

PAO.BasisType split     

%block ChemicalSpeciesLabel
    1   79 Au                      # Species index, atomic number, species label
%endblock ChemicalSpeciesLabel

%block PAO.Basis                 # Define Basis set
Au                    2                    # Species label, number of l-shells
 n=6   0   1                         # n, l, Nzeta 
   6.557   
   1.000   
 n=5   2   1                         # n, l, Nzeta 
   5.933   
   1.000   
%endblock PAO.Basis

prinput: ----------------------------------------------------------------------

coor:   Atomic-coordinates input format  =     Cartesian coordinates
coor:                                          (in Angstroms)

siesta: Atomic coordinates (Bohr) and species
siesta:      0.00000   0.00000   0.00000  1        1
siesta:      0.00000   0.00000   5.29124  1        2
siesta:      0.00000   0.00000  10.58247  1        3
siesta:      0.00000   0.00000  15.87371  1        4
siesta:      1.88973   0.00000  21.16494  1        5
siesta:      0.00000   0.00000  26.45618  1        6
siesta:      0.00000   0.00000  31.74741  1        7
siesta:      0.00000   0.00000  37.03865  1        8
siesta:      0.00000   0.00000  42.32988  1        9

siesta: System type = chain     

initatomlists: Number of atoms, orbitals, and projectors:      9    54   144

coxmol: Writing XMOL coordinates into file au-chain_szv_shiftx_zerobias.xyz                                    

SMEAGOL: ******************* SMEAGOL Simulation parameters ********************
SMEAGOL:
SMEAGOL:       The following are some of the SMEAGOL parameters of the
SMEAGOL:       simulation. A complete list of the parameters used,
SMEAGOL:       including default values, can be found in file fdf.log.
SMEAGOL:
redata: Transport in extended molecule                =      T
redata: Molecular dynamics with transport             =      F
redata: # of points in real energy axis integral      =    640
redata: # of contour points in semi-circle            =     16
redata: # of contour points in line region            =     16
redata: # of poles in the Fermi function              =     16
redata: Initial value of the bias potential           =      0.0000 Ry
redata: Final value of the bias potential             =      0.0000 Ry
redata: # of bias potential points                    =      0
redata: Small imaginary part                          =      0.00010
redata: Lower bound for the contour integral          =     -5.4000 Ry
redata: 1 = Leads with different spin                 =      0
redata: Atom of the lead where bias slope starts      =      2
redata: Atom of the lead where bias slope ends        =      7
redata: # of bulk slices to include in EM             =      1
redata: Calculate transmission coefficients           =      T
redata: Thresholds at generalized SVD                 =      0.000000001000
redata: Compute full system DOS and PDOS              =      F
redata: Invert only central region                    =      T
redata: Write leads H and S matrices at .HSL          =      F
redata: Set bulk transversal cell                     =      F
redata: Calculate Forces                              =      F
redata: Init transport                                =      F
redata: Write converged DM (at bias/MD selected step) =      F
redata: Hartree Leads Left                            =      0.0000 Bohr
redata: Hartree Leads Right                           =      0.0000 Bohr
redata: Hartree Leads Bottom                          =     -0.1350 Ry
redata: Periodic leads in perpendicular directions    =      F
redata: LDA+U calculation?                            =      F
redata: DMFT calculation?                            =      F
redata: mix de Hamiltonian            =      T
redata: ***********************************************************************

siesta: ******************** Simulation parameters ****************************
siesta:
siesta: The following are some of the parameters of the simulation.
siesta: A complete list of the parameters used, including default values,
siesta: can be found in file out.fdf
siesta:
redata: Spin configuration                          = none
redata: Number of spin components                   = 1
redata: Time-Reversal Symmetry                      = T
redata: Spin-spiral                                 = F
redata: Long output                                 =   F
redata: Number of Atomic Species                    =        1
redata: Charge density info will appear in .RHO file
redata: Write Mulliken Pop.                         = NO
redata: Matel table size (NRTAB)                    =     1024
redata: Mesh Cutoff                                 =   200.0000 Ry
redata: Net charge of the system                    =     0.0000 |e|
redata: Min. number of SCF Iter                     =        0
redata: Max. number of SCF Iter                     =    10000
redata: SCF convergence failure will abort job
redata: SCF mix quantity                            = Hamiltonian
redata: Mix DM or H after convergence               =   F
redata: Recompute H after scf cycle                 =   F
redata: Mix DM in first SCF step                    =   T
redata: Write Pulay info on disk                    =   F
redata: New DM Mixing Weight                        =     0.1000
redata: New DM Occupancy tolerance                  = 0.000000000001
redata: No kicks to SCF
redata: DM Mixing Weight for Kicks                  =     0.5000
redata: Require Harris convergence for SCF          =   F
redata: Harris energy tolerance for SCF             =     0.000100 eV
redata: Require DM convergence for SCF              =   T
redata: DM tolerance for SCF                        =     0.000100
redata: Require EDM convergence for SCF             =   F
redata: EDM tolerance for SCF                       =     0.001000 eV
redata: Require H convergence for SCF               =   T
redata: Hamiltonian tolerance for SCF               =     0.001000 eV
redata: Require (free) Energy convergence for SCF   =   F
redata: (free) Energy tolerance for SCF             =     0.000100 eV
redata: Using Saved Data (generic)                  =   F
redata: Use continuation files for DM               =   T
redata: Neglect nonoverlap interactions             =   F
redata: Method of Calculation                       = Diagonalization
redata: Electronic Temperature                      =   299.9978 K
redata: Fix the spin of the system                  =   F
redata: Max. number of TDED Iter                    =        1
redata: Number of TDED substeps                     =        3
redata: Dynamics option                             = Single-point calculation
mix.SCF: Pulay mixing                            = Pulay
mix.SCF:    Variant                              = stable
mix.SCF:    History steps                        = 4
mix.SCF:    Linear mixing weight                 =     0.100000
mix.SCF:    Mixing weight                        =     0.100000
mix.SCF:    SVD condition                        = 0.1000E-07
redata: ***********************************************************************

%block SCF.Mixers
  Pulay
%endblock SCF.Mixers

%block SCF.Mixer.Pulay
  # Mixing method
  method pulay
  variant stable

  # Mixing options
  weight 0.1000
  weight.linear 0.1000
  history 4
%endblock SCF.Mixer.Pulay
 
DM_history_depth set to one: no extrapolation allowed by default for geometry relaxation
Size of DM history Fstack: 1
Total number of electrons:    99.000000
Total ionic charge:    99.000000

* ProcessorY, Blocksize:    1  24


* Orbital distribution balance (max,min):    30    24

k-point displ. along   1 input, could be:     0.00    0.50
k-point displ. along   2 input, could be:     0.00    0.50
 Kpoints in:            4 . Kpoints trimmed:            4

siesta: k-grid: Number of k-points =         4
siesta: k-points from Monkhorst-Pack grid
siesta: k-cutoff (effective) =     8.400 Ang
siesta: k-point supercell and displacements
siesta: k-grid:    2   0   0      0.000
siesta: k-grid:    0   2   0      0.000
siesta: k-grid:    0   0   1      0.000
 
diag: Algorithm                                     = D&C
diag: Parallel over k                               =   F
diag: Use parallel 2D distribution                  =   F
diag: Parallel block-size                           = 24
diag: Parallel distribution                         =     1 x     2
diag: Used triangular part                          = Lower
diag: Absolute tolerance                            =  0.100E-15
diag: Orthogonalization factor                      =  0.100E-05
diag: Memory factor                                 =  1.0000

superc: Internal auxiliary supercell:     1 x     1 x     3  =       3
superc: Number of atoms, orbitals, and projectors:     27    162    432
 
siesta: Constraints applied in the following order:
siesta: Constraint (3): pos
  [ 1 -- 3 ]
siesta: Constraint (3): pos
  [ 7 -- 9 ]
 
 
ts: **************************************************************
ts: Save H and S matrices                           =    F
ts: Save DM and EDM matrices                        =    F
ts: Fix Hartree potential                           =    F
ts: Only save the overlap matrix S                  =    F
ts: **************************************************************
 
************************ Begin: TS CHECKS AND WARNINGS ************************
************************ End: TS CHECKS AND WARNINGS **************************


                     ====================================
SMEAGOL                 Bias step =    0, V =  0.000 Ry
                        Single-point calculation
                     ====================================

superc: Internal auxiliary supercell:     1 x     1 x     3  =       3
superc: Number of atoms, orbitals, and projectors:     27    162    432

outcell: Unit cell vectors (Ang):
        8.400000    0.000000    0.000000
        0.000000    8.400000    0.000000
        0.000000    0.000000   25.200000

outcell: Cell vector modules (Ang)   :    8.400000    8.400000   25.200000
outcell: Cell angles (23,13,12) (deg):     90.0000     90.0000     90.0000
outcell: Cell volume (Ang**3)        :   1778.1120
<dSpData1D:S at geom step 0
  <sparsity:sparsity for geom step 0
    nrows_g=54 nrows=30 sparsity=.3086 nnzs=900, refcount: 7>
  <dData1D:(new from dSpData1D) n=900, refcount: 1>
refcount: 1>
new_DM -- step:     1
Initializing Density Matrix...
 
Attempting to read DM from file... Failed...
DM filled with atomic data:
<dSpData2D:DM initialized from atoms
  <sparsity:sparsity for geom step 0
    nrows_g=54 nrows=30 sparsity=.3086 nnzs=900, refcount: 8>
  <dData2D:DM n=900 m=1, refcount: 1>
refcount: 1>
No. of atoms with KB's overlaping orbs in proc 0. Max # of overlaps:       9      18
New grid distribution:   1
           1       1:   36    1:   36    1:   54
           2       1:   36    1:   36   55:  108

InitMesh: MESH =    72 x    72 x   216 =     1119744
InitMesh: (bp) =    36 x    36 x   108 =      139968
InitMesh: Mesh cutoff (required, used) =   200.000   203.052 Ry
ExtMesh (bp) on 0 =    96 x    96 x   114 =     1050624
New grid distribution:   2
           1       1:   36    1:   36    1:   54
           2       1:   36    1:   36   55:  108
New grid distribution:   3
           1       1:   36    1:   36    1:   54
           2       1:   36    1:   36   55:  108
Setting up quadratic distribution...
ExtMesh (bp) on 0 =    96 x    96 x   114 =     1050624
PhiOnMesh: Number of (b)points on node 0 =                69984
PhiOnMesh: nlist on node 0 =               315384
SMEAGOL: average =  -0.13694, shift =  -0.13504, count =   5184
SMEAGOL: minL =   0.00000, maxR =   0.00000

SMEAGOL: Integral method for real-axis = Traditional 

SMEAGOL: Integral method for real-axis = Traditional 

SMEAGOL: Integral method for real-axis = Traditional 

SMEAGOL: Integral method for real-axis = Traditional 
 iu1          12
 iu2          13
SMEAGOL: average =   1.52476, shift =  -0.13504, count =   5184
SMEAGOL: minL =   0.00000, maxR =   0.00000

siesta: Program's energy decomposition (eV):
siesta: Ebs     =     -3251.560777
siesta: Eions   =     10845.004161
siesta: Ena     =       617.624357
siesta: Ekin    =      5391.657378
siesta: Enl     =     -2086.494484
siesta: Eso     =         0.000000
siesta: Eldau   =         0.000000
siesta: DEna    =       249.606086
siesta: DUscf   =       290.032456
siesta: DUext   =         0.000000
siesta: Enegf   =         0.000000
siesta: Exc     =     -3523.361417
siesta: eta*DQ  =         0.000000
siesta: Emadel  =         0.000000
siesta: Emeta   =         0.000000
siesta: Emolmec =         0.000000
siesta: Ekinion =         0.000000
siesta: Eharris =     -9066.812188
siesta: Etot    =     -9905.939785
siesta: FreeEng =     -9905.939785

        iscf     Eharris(eV)        E_KS(eV)     FreeEng(eV)     dDmax    Ef(eV) dHmax(eV)
   scf:    1    -9066.812188    -9905.939785    -9905.939785  1.213036  0.000000 89.740161
timer: Routine,Calls,Time,% = IterSCF        1       0.522  45.35
SMEAGOL: average =  -0.57436, shift =  -0.13504, count =   5184
SMEAGOL: minL =   0.00000, maxR =   0.00000
   scf:    2   -10195.971643   -10234.668498   -10234.668498  1.276167  0.000000 26.562803
SMEAGOL: average =   0.03417, shift =  -0.13504, count =   5184
SMEAGOL: minL =   0.00000, maxR =   0.00000
   scf:    3   -10172.945396   -10222.015289   -10222.015289  2.181716  0.000000 10.190125
SMEAGOL: average =   0.04466, shift =  -0.13504, count =   5184
SMEAGOL: minL =   0.00000, maxR =   0.00000
   scf:    4   -10217.934228   -10220.085096   -10220.085096  0.081294  0.000000 11.029991
SMEAGOL: average =   1.65784, shift =  -0.13504, count =   5184
SMEAGOL: minL =   0.00000, maxR =   0.00000
   scf:    5    -7810.085612    -9482.672743    -9482.672743  2.005436  0.000000165.188545
SMEAGOL: average =   1.65204, shift =  -0.13504, count =   5184
SMEAGOL: minL =   0.00000, maxR =   0.00000
   scf:    6    -9490.683965    -9486.373501    -9486.373501  0.034192  0.000000164.835071
SMEAGOL: average =  -0.50055, shift =  -0.13504, count =   5184
SMEAGOL: minL =   0.00000, maxR =   0.00000
   scf:    7   -10147.674771   -10247.637326   -10247.637326  2.004036  0.000000 21.357146
SMEAGOL: average =  -0.52934, shift =  -0.13504, count =   5184
SMEAGOL: minL =   0.00000, maxR =   0.00000
   scf:    8   -10244.597701   -10246.586838   -10246.586838  0.132333  0.000000 22.486980
SMEAGOL: average =   1.67393, shift =  -0.13504, count =   5184
SMEAGOL: minL =   0.00000, maxR =   0.00000
   scf:    9    -7547.030336    -9457.645897    -9457.645897  2.004265  0.000000 44.452275
SMEAGOL: average =  -0.59969, shift =  -0.13504, count =   5184
SMEAGOL: minL =   0.00000, maxR =   0.00000
   scf:   10   -10061.500757   -10238.649753   -10238.649753  2.101685  0.000000 78.062656
SMEAGOL: average =  -0.59967, shift =  -0.13504, count =   5184
SMEAGOL: minL =   0.00000, maxR =   0.00000
   scf:   11   -10238.646076   -10238.647263   -10238.647263  0.000225  0.000000 77.954702
SMEAGOL: average =  -0.59959, shift =  -0.13504, count =   5184
SMEAGOL: minL =   0.00000, maxR =   0.00000
   scf:   12   -10238.709429   -10238.678965   -10238.678965  0.002618  0.000000 76.753137
SMEAGOL: average =   1.31601, shift =  -0.13504, count =   5184
SMEAGOL: minL =   0.00000, maxR =   0.00000
   scf:   13    -8110.289379    -9623.903829    -9623.903829  2.058274  0.000000 74.990723
SMEAGOL: average =   0.92994, shift =  -0.13504, count =   5184
SMEAGOL: minL =   0.00000, maxR =   0.00000
   scf:   14   -10097.733174    -9860.515969    -9860.515969  0.821604  0.000000 43.209320
SMEAGOL: average =  -0.62241, shift =  -0.13504, count =   5184
SMEAGOL: minL =   0.00000, maxR =   0.00000
   scf:   15   -10097.425671   -10237.228478   -10237.228478  2.036588  0.000000 89.927780
SMEAGOL: average =   1.21158, shift =  -0.13504, count =   5184
SMEAGOL: minL =   0.00000, maxR =   0.00000
   scf:   16    -8331.931895    -9693.790703    -9693.790703  2.060028  0.000000 66.651152
SMEAGOL: average =   0.22700, shift =  -0.13504, count =   5184
SMEAGOL: minL =   0.00000, maxR =   0.00000
   scf:   17   -10432.124435   -10143.700974   -10143.700974  1.549068  0.000000 18.400100
SMEAGOL: average =   0.41240, shift =  -0.13504, count =   5184
SMEAGOL: minL =   0.00000, maxR =   0.00000
   scf:   18   -10016.272899   -10086.912758   -10086.912758  0.256285  0.000000  2.580827
SMEAGOL: average =   0.17822, shift =  -0.13504, count =   5184
SMEAGOL: minL =   0.00000, maxR =   0.00000
   scf:   19   -10219.178805   -10155.692180   -10155.692180  0.396092  0.000000 22.752608
SMEAGOL: average =   0.27447, shift =  -0.13504, count =   5184
SMEAGOL: minL =   0.00000, maxR =   0.00000
   scf:   20   -10098.036257   -10129.172053   -10129.172053  0.201379  0.000000 14.681005
SMEAGOL: average =   0.28635, shift =  -0.13504, count =   5184
SMEAGOL: minL =   0.00000, maxR =   0.00000
   scf:   21   -10107.228508   -10125.047646   -10125.047646  2.050443  0.000000 12.732079
SMEAGOL: average =   0.27183, shift =  -0.13504, count =   5184
SMEAGOL: minL =   0.00000, maxR =   0.00000
   scf:   22   -10136.879954   -10130.930785   -10130.930785  0.387421  0.000000 14.114221
SMEAGOL: average =   0.31417, shift =  -0.13504, count =   5184
SMEAGOL: minL =   0.00000, maxR =   0.00000
   scf:   23   -10103.584893   -10118.124996   -10118.124996  0.132243  0.000000 10.549318
SMEAGOL: average =   0.31021, shift =  -0.13504, count =   5184
SMEAGOL: minL =   0.00000, maxR =   0.00000
   scf:   24   -10116.750160   -10117.608085   -10117.608085  0.500199  0.000000 10.554338
SMEAGOL: average =   0.39658, shift =  -0.13504, count =   5184
SMEAGOL: minL =   0.00000, maxR =   0.00000
   scf:   25   -10056.880443   -10089.663055   -10089.663055  0.484857  0.000000  3.609474
SMEAGOL: average =   0.48555, shift =  -0.13504, count =   5184
SMEAGOL: minL =   0.00000, maxR =   0.00000
   scf:   26   -10020.584171   -10057.869737   -10057.869737  0.242264  0.000000  5.848114
SMEAGOL: average =   0.44431, shift =  -0.13504, count =   5184
SMEAGOL: minL =   0.00000, maxR =   0.00000
   scf:   27   -10089.582162   -10073.015626   -10073.015626  0.175433  0.000000  2.494847
SMEAGOL: average =   0.39376, shift =  -0.13504, count =   5184
SMEAGOL: minL =   0.00000, maxR =   0.00000
   scf:   28   -10109.701094   -10090.672909   -10090.672909  0.349443  0.000000  2.380942
SMEAGOL: average =   0.40665, shift =  -0.13504, count =   5184
SMEAGOL: minL =   0.00000, maxR =   0.00000
   scf:   29   -10081.355444   -10086.281209   -10086.281209  0.069440  0.000000  1.255745
SMEAGOL: average =   0.41548, shift =  -0.13504, count =   5184
SMEAGOL: minL =   0.00000, maxR =   0.00000
   scf:   30   -10079.833557   -10083.237641   -10083.237641  0.049475  0.000000  0.480760
SMEAGOL: average =   0.41538, shift =  -0.13504, count =   5184
SMEAGOL: minL =   0.00000, maxR =   0.00000
   scf:   31   -10083.319636   -10083.274663   -10083.274663  0.004048  0.000000  0.487298
SMEAGOL: average =   0.41271, shift =  -0.13504, count =   5184
SMEAGOL: minL =   0.00000, maxR =   0.00000
   scf:   32   -10085.215875   -10084.195111   -10084.195111  0.016652  0.000000  0.732272
SMEAGOL: average =   0.41591, shift =  -0.13504, count =   5184
SMEAGOL: minL =   0.00000, maxR =   0.00000
   scf:   33   -10081.850414   -10083.086632   -10083.086632  0.018184  0.000000  0.474089
SMEAGOL: average =   0.41485, shift =  -0.13504, count =   5184
SMEAGOL: minL =   0.00000, maxR =   0.00000
   scf:   34   -10083.873830   -10083.458533   -10083.458533  0.004929  0.000000  0.577905
SMEAGOL: average =   0.41891, shift =  -0.13504, count =   5184
SMEAGOL: minL =   0.00000, maxR =   0.00000
   scf:   35   -10080.452471   -10082.040409   -10082.040409  0.017387  0.000000  0.191295
SMEAGOL: average =   0.41900, shift =  -0.13504, count =   5184
SMEAGOL: minL =   0.00000, maxR =   0.00000
   scf:   36   -10081.976085   -10082.009973   -10082.009973  0.001337  0.000000  0.184516
SMEAGOL: average =   0.42199, shift =  -0.13504, count =   5184
SMEAGOL: minL =   0.00000, maxR =   0.00000
   scf:   37   -10079.831319   -10080.981253   -10080.981253  0.043554  0.000000  0.055404
SMEAGOL: average =   0.42210, shift =  -0.13504, count =   5184
SMEAGOL: minL =   0.00000, maxR =   0.00000
   scf:   38   -10080.894464   -10080.940145   -10080.940145  0.002824  0.000000  0.060865
SMEAGOL: average =   0.42130, shift =  -0.13504, count =   5184
SMEAGOL: minL =   0.00000, maxR =   0.00000
   scf:   39   -10081.523761   -10081.216180   -10081.216180  0.011019  0.000000  0.009154
SMEAGOL: average =   0.42122, shift =  -0.13504, count =   5184
SMEAGOL: minL =   0.00000, maxR =   0.00000
   scf:   40   -10081.281645   -10081.247135   -10081.247135  0.001333  0.000000  0.012834
SMEAGOL: average =   0.42136, shift =  -0.13504, count =   5184
SMEAGOL: minL =   0.00000, maxR =   0.00000
   scf:   41   -10081.141412   -10081.197157   -10081.197157  0.003800  0.000000  0.003013
SMEAGOL: average =   0.42136, shift =  -0.13504, count =   5184
SMEAGOL: minL =   0.00000, maxR =   0.00000
   scf:   42   -10081.199204   -10081.198142   -10081.198142  0.000393  0.000000  0.003236
SMEAGOL: average =   0.42135, shift =  -0.13504, count =   5184
SMEAGOL: minL =   0.00000, maxR =   0.00000
   scf:   43   -10081.204774   -10081.201318   -10081.201318  0.000546  0.000000  0.005026
SMEAGOL: average =   0.42146, shift =  -0.13504, count =   5184
SMEAGOL: minL =   0.00000, maxR =   0.00000
   scf:   44   -10081.122857   -10081.164241   -10081.164241  0.001432  0.000000  0.003857
SMEAGOL: average =   0.42144, shift =  -0.13504, count =   5184
SMEAGOL: minL =   0.00000, maxR =   0.00000
   scf:   45   -10081.177432   -10081.170485   -10081.170485  0.000564  0.000000  0.003441
SMEAGOL: average =   0.42139, shift =  -0.13504, count =   5184
SMEAGOL: minL =   0.00000, maxR =   0.00000
   scf:   46   -10081.209054   -10081.188731   -10081.188731  0.000742  0.000000  0.001600
SMEAGOL: average =   0.42145, shift =  -0.13504, count =   5184
SMEAGOL: minL =   0.00000, maxR =   0.00000
   scf:   47   -10081.146462   -10081.168785   -10081.168785  0.001237  0.000000  0.002652
SMEAGOL: average =   0.42144, shift =  -0.13504, count =   5184
SMEAGOL: minL =   0.00000, maxR =   0.00000
   scf:   48   -10081.171550   -10081.170102   -10081.170102  0.000163  0.000000  0.002200
SMEAGOL: average =   0.42141, shift =  -0.13504, count =   5184
SMEAGOL: minL =   0.00000, maxR =   0.00000
   scf:   49   -10081.193078   -10081.180967   -10081.180967  0.000217  0.000000  0.000675
SMEAGOL: average =   0.42141, shift =  -0.13504, count =   5184
SMEAGOL: minL =   0.00000, maxR =   0.00000
   scf:   50   -10081.178701   -10081.179898   -10081.179898  0.000029  0.000000  0.000522

SCF Convergence by DM+H criterion
max |DM_out - DM_in|         :     0.0000287261
max |H_out - H_in|      (eV) :     0.0005215658
SCF cycle converged after 50 iterations

Using DM_out to compute the final energy and forces
No. of atoms with KB's overlaping orbs in proc 0. Max # of overlaps:       9      18
SMEAGOL: average =   0.42141, shift =  -0.13504, count =   5184
SMEAGOL: minL =   0.00000, maxR =   0.00000
k-point displ. along   1 input, could be:     0.00    0.50
k-point displ. along   2 input, could be:     0.00    0.50
 Kpoints in:            4 . Kpoints trimmed:            4

siesta: PDOS k-grid: Number of k-points =         4
siesta: PDOS k-points from Monkhorst-Pack grid
siesta: PDOS k-cutoff (effective) =     0.000 Ang
siesta: PDOS k-point supercell and displacements
siesta: k-grid:    2   0   0      0.000
siesta: k-grid:    0   2   0      0.000
siesta: k-grid:    0   0   1      0.000

SMEAGOL: InitTransmRange =  -0.20000000D+01, FinalTransmRange =   0.20000000D+01
SMEAGOL: trcde =  0.00000D+00, NeneT =   800
SMEAGOL: Ef =  -0.45071429D+00, temp =   0.19000693D-02
SMEAGOL: deltaimagtrc =   0.00000000D+00

siesta: E_KS(eV) =           -10081.1799

siesta: E_KS - E_eggbox =    -10081.1799

siesta: Atomic forces (eV/Ang):
     1    0.000171   -0.000000   -1.251451
     2    0.001307    0.000000    0.595589
     3   -0.029950    0.000000   -5.228496
     4   -1.824737   -0.000000   -2.783499
     5    4.051888   -0.000000    0.002878
     6   -1.824508   -0.000000    2.781391
     7   -0.029974    0.000000    5.227647
     8    0.001307    0.000000   -0.645777
     9    0.000162   -0.000000    1.011965
----------------------------------------
   Tot    0.345668    0.000000   -0.289753
----------------------------------------
   Max    5.228496
   Res    1.891399    sqrt( Sum f_i^2 / 3N )
----------------------------------------
   Max    4.051888    constrained

Stress-tensor-Voigt (kbar):      -28.42      -25.92       20.94        0.00       -0.00       -0.00
(Free)E + p*V (eV/cell)   -10068.8246
Target enthalpy (eV/cell)   -10081.1799

coxmol: Writing XMOL coordinates into file au-chain_szv_shiftx_zerobias.xyz                                    

siesta: Program's energy decomposition (eV):
siesta: Ebs     =     -1572.782011
siesta: Eions   =     10845.004161
siesta: Ena     =       617.624357
siesta: Ekin    =      5689.523245
siesta: Enl     =     -2173.012019
siesta: Eso     =         0.000000
siesta: Eldau   =         0.000000
siesta: DEna    =       127.063782
siesta: DUscf   =       144.706166
siesta: DUext   =         0.000000
siesta: Enegf   =         0.000000
siesta: Exc     =     -3642.081268
siesta: eta*DQ  =         0.000000
siesta: Emadel  =         0.000000
siesta: Emeta   =         0.000000
siesta: Emolmec =         0.000000
siesta: Ekinion =         0.000000
siesta: Eharris =    -10081.178701
siesta: Etot    =    -10081.179898
siesta: FreeEng =    -10081.179898

siesta: Final energy (eV):
siesta:  Band Struct. =   -1572.782011
siesta:       Kinetic =    5689.523245
siesta:       Hartree =    5794.886755
siesta:       Eldau   =       0.000000
siesta:       Eso     =       0.000000
siesta:    Ext. field =       0.000000
siesta:       Enegf   =       0.000000
siesta:   Exch.-corr. =   -3642.081268
siesta:  Ion-electron =  -16186.995475
siesta:       Ion-ion =   -1736.513154
siesta:       Ekinion =       0.000000
siesta:         Total =  -10081.179898
siesta:         Fermi =       0.000000

siesta: Atomic forces (eV/Ang):
siesta:      1    0.000171   -0.000000   -1.251451
siesta:      2    0.001307    0.000000    0.595589
siesta:      3   -0.029950    0.000000   -5.228496
siesta:      4   -1.824737   -0.000000   -2.783499
siesta:      5    4.051888   -0.000000    0.002878
siesta:      6   -1.824508   -0.000000    2.781391
siesta:      7   -0.029974    0.000000    5.227647
siesta:      8    0.001307    0.000000   -0.645777
siesta:      9    0.000162   -0.000000    1.011965
siesta: ----------------------------------------
siesta:    Tot    0.345668    0.000000   -0.289753

siesta: Constrained forces (eV/Ang):
siesta:      1    0.000000    0.000000    0.000000
siesta:      2    0.000000    0.000000    0.000000
siesta:      3    0.000000    0.000000    0.000000
siesta:      4   -1.824737   -0.000000   -2.783499
siesta:      5    4.051888   -0.000000    0.002878
siesta:      6   -1.824508   -0.000000    2.781391
siesta:      7    0.000000    0.000000    0.000000
siesta:      8    0.000000    0.000000    0.000000
siesta:      9    0.000000    0.000000    0.000000
siesta: ----------------------------------------
siesta:  Tot    0.402644   -0.000000    0.000770

siesta: Stress tensor (static) (eV/Ang**3):
siesta:    -0.017739   -0.000000   -0.000000
siesta:     0.000000   -0.016175    0.000000
siesta:    -0.000000   -0.000000    0.013068

siesta: Cell volume =       1778.112000 Ang**3

siesta: Pressure (static):
siesta:                Solid            Molecule  Units
siesta:           0.00007568         -0.00011435  Ry/Bohr**3
siesta:           0.00694857         -0.01049922  eV/Ang**3
siesta:          11.13295350        -16.82178294  kBar
(Free)E+ p_basis*V_orbitals  =      -10077.757456
(Free)Eharris+ p_basis*V_orbitals  =      -10077.756259

siesta: Electric dipole (a.u.)  =    7.755688    0.000000   -0.000000
siesta: Electric dipole (Debye) =   19.713005    0.000000   -0.000000
SMEAGOL: average =   0.42141, shift =  -0.13504, count =   5184
SMEAGOL: minL =   0.00000, maxR =   0.00000

dhscf: Vacuum level (max, mean) =    0.328027   -6.658407 eV
 
>> End of run:  30-OCT-2023  15:54:03
Job completed
