SIESTA 1.3.7  -- [1.3f1 release] (04 Feb 2004)
Architecture  : 
Compiler flags:  -O3
PARALLEL version

* Running on    4 nodes in parallel
>> Start of run:   8-OCT-2013  19:13:58

                           ***********************       
                           *  WELCOME TO SIESTA  *       
                           ***********************       

reinit: Reading from standard input
************************** Dump of input data file ****************************
#
SystemName                   mol            # Descriptive name of the system
SystemLabel                  mol            # Short name for naming files
NumberOfSpecies              1             # Number of species
NumberOfAtoms                2           # Number of atoms
%block ChemicalSpeciesLabel
 1    1   H
%endblock ChemicalSpeciesLabel
# ps
%block Ps.lmax
  H     3
%endblock Ps.lmax
# Basis
PAO.BasisType                split         # Type of basis ('nones', 'nonodes', 'split')
PAO.SplitNorm  0.15
%block PAO.Basis                           # basis
H     2      0.00
 n=1    0    2   E      2.07      0.50
   5.75  1.5
   1.000   1.000
 n=2    1    1   E      0.89      0.01
   5.500
   1.000
%endblock PAO.Basis
# lattice vectors
LatticeConstant              1.0 Ang
%block LatticeVectors
         20.00000        0.00000000       0.00000000
         0.00000        20.0000000        0.00000000
         0.00000000      0.00000000      20.0000
%endblock LatticeVectors
# coordinates
AtomicCoordinatesFormat      Ang
%block AtomicCoordinatesAndAtomicSpecies
    0.00000000    0.00000000   -0.01093506   1  H          1
    0.00000000    0.00000000    0.74094157   1  H          2
%endblock AtomicCoordinatesAndAtomicSpecies
# constrains in relaxation
#%block GeometryConstraints
#   position   from  1 to  54
#   position   from  -1 to  -45
#%endblock GeometryConstraints
# real space mesh grid
MeshCutoff                   800.0 Ry
%block GridCellSampling
  0.5  0.5   0.0
  0.5  0.0   0.5
  0.0  0.5   0.5
%endblock GridCellSampling
# reciprocal space
%block kgrid_Monkhorst_Pack
  1   0   0    0.0
  0   1   0    0.0
  0   0   1    0.0
%endblock kgrid_Monkhorst_Pack
#ProcessorY                   4
#BlockSize                    100
%block ExternalElectricField
   0.000 0.000 1.0000 V/Ang
%endblock ExternalElectricField
# functional
xc.functional                GGA           # 'LDA', 'GGA'
xc.authors                   PBE           # 'CA'='PZ', 'PW92', 'PBE'
# scf
MaxSCFIterations             300
DM.MixingWeight              0.02
DM.Tolerance                 2.0E-5
DM.UseSaveDM                 T
DM.NumberPulay               6             # Pulay convergency accelerator
SolutionMethod               diagon
ElectronicTemperature        300 K         # Default value
# MD options
MD.TypeOfRun                 fc            # Type of dynamics:
MD.VariableCell              false         # if vary cell
MD.NumCGsteps                300             # Number of CG steps for relaxation
MD.MaxCGDispl                0.08 Ang     # Maximum atomic displacement at one step
MD.MaxForceTol               0.01 eV/Ang   # Tolerance in the maximum force min(fx, fy, fz)
MD.MaxStressTol              0.1 Gpa
MD.FCDispl                 0.02 ang
MD.FCIR                    T
MD.FCEigenVectors          T
MD.FCRead                  F
MD.FCAtomRestart           46
MD.FCAxisRestart           1
MD.InitialTimeStep         1
MD.FinalTimeStep           10
MD.LengthTimeStep          1.0 fs
MD.InitialTemperature      100.0 K
MD.TargetTemperature       100.0 K
#MD.TargetPressure          3.0 Gpa
#Siesta Output Flags
SaveHS                       F           # Hamiltonian and overlap in sparse
SaveRHO                      F
WriteMullikenPop             1
WriteForces                  T
WriteCoorStep                T
SaveElectrostaticPotential   T             # Hartree Potential file
************************** End of input data file *****************************

reinit: -----------------------------------------------------------------------
reinit: System Name: mol                                                        
reinit: -----------------------------------------------------------------------
reinit: System Label: mol                 
reinit: -----------------------------------------------------------------------

initatom: Reading input for the pseudopotentials and atomic orbitals ----------
 Species number:            1  Label: H Atomic number:           1
Ground state valence configuration:   1s01
Reading pseudopotential information in formatted form from H.psf
relmxkb: Read Max KB Ang. Momentum=    3 for species H

<basis_specs>
===============================================================================
H                    Z=   1    Mass=  1.0100        Charge=  0.0000    
Lmxo=1 Lmxkb=3     BasisType=split      Semic=F
L=0  Nsemic=0  Cnfigmx=1
          n=1  nzeta=2  polorb=0
               vcte:    2.0700    
               rinn:   0.50000    
                rcs:    5.7500      1.5000    
            lambdas:    1.0000      1.0000    
L=1  Nsemic=0  Cnfigmx=2
          n=1  nzeta=1  polorb=0
               vcte:   0.89000    
               rinn:   0.10000E-01
                rcs:    5.5000    
            lambdas:    1.0000    
-------------------------------------------------------------------------------
L=0  Nkbl=1  erefs: 0.17977+309
L=1  Nkbl=1  erefs: 0.17977+309
L=2  Nkbl=1  erefs: 0.17977+309
L=3  Nkbl=1  erefs: 0.17977+309
===============================================================================
</basis_specs>

atom: Called for H   (Z =   1)

read_vps: Pseudopotential generation method:
read_vps: ATM3      Troullier-Martins                       

read_vps: Valence configuration (pseudopotential and basis set generation):
1s( 1.00) rc: 1.89
2p( 0.00) rc: 1.80
3d( 0.00) rc: 1.49
4f( 0.00) rc: 1.49
read_vps: Spin-orbit interaction is not included in this calculation
Total valence charge:    1.00000

xc_check: Exchange-correlation functional:
xc_check: GGA Perdew, Burke & Ernzerhof 1996
V l=0 = -2*Zval/r beyond r=  1.8658
V l=1 = -2*Zval/r beyond r=  1.7970
V l=2 = -2*Zval/r beyond r=  1.8196
V l=3 = -2*Zval/r beyond r=  1.8196
All V_l potentials equal beyond r=  1.8658
This should be close to max(r_c) in ps generation
All pots = -2*Zval/r beyond r=  1.8658

VLOCAL1: 99.0% of the norm of Vloc inside     12.470 Ry
VLOCAL1: 99.9% of the norm of Vloc inside     28.418 Ry
atom: Maximum radius for 4*pi*r*r*local-pseudopot. charge    2.16811
atom: Maximum radius for r*vlocal+2*Zval:    1.84256
GHOST: No ghost state for L =  0
GHOST: No ghost state for L =  1
GHOST: No ghost state for L =  2
GHOST: No ghost state for L =  3

KBgen: Kleinman-Bylander projectors: 
   l= 0   rc=  2.011274   el= -0.477200   Ekb= -1.572097   kbcos= -0.493163
   l= 1   rc=  2.141150   el=  0.001076   Ekb= -0.356432   kbcos= -0.050277
   l= 2   rc=  2.195416   el=  0.002010   Ekb= -0.177656   kbcos= -0.007774
   l= 3   rc=  2.251056   el=  0.003122   Ekb= -0.068270   kbcos= -0.002268

KBgen: Total number of  Kleinman-Bylander projectors:   16
atom: -------------------------------------------------------------------------

atom: SANKEY-TYPE ORBITALS:
atom: Selected multiple-zeta basis: split     

SPLIT: Orbitals with angular momentum L= 0

SPLIT: Basis orbitals for state 1s

   izeta = 1
                 lambda =    1.000000
                     rc =    5.752124
                 energy =   -0.469599
                kinetic =    0.919264
    potential(screened) =   -1.388863
       potential(ionic) =   -1.911599

   izeta = 2
                 rmatch =    1.527112
              splitnorm =    0.807394
                 energy =    2.126033
                kinetic =    5.261681
    potential(screened) =   -3.135649
       potential(ionic) =   -3.696632

SPLIT: Orbitals with angular momentum L= 1

SPLIT: Basis orbitals for state 2p

   izeta = 1
                 lambda =    1.000000
                     rc =    5.471469
                 energy =    0.371359
                kinetic =    0.737398
    potential(screened) =   -0.366040
       potential(ionic) =   -0.791603
atom: Total number of Sankey-type orbitals:  5

atm_pop: Valence configuration(local Pseudopot. screening):
 1s( 1.00)                                                            
 2p( 0.00)                                                            
Vna: chval, zval:    1.00000   1.00000

Vna:  Cut-off radius for the neutral-atom potential:   5.752124

atom: _________________________________________________________________________

prinput: Basis input ----------------------------------------------------------

PAO.BasisType split     

%block ChemicalSpeciesLabel
    1    1 H                       # Species index, atomic number, species label
%endblock ChemicalSpeciesLabel

%block PAO.Basis                 # Define Basis set
H           2                    # Species label, number of l-shells
 n=1   0   2                         # n, l, Nzeta 
   5.752      1.527   
   1.000      1.000   
 n=2   1   1                         # n, l, Nzeta 
   5.471   
   1.000   
%endblock PAO.Basis

prinput: ----------------------------------------------------------------------


siesta: ******************** Simulation parameters ****************************
siesta:
siesta: The following are some of the parameters of the simulation.
siesta: A complete list of the parameters used, including defect values,
siesta: can be found in file out.fdf
siesta:
coor:   Atomic-coordinates input format  =     Cartesian coordinates
coor:                                          (in Angstroms)
redata: Number of spin components        =     1
redata: SpinOrbit                        =     0
redata: Long output                      =     F
redata: Number of Atomic Species         =     1
redata: Charge density info will appear in .RHO file
redata: Write Mulliken Pop.              =     Atomic and Orbital charges
redata: Mesh Cutoff                      =   800.0000  Ry
redata: Net charge of the system         =     0.0000 |e|
redata: Max. number of SCF Iter          =   300
redata: One Pulay mixing every           =     6 iterations
redata: Mix DM in first SCF step ?       =     F
redata: Write Pulay info on disk?        =     F
redata: New DM Mixing Weight             =     0.0200
redata: No kicks to SCF
redata: DM Mixing Weight for Kicks       =     0.5000
redata: DM Tolerance for SCF             =     0.000020
redata: Use continuation files for DM    =     T
redata: Neglect nonoverlap interactions  =     F
redata: Method of Calculation            =     Diagonalization
redata: Divide and Conquer               =     F
redata: Electronic Temperature           =     0.0019  Ry
redata: Fix the spin of the system       =     F
redata: Dynamics option                  =     Force Constants Matrix Calculation
redata: Atomic displ for force constants =     0.0378  Bohr
redata: First atom to move               =      1
redata: Last atom to move                =      2
redata: Read previous FC                 =     F
redata: Acoustic sum rule                =     T
redata: Calculate Eigen Vectors          =     T
redata: Calculate Infrared Intensity     =     T
redata: ***********************************************************************

siesta: Atomic coordinates (Bohr) and species
siesta:      0.00000   0.00000  -0.02066  1        1
siesta:      0.00000   0.00000   1.40018  1        2

initatomlists: Number of atoms, orbitals, and projectors:      2    10    32

siesta: System type = molecule  
 Nodes, Orbitals           4          10
 blocksizedefault           2

* ProcessorY, Blocksize:    2   2

 Using EM.ParallelOverKNum =           1
 label:           1 H                              1 s      
 label:           2 H                              1 s      
 label:           3 H                              1 py     
 label:           4 H                              1 pz     
 label:           5 H                              1 px     
 label:           6 H                              2 s      
 label:           7 H                              2 s      
 label:           8 H                              2 py     
 label:           9 H                              2 pz     
 label:          10 H                              2 px     
 
* Maximum dynamic memory allocated =     1 MB

siesta:                 ==============================
                        Begin FC step =     0 of    12
                            Undisplaced coordinates
                        ==============================

outcoor: Atomic coordinates (Ang):                          
    0.00000000    0.00000000   -0.01093506   1  H          1
    0.00000000    0.00000000    0.74094157   1  H          2

read_ldau The LDA+U method used is from Czyzky PRB 49 14211

iodm: Reading Density Matrix from files

mol.DM                           

InitMesh: MESH =   360 x   360 x   360 =    46656000
InitMesh: Mesh cutoff (required, used) =   800.000   895.461 Ry

efield: External electric field =    0.000000    0.000000    0.038893 Ry/Bohr/e
 
* Maximum dynamic memory allocated =   583 MB

stepf: Fermi-Dirac step function

siesta: Program's energy decomposition (eV):
siesta: Eions   =        26.074526
siesta: Ena     =         4.272337
siesta: Ekin    =        26.328732
siesta: Enl     =       -17.096275
siesta: DEna    =        -1.436623
siesta: DUscf   =         0.261839
siesta: DUext   =        -0.072834
siesta: Exc     =       -17.554907
siesta: eta*DQ  =         0.000000
siesta: Emadel  =         0.000000
siesta: Eharris =       -31.372258
siesta: Eso     =         0.000000
siesta: Etot    =       -31.372257
siesta: FreeEng =       -31.372257

siesta: iscf   Eharris(eV)      E_KS(eV)   FreeEng(eV)     dDmax   Ef(eV)
siesta:    1      -31.3723      -31.3723      -31.3723   0.00001  -4.9449
timer: Routine,Calls,Time,% = IterSCF        1      76.333  96.81
grdsam: Reading %block GridCellSampling
grdsam: Grid-cell sampling, point   0
grdsam: Generating displacements for grid-cell sampling
grdsam: Grid-cell sampling, point   1
grdsam: Grid-cell sampling, point   2
grdsam: Grid-cell sampling, point   3

siesta: E_KS(eV) =              -31.3723

siesta: E_KS - E_eggbox =       -31.3723

siesta: Atomic forces (eV/Ang):
     1    0.000000    0.000000    0.000902
     2    0.000000    0.000000   -0.000758
----------------------------------------
 Tot    0.000000    0.000000    0.000144
----------------------------------------
 Max    0.000902
 Res    0.000481    sqrt( Sum f_i^2 / 3N )
----------------------------------------
 Max    0.000902    constrained
 
mulliken: Atomic and Orbital Populations:

Species: H                   
Atom  Qatom  Qorb
               1s      1s      2py     2pz     2px     
   1  1.029   0.942   0.082   0.000   0.005   0.000
   2  0.971   0.866   0.082   0.000   0.023   0.000

mulliken: Qtot =    2.000
 
* Maximum dynamic memory allocated =   583 MB

siesta:                 ==============================
                        Begin FC step =     1 of    12
                            displace atom        1
                            in direction         1
                        by  -0.0378 Bohr =  -0.0200 Ang
                        ==============================

outcoor: Atomic coordinates (Ang):                          
   -0.02000000    0.00000000   -0.01093506   1  H          1
    0.00000000    0.00000000    0.74094157   1  H          2

siesta: iscf   Eharris(eV)      E_KS(eV)   FreeEng(eV)     dDmax   Ef(eV)
siesta:    1      -31.3723      -31.3722      -31.3722   0.00074  -4.9433
siesta:    2      -31.3723      -31.3723      -31.3723   0.00003  -4.9441
siesta:    3      -31.3723      -31.3723      -31.3723   0.00001  -4.9442
grdsam: Grid-cell sampling, point   0
grdsam: Grid-cell sampling, point   1
grdsam: Grid-cell sampling, point   2
grdsam: Grid-cell sampling, point   3

siesta: E_KS(eV) =              -31.3723

siesta: Atomic forces (eV/Ang):
     1    0.000983    0.000000    0.009969
     2   -0.000978    0.000000   -0.009931
----------------------------------------
 Tot    0.000005    0.000000    0.000038
----------------------------------------
 Max    0.009969
 Res    0.005773    sqrt( Sum f_i^2 / 3N )
----------------------------------------
 Max    0.009969    constrained
 
mulliken: Atomic and Orbital Populations:

Species: H                   
Atom  Qatom  Qorb
               1s      1s      2py     2pz     2px     
   1  1.029   0.942   0.082   0.000   0.005   0.000
   2  0.971   0.866   0.082   0.000   0.023   0.000

mulliken: Qtot =    2.000
 
* Maximum dynamic memory allocated =   584 MB

siesta:                 ==============================
                        Begin FC step =     2 of    12
                            displace atom        1
                            in direction         1
                        by   0.0378 Bohr =   0.0200 Ang
                        ==============================

outcoor: Atomic coordinates (Ang):                          
    0.02000000    0.00000000   -0.01093506   1  H          1
    0.00000000    0.00000000    0.74094157   1  H          2

siesta: iscf   Eharris(eV)      E_KS(eV)   FreeEng(eV)     dDmax   Ef(eV)
siesta:    1      -31.3723      -31.3722      -31.3722   0.00149  -4.9442
siesta:    2      -31.3723      -31.3723      -31.3723   0.00006  -4.9441
siesta:    3      -31.3723      -31.3723      -31.3723   0.00001  -4.9440
grdsam: Grid-cell sampling, point   0
grdsam: Grid-cell sampling, point   1
grdsam: Grid-cell sampling, point   2
grdsam: Grid-cell sampling, point   3

siesta: E_KS(eV) =              -31.3723

siesta: Atomic forces (eV/Ang):
     1   -0.000973    0.000000    0.010218
     2    0.000968    0.000000   -0.010180
----------------------------------------
 Tot   -0.000005    0.000000    0.000038
----------------------------------------
 Max    0.010218
 Res    0.005915    sqrt( Sum f_i^2 / 3N )
----------------------------------------
 Max    0.010218    constrained
 
mulliken: Atomic and Orbital Populations:

Species: H                   
Atom  Qatom  Qorb
               1s      1s      2py     2pz     2px     
   1  1.029   0.942   0.082   0.000   0.005   0.000
   2  0.971   0.866   0.082   0.000   0.023   0.000

mulliken: Qtot =    2.000
 
* Maximum dynamic memory allocated =   584 MB

siesta:                 ==============================
                        Begin FC step =     3 of    12
                            displace atom        1
                            in direction         2
                        by  -0.0378 Bohr =  -0.0200 Ang
                        ==============================

outcoor: Atomic coordinates (Ang):                          
    0.00000000   -0.02000000   -0.01093506   1  H          1
    0.00000000    0.00000000    0.74094157   1  H          2

siesta: iscf   Eharris(eV)      E_KS(eV)   FreeEng(eV)     dDmax   Ef(eV)
siesta:    1      -31.3723      -31.3722      -31.3722   0.00075  -4.9441
siesta:    2      -31.3723      -31.3723      -31.3723   0.00003  -4.9441
siesta:    3      -31.3723      -31.3723      -31.3723   0.00001  -4.9441
grdsam: Grid-cell sampling, point   0
grdsam: Grid-cell sampling, point   1
grdsam: Grid-cell sampling, point   2
grdsam: Grid-cell sampling, point   3

siesta: E_KS(eV) =              -31.3723

siesta: Atomic forces (eV/Ang):
     1    0.000013    0.000961    0.010174
     2   -0.000013   -0.000957   -0.010136
----------------------------------------
 Tot    0.000000    0.000005    0.000038
----------------------------------------
 Max    0.010174
 Res    0.005889    sqrt( Sum f_i^2 / 3N )
----------------------------------------
 Max    0.010174    constrained
 
mulliken: Atomic and Orbital Populations:

Species: H                   
Atom  Qatom  Qorb
               1s      1s      2py     2pz     2px     
   1  1.029   0.942   0.082   0.000   0.005   0.000
   2  0.971   0.866   0.082   0.000   0.023   0.000

mulliken: Qtot =    2.000
 
* Maximum dynamic memory allocated =   584 MB

siesta:                 ==============================
                        Begin FC step =     4 of    12
                            displace atom        1
                            in direction         2
                        by   0.0378 Bohr =   0.0200 Ang
                        ==============================

outcoor: Atomic coordinates (Ang):                          
    0.00000000    0.02000000   -0.01093506   1  H          1
    0.00000000    0.00000000    0.74094157   1  H          2

siesta: iscf   Eharris(eV)      E_KS(eV)   FreeEng(eV)     dDmax   Ef(eV)
siesta:    1      -31.3723      -31.3722      -31.3722   0.00149  -4.9441
siesta:    2      -31.3723      -31.3723      -31.3723   0.00006  -4.9441
siesta:    3      -31.3723      -31.3723      -31.3723   0.00001  -4.9441
grdsam: Grid-cell sampling, point   0
grdsam: Grid-cell sampling, point   1
grdsam: Grid-cell sampling, point   2
grdsam: Grid-cell sampling, point   3

siesta: E_KS(eV) =              -31.3723

siesta: Atomic forces (eV/Ang):
     1    0.000007   -0.000971    0.010189
     2   -0.000006    0.000966   -0.010151
----------------------------------------
 Tot    0.000001   -0.000005    0.000038
----------------------------------------
 Max    0.010189
 Res    0.005898    sqrt( Sum f_i^2 / 3N )
----------------------------------------
 Max    0.010189    constrained
 
mulliken: Atomic and Orbital Populations:

Species: H                   
Atom  Qatom  Qorb
               1s      1s      2py     2pz     2px     
   1  1.029   0.942   0.082   0.000   0.005   0.000
   2  0.971   0.866   0.082   0.000   0.023   0.000

mulliken: Qtot =    2.000
 
* Maximum dynamic memory allocated =   584 MB

siesta:                 ==============================
                        Begin FC step =     5 of    12
                            displace atom        1
                            in direction         3
                        by  -0.0378 Bohr =  -0.0200 Ang
                        ==============================

outcoor: Atomic coordinates (Ang):                          
    0.00000000    0.00000000   -0.03093506   1  H          1
    0.00000000    0.00000000    0.74094157   1  H          2

siesta: iscf   Eharris(eV)      E_KS(eV)   FreeEng(eV)     dDmax   Ef(eV)
siesta:    1      -31.3655      -31.3636      -31.3636   0.00549  -4.7786
siesta:    2      -31.3654      -31.3654      -31.3654   0.00163  -4.8378
siesta:    3      -31.3654      -31.3652      -31.3652   0.00079  -4.8310
siesta:    4      -31.3654      -31.3653      -31.3653   0.00010  -4.8321
siesta:    5      -31.3654      -31.3653      -31.3653   0.00009  -4.8321
siesta:    6      -31.3654      -31.3653      -31.3653   0.00009  -4.8321
siesta:    7      -31.3654      -31.3653      -31.3653   0.00009  -4.8321
siesta:    8      -31.3654      -31.3653      -31.3653   0.00009  -4.8321
siesta:    9      -31.3654      -31.3653      -31.3653   0.00009  -4.8321
siesta:   10      -31.3654      -31.3653      -31.3653   0.00009  -4.8321
siesta:   11      -31.3654      -31.3653      -31.3653   0.00008  -4.8322
siesta:   12      -31.3654      -31.3653      -31.3653   0.00008  -4.8322
siesta:   13      -31.3654      -31.3653      -31.3653   0.00008  -4.8322
siesta:   14      -31.3654      -31.3653      -31.3653   0.00008  -4.8322
siesta:   15      -31.3654      -31.3653      -31.3653   0.00008  -4.8322
siesta:   16      -31.3654      -31.3653      -31.3653   0.00008  -4.8322
siesta:   17      -31.3654      -31.3653      -31.3653   0.00008  -4.8322
siesta:   18      -31.3654      -31.3653      -31.3653   0.00007  -4.8322
siesta:   19      -31.3654      -31.3653      -31.3653   0.00007  -4.8322
siesta:   20      -31.3654      -31.3653      -31.3653   0.00007  -4.8322
siesta:   21      -31.3654      -31.3653      -31.3653   0.00007  -4.8322
siesta:   22      -31.3654      -31.3653      -31.3653   0.00007  -4.8322
siesta:   23      -31.3654      -31.3653      -31.3653   0.00007  -4.8322
siesta:   24      -31.3654      -31.3653      -31.3653   0.00007  -4.8322
siesta:   25      -31.3654      -31.3653      -31.3653   0.00007  -4.8323
siesta:   26      -31.3654      -31.3653      -31.3653   0.00006  -4.8323
siesta:   27      -31.3654      -31.3653      -31.3653   0.00006  -4.8323
siesta:   28      -31.3654      -31.3653      -31.3653   0.00006  -4.8323
siesta:   29      -31.3654      -31.3653      -31.3653   0.00006  -4.8323
siesta:   30      -31.3654      -31.3653      -31.3653   0.00006  -4.8323
siesta:   31      -31.3654      -31.3653      -31.3653   0.00006  -4.8323
siesta:   32      -31.3654      -31.3653      -31.3653   0.00006  -4.8323
siesta:   33      -31.3654      -31.3653      -31.3653   0.00006  -4.8323
siesta:   34      -31.3654      -31.3653      -31.3653   0.00006  -4.8323
siesta:   35      -31.3654      -31.3653      -31.3653   0.00005  -4.8323
siesta:   36      -31.3654      -31.3653      -31.3653   0.00005  -4.8323
siesta:   37      -31.3654      -31.3653      -31.3653   0.00005  -4.8323
siesta:   38      -31.3654      -31.3653      -31.3653   0.00005  -4.8323
siesta:   39      -31.3654      -31.3653      -31.3653   0.00005  -4.8323
siesta:   40      -31.3654      -31.3653      -31.3653   0.00005  -4.8323
siesta:   41      -31.3654      -31.3653      -31.3653   0.00005  -4.8323
siesta:   42      -31.3654      -31.3653      -31.3653   0.00005  -4.8323
siesta:   43      -31.3654      -31.3653      -31.3653   0.00005  -4.8323
siesta:   44      -31.3654      -31.3653      -31.3653   0.00005  -4.8324
siesta:   45      -31.3654      -31.3653      -31.3653   0.00004  -4.8324
siesta:   46      -31.3654      -31.3653      -31.3653   0.00004  -4.8324
siesta:   47      -31.3654      -31.3653      -31.3653   0.00004  -4.8324
siesta:   48      -31.3654      -31.3653      -31.3653   0.00004  -4.8324
siesta:   49      -31.3654      -31.3653      -31.3653   0.00004  -4.8324
siesta:   50      -31.3654      -31.3653      -31.3653   0.00004  -4.8324
siesta:   51      -31.3654      -31.3653      -31.3653   0.00004  -4.8324
siesta:   52      -31.3654      -31.3653      -31.3653   0.00004  -4.8324
siesta:   53      -31.3654      -31.3653      -31.3653   0.00004  -4.8324
siesta:   54      -31.3654      -31.3654      -31.3654   0.00004  -4.8324
siesta:   55      -31.3654      -31.3654      -31.3654   0.00004  -4.8324
siesta:   56      -31.3654      -31.3654      -31.3654   0.00004  -4.8324
siesta:   57      -31.3654      -31.3654      -31.3654   0.00004  -4.8324
siesta:   58      -31.3654      -31.3654      -31.3654   0.00004  -4.8324
siesta:   59      -31.3654      -31.3654      -31.3654   0.00003  -4.8324
siesta:   60      -31.3654      -31.3654      -31.3654   0.00003  -4.8324
siesta:   61      -31.3654      -31.3654      -31.3654   0.00003  -4.8324
siesta:   62      -31.3654      -31.3654      -31.3654   0.00003  -4.8324
siesta:   63      -31.3654      -31.3654      -31.3654   0.00003  -4.8324
siesta:   64      -31.3654      -31.3654      -31.3654   0.00003  -4.8324
siesta:   65      -31.3654      -31.3654      -31.3654   0.00003  -4.8324
siesta:   66      -31.3654      -31.3654      -31.3654   0.00003  -4.8324
siesta:   67      -31.3654      -31.3654      -31.3654   0.00003  -4.8324
siesta:   68      -31.3654      -31.3654      -31.3654   0.00003  -4.8324
siesta:   69      -31.3654      -31.3654      -31.3654   0.00003  -4.8324
siesta:   70      -31.3654      -31.3654      -31.3654   0.00003  -4.8324
siesta:   71      -31.3654      -31.3654      -31.3654   0.00003  -4.8324
siesta:   72      -31.3654      -31.3654      -31.3654   0.00003  -4.8324
siesta:   73      -31.3654      -31.3654      -31.3654   0.00003  -4.8324
siesta:   74      -31.3654      -31.3654      -31.3654   0.00003  -4.8324
siesta:   75      -31.3654      -31.3654      -31.3654   0.00003  -4.8324
siesta:   76      -31.3654      -31.3654      -31.3654   0.00003  -4.8324
siesta:   77      -31.3654      -31.3654      -31.3654   0.00002  -4.8324
siesta:   78      -31.3654      -31.3654      -31.3654   0.00002  -4.8324
siesta:   79      -31.3654      -31.3654      -31.3654   0.00002  -4.8325
siesta:   80      -31.3654      -31.3654      -31.3654   0.00002  -4.8325
siesta:   81      -31.3654      -31.3654      -31.3654   0.00002  -4.8325
siesta:   82      -31.3654      -31.3654      -31.3654   0.00002  -4.8325
siesta:   83      -31.3654      -31.3654      -31.3654   0.00002  -4.8325
siesta:   84      -31.3654      -31.3654      -31.3654   0.00002  -4.8325
siesta:   85      -31.3654      -31.3654      -31.3654   0.00002  -4.8325
siesta:   86      -31.3654      -31.3654      -31.3654   0.00002  -4.8325
siesta:   87      -31.3654      -31.3654      -31.3654   0.00002  -4.8325
siesta:   88      -31.3654      -31.3654      -31.3654   0.00002  -4.8325
siesta:   89      -31.3654      -31.3654      -31.3654   0.00002  -4.8325
grdsam: Grid-cell sampling, point   0
grdsam: Grid-cell sampling, point   1
grdsam: Grid-cell sampling, point   2
grdsam: Grid-cell sampling, point   3

siesta: E_KS(eV) =              -31.3654

siesta: Atomic forces (eV/Ang):
     1    0.000000    0.000227    0.672124
     2    0.000000   -0.000227   -0.672034
----------------------------------------
 Tot    0.000000    0.000000    0.000090
----------------------------------------
 Max    0.672124
 Res    0.388025    sqrt( Sum f_i^2 / 3N )
----------------------------------------
 Max    0.672124    constrained
 
mulliken: Atomic and Orbital Populations:

Species: H                   
Atom  Qatom  Qorb
               1s      1s      2py     2pz     2px     
   1  1.029   0.947   0.078   0.000   0.005   0.000
   2  0.971   0.870   0.078   0.000   0.023   0.000

mulliken: Qtot =    2.000
 
* Maximum dynamic memory allocated =   584 MB

siesta:                 ==============================
                        Begin FC step =     6 of    12
                            displace atom        1
                            in direction         3
                        by   0.0378 Bohr =   0.0200 Ang
                        ==============================

outcoor: Atomic coordinates (Ang):                          
    0.00000000    0.00000000    0.00906494   1  H          1
    0.00000000    0.00000000    0.74094157   1  H          2

siesta: iscf   Eharris(eV)      E_KS(eV)   FreeEng(eV)     dDmax   Ef(eV)
siesta:    1      -31.3657      -31.3576      -31.3576   0.01111  -5.1177
siesta:    2      -31.3650      -31.3649      -31.3649   0.00326  -4.9893
siesta:    3      -31.3650      -31.3641      -31.3641   0.00146  -5.0054
siesta:    4      -31.3650      -31.3648      -31.3648   0.00024  -5.0020
siesta:    5      -31.3650      -31.3643      -31.3643   0.00111  -5.0037
siesta:    6      -31.3650      -31.3650      -31.3650   0.00000  -5.0021
grdsam: Grid-cell sampling, point   0
grdsam: Grid-cell sampling, point   1
grdsam: Grid-cell sampling, point   2
grdsam: Grid-cell sampling, point   3

siesta: E_KS(eV) =              -31.3650

siesta: Atomic forces (eV/Ang):
     1    0.000000    0.000000   -0.764603
     2    0.000000    0.000000    0.764605
----------------------------------------
 Tot    0.000000    0.000000    0.000002
----------------------------------------
 Max    0.764605
 Res    0.441444    sqrt( Sum f_i^2 / 3N )
----------------------------------------
 Max    0.764605    constrained
 
mulliken: Atomic and Orbital Populations:

Species: H                   
Atom  Qatom  Qorb
               1s      1s      2py     2pz     2px     
   1  1.029   0.937   0.087   0.000   0.006   0.000
   2  0.971   0.861   0.087   0.000   0.022   0.000

mulliken: Qtot =    2.000
 
* Maximum dynamic memory allocated =   584 MB

siesta:                 ==============================
                        Begin FC step =     7 of    12
                            displace atom        2
                            in direction         1
                        by  -0.0378 Bohr =  -0.0200 Ang
                        ==============================

outcoor: Atomic coordinates (Ang):                          
    0.00000000    0.00000000   -0.01093506   1  H          1
   -0.02000000    0.00000000    0.74094157   1  H          2

siesta: iscf   Eharris(eV)      E_KS(eV)   FreeEng(eV)     dDmax   Ef(eV)
siesta:    1      -31.3724      -31.3703      -31.3703   0.00563  -4.8863
siesta:    2      -31.3723      -31.3722      -31.3722   0.00163  -4.9501
siesta:    3      -31.3722      -31.3720      -31.3720   0.00073  -4.9425
siesta:    4      -31.3722      -31.3722      -31.3722   0.00010  -4.9436
siesta:    5      -31.3722      -31.3721      -31.3721   0.00063  -4.9430
siesta:    6      -31.3722      -31.3721      -31.3721   0.00061  -4.9430
siesta:    7      -31.3722      -31.3721      -31.3721   0.00059  -4.9430
siesta:    8      -31.3722      -31.3721      -31.3721   0.00057  -4.9430
siesta:    9      -31.3722      -31.3721      -31.3721   0.00055  -4.9431
siesta:   10      -31.3722      -31.3721      -31.3721   0.00053  -4.9431
siesta:   11      -31.3722      -31.3721      -31.3721   0.00052  -4.9431
siesta:   12      -31.3722      -31.3721      -31.3721   0.00050  -4.9431
siesta:   13      -31.3722      -31.3721      -31.3721   0.00048  -4.9432
siesta:   14      -31.3722      -31.3721      -31.3721   0.00047  -4.9432
siesta:   15      -31.3722      -31.3721      -31.3721   0.00045  -4.9432
siesta:   16      -31.3722      -31.3721      -31.3721   0.00044  -4.9432
siesta:   17      -31.3722      -31.3721      -31.3721   0.00042  -4.9432
siesta:   18      -31.3722      -31.3721      -31.3721   0.00041  -4.9433
siesta:   19      -31.3722      -31.3721      -31.3721   0.00040  -4.9433
siesta:   20      -31.3722      -31.3721      -31.3721   0.00038  -4.9433
siesta:   21      -31.3722      -31.3721      -31.3721   0.00037  -4.9433
siesta:   22      -31.3722      -31.3721      -31.3721   0.00036  -4.9433
siesta:   23      -31.3722      -31.3721      -31.3721   0.00035  -4.9433
siesta:   24      -31.3722      -31.3721      -31.3721   0.00034  -4.9434
siesta:   25      -31.3722      -31.3721      -31.3721   0.00032  -4.9434
siesta:   26      -31.3722      -31.3721      -31.3721   0.00031  -4.9434
siesta:   27      -31.3722      -31.3721      -31.3721   0.00030  -4.9434
siesta:   28      -31.3722      -31.3721      -31.3721   0.00029  -4.9434
siesta:   29      -31.3722      -31.3721      -31.3721   0.00028  -4.9434
siesta:   30      -31.3722      -31.3721      -31.3721   0.00027  -4.9434
siesta:   31      -31.3722      -31.3721      -31.3721   0.00027  -4.9435
siesta:   32      -31.3722      -31.3721      -31.3721   0.00026  -4.9435
siesta:   33      -31.3722      -31.3721      -31.3721   0.00025  -4.9435
siesta:   34      -31.3722      -31.3721      -31.3721   0.00024  -4.9435
siesta:   35      -31.3722      -31.3721      -31.3721   0.00023  -4.9435
siesta:   36      -31.3722      -31.3721      -31.3721   0.00022  -4.9435
siesta:   37      -31.3722      -31.3721      -31.3721   0.00022  -4.9435
siesta:   38      -31.3722      -31.3722      -31.3722   0.00021  -4.9435
siesta:   39      -31.3722      -31.3722      -31.3722   0.00020  -4.9436
siesta:   40      -31.3722      -31.3722      -31.3722   0.00020  -4.9436
siesta:   41      -31.3722      -31.3722      -31.3722   0.00019  -4.9436
siesta:   42      -31.3722      -31.3722      -31.3722   0.00018  -4.9436
siesta:   43      -31.3722      -31.3722      -31.3722   0.00018  -4.9436
siesta:   44      -31.3722      -31.3722      -31.3722   0.00017  -4.9436
siesta:   45      -31.3722      -31.3722      -31.3722   0.00017  -4.9436
siesta:   46      -31.3722      -31.3722      -31.3722   0.00016  -4.9436
siesta:   47      -31.3722      -31.3722      -31.3722   0.00015  -4.9436
siesta:   48      -31.3722      -31.3722      -31.3722   0.00015  -4.9437
siesta:   49      -31.3722      -31.3722      -31.3722   0.00014  -4.9437
siesta:   50      -31.3722      -31.3722      -31.3722   0.00014  -4.9437
siesta:   51      -31.3722      -31.3722      -31.3722   0.00014  -4.9437
siesta:   52      -31.3722      -31.3722      -31.3722   0.00013  -4.9437
siesta:   53      -31.3722      -31.3722      -31.3722   0.00013  -4.9437
siesta:   54      -31.3722      -31.3722      -31.3722   0.00012  -4.9437
siesta:   55      -31.3722      -31.3722      -31.3722   0.00012  -4.9437
siesta:   56      -31.3722      -31.3722      -31.3722   0.00011  -4.9437
siesta:   57      -31.3722      -31.3722      -31.3722   0.00011  -4.9437
siesta:   58      -31.3722      -31.3722      -31.3722   0.00011  -4.9437
siesta:   59      -31.3722      -31.3722      -31.3722   0.00010  -4.9437
siesta:   60      -31.3722      -31.3722      -31.3722   0.00010  -4.9438
siesta:   61      -31.3722      -31.3722      -31.3722   0.00010  -4.9438
siesta:   62      -31.3722      -31.3722      -31.3722   0.00009  -4.9438
siesta:   63      -31.3722      -31.3722      -31.3722   0.00009  -4.9438
siesta:   64      -31.3722      -31.3722      -31.3722   0.00009  -4.9438
siesta:   65      -31.3722      -31.3722      -31.3722   0.00008  -4.9438
siesta:   66      -31.3722      -31.3722      -31.3722   0.00008  -4.9438
siesta:   67      -31.3722      -31.3722      -31.3722   0.00008  -4.9438
siesta:   68      -31.3722      -31.3722      -31.3722   0.00008  -4.9438
siesta:   69      -31.3722      -31.3722      -31.3722   0.00007  -4.9438
siesta:   70      -31.3722      -31.3722      -31.3722   0.00007  -4.9438
siesta:   71      -31.3722      -31.3722      -31.3722   0.00007  -4.9438
siesta:   72      -31.3722      -31.3722      -31.3722   0.00007  -4.9438
siesta:   73      -31.3722      -31.3722      -31.3722   0.00007  -4.9438
siesta:   74      -31.3722      -31.3722      -31.3722   0.00007  -4.9438
siesta:   75      -31.3722      -31.3722      -31.3722   0.00006  -4.9438
siesta:   76      -31.3722      -31.3722      -31.3722   0.00006  -4.9438
siesta:   77      -31.3722      -31.3722      -31.3722   0.00006  -4.9439
siesta:   78      -31.3722      -31.3722      -31.3722   0.00006  -4.9439
siesta:   79      -31.3722      -31.3722      -31.3722   0.00006  -4.9439
siesta:   80      -31.3722      -31.3722      -31.3722   0.00006  -4.9439
siesta:   81      -31.3722      -31.3722      -31.3722   0.00006  -4.9439
siesta:   82      -31.3722      -31.3722      -31.3722   0.00006  -4.9439
siesta:   83      -31.3722      -31.3722      -31.3722   0.00005  -4.9439
siesta:   84      -31.3722      -31.3722      -31.3722   0.00005  -4.9439
siesta:   85      -31.3722      -31.3722      -31.3722   0.00005  -4.9439
siesta:   86      -31.3722      -31.3722      -31.3722   0.00005  -4.9439
siesta:   87      -31.3722      -31.3722      -31.3722   0.00005  -4.9439
siesta:   88      -31.3722      -31.3722      -31.3722   0.00005  -4.9439
siesta:   89      -31.3722      -31.3722      -31.3722   0.00005  -4.9439
siesta:   90      -31.3722      -31.3722      -31.3722   0.00005  -4.9439
siesta:   91      -31.3722      -31.3722      -31.3722   0.00005  -4.9439
siesta:   92      -31.3722      -31.3722      -31.3722   0.00005  -4.9439
siesta:   93      -31.3722      -31.3722      -31.3722   0.00005  -4.9439
siesta:   94      -31.3722      -31.3722      -31.3722   0.00004  -4.9439
siesta:   95      -31.3722      -31.3722      -31.3722   0.00004  -4.9439
siesta:   96      -31.3722      -31.3722      -31.3722   0.00004  -4.9439
siesta:   97      -31.3722      -31.3722      -31.3722   0.00004  -4.9439
siesta:   98      -31.3722      -31.3722      -31.3722   0.00004  -4.9439
siesta:   99      -31.3722      -31.3722      -31.3722   0.00004  -4.9439
siesta:  100      -31.3722      -31.3722      -31.3722   0.00004  -4.9439
siesta:  101      -31.3722      -31.3722      -31.3722   0.00004  -4.9439
siesta:  102      -31.3722      -31.3722      -31.3722   0.00004  -4.9439
siesta:  103      -31.3722      -31.3722      -31.3722   0.00004  -4.9439
siesta:  104      -31.3722      -31.3722      -31.3722   0.00004  -4.9440
siesta:  105      -31.3722      -31.3722      -31.3722   0.00004  -4.9440
siesta:  106      -31.3722      -31.3722      -31.3722   0.00004  -4.9440
siesta:  107      -31.3722      -31.3722      -31.3722   0.00003  -4.9440
siesta:  108      -31.3722      -31.3722      -31.3722   0.00003  -4.9440
siesta:  109      -31.3722      -31.3722      -31.3722   0.00003  -4.9440
siesta:  110      -31.3722      -31.3722      -31.3722   0.00003  -4.9440
siesta:  111      -31.3722      -31.3722      -31.3722   0.00003  -4.9440
siesta:  112      -31.3722      -31.3722      -31.3722   0.00003  -4.9440
siesta:  113      -31.3722      -31.3722      -31.3722   0.00003  -4.9440
siesta:  114      -31.3722      -31.3722      -31.3722   0.00003  -4.9440
siesta:  115      -31.3722      -31.3722      -31.3722   0.00003  -4.9440
siesta:  116      -31.3722      -31.3722      -31.3722   0.00003  -4.9440
siesta:  117      -31.3722      -31.3722      -31.3722   0.00003  -4.9440
siesta:  118      -31.3722      -31.3722      -31.3722   0.00003  -4.9440
siesta:  119      -31.3722      -31.3722      -31.3722   0.00003  -4.9440
siesta:  120      -31.3722      -31.3722      -31.3722   0.00003  -4.9440
siesta:  121      -31.3722      -31.3722      -31.3722   0.00003  -4.9440
siesta:  122      -31.3722      -31.3722      -31.3722   0.00003  -4.9440
siesta:  123      -31.3722      -31.3722      -31.3722   0.00003  -4.9440
siesta:  124      -31.3722      -31.3722      -31.3722   0.00003  -4.9440
siesta:  125      -31.3722      -31.3722      -31.3722   0.00002  -4.9440
siesta:  126      -31.3722      -31.3722      -31.3722   0.00002  -4.9440
siesta:  127      -31.3722      -31.3722      -31.3722   0.00002  -4.9440
siesta:  128      -31.3722      -31.3722      -31.3722   0.00002  -4.9440
siesta:  129      -31.3722      -31.3722      -31.3722   0.00002  -4.9440
siesta:  130      -31.3722      -31.3722      -31.3722   0.00002  -4.9440
siesta:  131      -31.3722      -31.3722      -31.3722   0.00002  -4.9440
siesta:  132      -31.3722      -31.3722      -31.3722   0.00002  -4.9440
siesta:  133      -31.3722      -31.3722      -31.3722   0.00002  -4.9440
siesta:  134      -31.3722      -31.3722      -31.3722   0.00002  -4.9440
siesta:  135      -31.3722      -31.3722      -31.3722   0.00002  -4.9440
siesta:  136      -31.3722      -31.3722      -31.3722   0.00002  -4.9440
siesta:  137      -31.3722      -31.3722      -31.3722   0.00002  -4.9440
grdsam: Grid-cell sampling, point   0
grdsam: Grid-cell sampling, point   1
grdsam: Grid-cell sampling, point   2
grdsam: Grid-cell sampling, point   3

siesta: E_KS(eV) =              -31.3722

siesta: Atomic forces (eV/Ang):
     1   -0.001183    0.000000    0.011140
     2    0.001176    0.000000   -0.010961
----------------------------------------
 Tot   -0.000006    0.000000    0.000179
----------------------------------------
 Max    0.011140
 Res    0.006416    sqrt( Sum f_i^2 / 3N )
----------------------------------------
 Max    0.011140    constrained
 
mulliken: Atomic and Orbital Populations:

Species: H                   
Atom  Qatom  Qorb
               1s      1s      2py     2pz     2px     
   1  1.029   0.942   0.082   0.000   0.005   0.000
   2  0.971   0.866   0.082   0.000   0.023   0.000

mulliken: Qtot =    2.000
 
* Maximum dynamic memory allocated =   584 MB

siesta:                 ==============================
                        Begin FC step =     8 of    12
                            displace atom        2
                            in direction         1
                        by   0.0378 Bohr =   0.0200 Ang
                        ==============================

outcoor: Atomic coordinates (Ang):                          
    0.00000000    0.00000000   -0.01093506   1  H          1
    0.02000000    0.00000000    0.74094157   1  H          2

siesta: iscf   Eharris(eV)      E_KS(eV)   FreeEng(eV)     dDmax   Ef(eV)
siesta:    1      -31.3722      -31.3722      -31.3722   0.00147  -4.9441
siesta:    2      -31.3722      -31.3722      -31.3722   0.00006  -4.9441
siesta:    3      -31.3722      -31.3723      -31.3723   0.00001  -4.9441
grdsam: Grid-cell sampling, point   0
grdsam: Grid-cell sampling, point   1
grdsam: Grid-cell sampling, point   2
grdsam: Grid-cell sampling, point   3

siesta: E_KS(eV) =              -31.3723

siesta: Atomic forces (eV/Ang):
     1    0.000927    0.000000    0.010275
     2   -0.000920    0.000000   -0.010096
----------------------------------------
 Tot    0.000006    0.000000    0.000179
----------------------------------------
 Max    0.010275
 Res    0.005905    sqrt( Sum f_i^2 / 3N )
----------------------------------------
 Max    0.010275    constrained
 
mulliken: Atomic and Orbital Populations:

Species: H                   
Atom  Qatom  Qorb
               1s      1s      2py     2pz     2px     
   1  1.029   0.942   0.082   0.000   0.005   0.000
   2  0.971   0.866   0.082   0.000   0.023   0.000

mulliken: Qtot =    2.000
 
* Maximum dynamic memory allocated =   584 MB

siesta:                 ==============================
                        Begin FC step =     9 of    12
                            displace atom        2
                            in direction         2
                        by  -0.0378 Bohr =  -0.0200 Ang
                        ==============================

outcoor: Atomic coordinates (Ang):                          
    0.00000000    0.00000000   -0.01093506   1  H          1
    0.00000000   -0.02000000    0.74094157   1  H          2

siesta: iscf   Eharris(eV)      E_KS(eV)   FreeEng(eV)     dDmax   Ef(eV)
siesta:    1      -31.3722      -31.3722      -31.3722   0.00074  -4.9441
siesta:    2      -31.3722      -31.3722      -31.3722   0.00003  -4.9441
siesta:    3      -31.3722      -31.3722      -31.3722   0.00001  -4.9441
grdsam: Grid-cell sampling, point   0
grdsam: Grid-cell sampling, point   1
grdsam: Grid-cell sampling, point   2
grdsam: Grid-cell sampling, point   3

siesta: E_KS(eV) =              -31.3723

siesta: Atomic forces (eV/Ang):
     1   -0.000014   -0.000949    0.010286
     2    0.000014    0.000942   -0.010107
----------------------------------------
 Tot    0.000000   -0.000006    0.000179
----------------------------------------
 Max    0.010286
 Res    0.005912    sqrt( Sum f_i^2 / 3N )
----------------------------------------
 Max    0.010286    constrained
 
mulliken: Atomic and Orbital Populations:

Species: H                   
Atom  Qatom  Qorb
               1s      1s      2py     2pz     2px     
   1  1.029   0.942   0.082   0.000   0.005   0.000
   2  0.971   0.866   0.082   0.000   0.023   0.000

mulliken: Qtot =    2.000
 
* Maximum dynamic memory allocated =   584 MB

siesta:                 ==============================
                        Begin FC step =    10 of    12
                            displace atom        2
                            in direction         2
                        by   0.0378 Bohr =   0.0200 Ang
                        ==============================

outcoor: Atomic coordinates (Ang):                          
    0.00000000    0.00000000   -0.01093506   1  H          1
    0.00000000    0.02000000    0.74094157   1  H          2

siesta: iscf   Eharris(eV)      E_KS(eV)   FreeEng(eV)     dDmax   Ef(eV)
siesta:    1      -31.3722      -31.3722      -31.3722   0.00149  -4.9441
siesta:    2      -31.3722      -31.3722      -31.3722   0.00006  -4.9441
siesta:    3      -31.3722      -31.3722      -31.3722   0.00001  -4.9441
grdsam: Grid-cell sampling, point   0
grdsam: Grid-cell sampling, point   1
grdsam: Grid-cell sampling, point   2
grdsam: Grid-cell sampling, point   3

siesta: E_KS(eV) =              -31.3723

siesta: Atomic forces (eV/Ang):
     1   -0.000001    0.000923    0.010281
     2    0.000000   -0.000916   -0.010102
----------------------------------------
 Tot   -0.000001    0.000006    0.000179
----------------------------------------
 Max    0.010281
 Res    0.005908    sqrt( Sum f_i^2 / 3N )
----------------------------------------
 Max    0.010281    constrained
 
mulliken: Atomic and Orbital Populations:

Species: H                   
Atom  Qatom  Qorb
               1s      1s      2py     2pz     2px     
   1  1.029   0.942   0.082   0.000   0.005   0.000
   2  0.971   0.866   0.082   0.000   0.023   0.000

mulliken: Qtot =    2.000
 
* Maximum dynamic memory allocated =   584 MB

siesta:                 ==============================
                        Begin FC step =    11 of    12
                            displace atom        2
                            in direction         3
                        by  -0.0378 Bohr =  -0.0200 Ang
                        ==============================

outcoor: Atomic coordinates (Ang):                          
    0.00000000    0.00000000   -0.01093506   1  H          1
    0.00000000    0.00000000    0.72094157   1  H          2

siesta: iscf   Eharris(eV)      E_KS(eV)   FreeEng(eV)     dDmax   Ef(eV)
siesta:    1      -31.3652      -31.3630      -31.3630   0.00565  -5.0257
siesta:    2      -31.3650      -31.3650      -31.3650   0.00164  -4.9600
siesta:    3      -31.3650      -31.3647      -31.3647   0.00071  -4.9681
siesta:    4      -31.3650      -31.3649      -31.3649   0.00012  -4.9667
siesta:    5      -31.3650      -31.3649      -31.3649   0.00011  -4.9666
siesta:    6      -31.3650      -31.3649      -31.3649   0.00011  -4.9666
siesta:    7      -31.3650      -31.3649      -31.3649   0.00011  -4.9666
siesta:    8      -31.3650      -31.3649      -31.3649   0.00011  -4.9666
siesta:    9      -31.3650      -31.3649      -31.3649   0.00010  -4.9666
siesta:   10      -31.3650      -31.3649      -31.3649   0.00010  -4.9666
siesta:   11      -31.3650      -31.3649      -31.3649   0.00010  -4.9666
siesta:   12      -31.3650      -31.3649      -31.3649   0.00010  -4.9666
siesta:   13      -31.3650      -31.3649      -31.3649   0.00009  -4.9666
siesta:   14      -31.3650      -31.3649      -31.3649   0.00009  -4.9666
siesta:   15      -31.3650      -31.3649      -31.3649   0.00009  -4.9666
siesta:   16      -31.3650      -31.3649      -31.3649   0.00009  -4.9666
siesta:   17      -31.3650      -31.3649      -31.3649   0.00008  -4.9666
siesta:   18      -31.3650      -31.3649      -31.3649   0.00008  -4.9666
siesta:   19      -31.3650      -31.3649      -31.3649   0.00008  -4.9666
siesta:   20      -31.3650      -31.3649      -31.3649   0.00008  -4.9666
siesta:   21      -31.3650      -31.3649      -31.3649   0.00008  -4.9666
siesta:   22      -31.3650      -31.3649      -31.3649   0.00008  -4.9666
siesta:   23      -31.3650      -31.3649      -31.3649   0.00007  -4.9666
siesta:   24      -31.3650      -31.3649      -31.3649   0.00007  -4.9666
siesta:   25      -31.3650      -31.3649      -31.3649   0.00007  -4.9666
siesta:   26      -31.3650      -31.3649      -31.3649   0.00007  -4.9666
siesta:   27      -31.3650      -31.3649      -31.3649   0.00007  -4.9666
siesta:   28      -31.3650      -31.3649      -31.3649   0.00007  -4.9666
siesta:   29      -31.3650      -31.3649      -31.3649   0.00006  -4.9666
siesta:   30      -31.3650      -31.3649      -31.3649   0.00006  -4.9666
siesta:   31      -31.3650      -31.3649      -31.3649   0.00006  -4.9666
siesta:   32      -31.3650      -31.3649      -31.3649   0.00006  -4.9666
siesta:   33      -31.3650      -31.3649      -31.3649   0.00006  -4.9666
siesta:   34      -31.3650      -31.3649      -31.3649   0.00006  -4.9666
siesta:   35      -31.3650      -31.3649      -31.3649   0.00006  -4.9666
siesta:   36      -31.3650      -31.3649      -31.3649   0.00005  -4.9666
siesta:   37      -31.3650      -31.3649      -31.3649   0.00005  -4.9666
siesta:   38      -31.3650      -31.3649      -31.3649   0.00005  -4.9666
siesta:   39      -31.3650      -31.3650      -31.3650   0.00005  -4.9666
siesta:   40      -31.3650      -31.3650      -31.3650   0.00005  -4.9666
siesta:   41      -31.3650      -31.3650      -31.3650   0.00005  -4.9666
siesta:   42      -31.3650      -31.3650      -31.3650   0.00005  -4.9666
siesta:   43      -31.3650      -31.3650      -31.3650   0.00005  -4.9666
siesta:   44      -31.3650      -31.3650      -31.3650   0.00005  -4.9666
siesta:   45      -31.3650      -31.3650      -31.3650   0.00005  -4.9666
siesta:   46      -31.3650      -31.3650      -31.3650   0.00004  -4.9666
siesta:   47      -31.3650      -31.3650      -31.3650   0.00004  -4.9666
siesta:   48      -31.3650      -31.3650      -31.3650   0.00004  -4.9666
siesta:   49      -31.3650      -31.3650      -31.3650   0.00004  -4.9666
siesta:   50      -31.3650      -31.3650      -31.3650   0.00004  -4.9666
siesta:   51      -31.3650      -31.3650      -31.3650   0.00004  -4.9666
siesta:   52      -31.3650      -31.3650      -31.3650   0.00004  -4.9666
siesta:   53      -31.3650      -31.3650      -31.3650   0.00004  -4.9666
siesta:   54      -31.3650      -31.3650      -31.3650   0.00004  -4.9666
siesta:   55      -31.3650      -31.3650      -31.3650   0.00004  -4.9666
siesta:   56      -31.3650      -31.3650      -31.3650   0.00004  -4.9666
siesta:   57      -31.3650      -31.3650      -31.3650   0.00004  -4.9666
siesta:   58      -31.3650      -31.3650      -31.3650   0.00004  -4.9666
siesta:   59      -31.3650      -31.3650      -31.3650   0.00003  -4.9666
siesta:   60      -31.3650      -31.3650      -31.3650   0.00003  -4.9666
siesta:   61      -31.3650      -31.3650      -31.3650   0.00003  -4.9666
siesta:   62      -31.3650      -31.3650      -31.3650   0.00003  -4.9666
siesta:   63      -31.3650      -31.3650      -31.3650   0.00003  -4.9666
siesta:   64      -31.3650      -31.3650      -31.3650   0.00003  -4.9666
siesta:   65      -31.3650      -31.3650      -31.3650   0.00003  -4.9666
siesta:   66      -31.3650      -31.3650      -31.3650   0.00003  -4.9666
siesta:   67      -31.3650      -31.3650      -31.3650   0.00003  -4.9666
siesta:   68      -31.3650      -31.3650      -31.3650   0.00003  -4.9666
siesta:   69      -31.3650      -31.3650      -31.3650   0.00003  -4.9666
siesta:   70      -31.3650      -31.3650      -31.3650   0.00003  -4.9666
siesta:   71      -31.3650      -31.3650      -31.3650   0.00003  -4.9666
siesta:   72      -31.3650      -31.3650      -31.3650   0.00003  -4.9666
siesta:   73      -31.3650      -31.3650      -31.3650   0.00003  -4.9666
siesta:   74      -31.3650      -31.3650      -31.3650   0.00003  -4.9666
siesta:   75      -31.3650      -31.3650      -31.3650   0.00003  -4.9666
siesta:   76      -31.3650      -31.3650      -31.3650   0.00003  -4.9666
siesta:   77      -31.3650      -31.3650      -31.3650   0.00002  -4.9666
siesta:   78      -31.3650      -31.3650      -31.3650   0.00002  -4.9666
siesta:   79      -31.3650      -31.3650      -31.3650   0.00002  -4.9666
siesta:   80      -31.3650      -31.3650      -31.3650   0.00002  -4.9666
siesta:   81      -31.3650      -31.3650      -31.3650   0.00002  -4.9666
siesta:   82      -31.3650      -31.3650      -31.3650   0.00002  -4.9666
siesta:   83      -31.3650      -31.3650      -31.3650   0.00002  -4.9666
siesta:   84      -31.3650      -31.3650      -31.3650   0.00002  -4.9666
siesta:   85      -31.3650      -31.3650      -31.3650   0.00002  -4.9666
siesta:   86      -31.3650      -31.3650      -31.3650   0.00002  -4.9666
siesta:   87      -31.3650      -31.3650      -31.3650   0.00002  -4.9666
siesta:   88      -31.3650      -31.3650      -31.3650   0.00002  -4.9666
grdsam: Grid-cell sampling, point   0
grdsam: Grid-cell sampling, point   1
grdsam: Grid-cell sampling, point   2
grdsam: Grid-cell sampling, point   3

siesta: E_KS(eV) =              -31.3650

siesta: Atomic forces (eV/Ang):
     1    0.000000   -0.000204   -0.748141
     2    0.000000    0.000204    0.748468
----------------------------------------
 Tot    0.000000    0.000000    0.000327
----------------------------------------
 Max    0.748468
 Res    0.432034    sqrt( Sum f_i^2 / 3N )
----------------------------------------
 Max    0.748468    constrained
 
mulliken: Atomic and Orbital Populations:

Species: H                   
Atom  Qatom  Qorb
               1s      1s      2py     2pz     2px     
   1  1.029   0.937   0.087   0.000   0.006   0.000
   2  0.971   0.861   0.087   0.000   0.022   0.000

mulliken: Qtot =    2.000
 
* Maximum dynamic memory allocated =   584 MB

siesta:                 ==============================
                        Begin FC step =    12 of    12
                            displace atom        2
                            in direction         3
                        by   0.0378 Bohr =   0.0200 Ang
                        ==============================

outcoor: Atomic coordinates (Ang):                          
    0.00000000    0.00000000   -0.01093506   1  H          1
    0.00000000    0.00000000    0.76094157   1  H          2

siesta: iscf   Eharris(eV)      E_KS(eV)   FreeEng(eV)     dDmax   Ef(eV)
siesta:    1      -31.3660      -31.3580      -31.3580   0.01113  -4.7577
siesta:    2      -31.3654      -31.3653      -31.3653   0.00326  -4.8790
siesta:    3      -31.3654      -31.3645      -31.3645   0.00157  -4.8648
siesta:    4      -31.3654      -31.3650      -31.3650   0.00019  -4.8667
siesta:    5      -31.3654      -31.3647      -31.3647   0.00124  -4.8663
siesta:    6      -31.3654      -31.3654      -31.3654   0.00000  -4.8681
grdsam: Grid-cell sampling, point   0
grdsam: Grid-cell sampling, point   1
grdsam: Grid-cell sampling, point   2
grdsam: Grid-cell sampling, point   3

siesta: E_KS(eV) =              -31.3654

siesta: Atomic forces (eV/Ang):
     1    0.000000    0.000000    0.653944
     2    0.000000    0.000000   -0.653832
----------------------------------------
 Tot    0.000000    0.000000    0.000112
----------------------------------------
 Max    0.653944
 Res    0.377522    sqrt( Sum f_i^2 / 3N )
----------------------------------------
 Max    0.653944    constrained
 
mulliken: Atomic and Orbital Populations:

Species: H                   
Atom  Qatom  Qorb
               1s      1s      2py     2pz     2px     
   1  1.029   0.947   0.078   0.000   0.005   0.000
   2  0.971   0.870   0.078   0.000   0.023   0.000

mulliken: Qtot =    2.000
 
* Maximum dynamic memory allocated =   584 MB

outcoor: Final (unrelaxed) atomic coordinates (Ang):        
    0.00000000    0.00000000   -0.01093506   1  H          1
    0.00000000    0.00000000    0.74094157   1  H          2

siesta: Eigenvalues (eV):
  ik is    eps
   1  1 -11.00   1.24   4.09   4.09   9.64  10.82  10.82  17.39  44.28  89.03
siesta: Fermi energy =      -4.868124 eV

siesta: Program's energy decomposition (eV):
siesta:-Eions   =     -26.074526
siesta: Ena     =       4.035049
siesta: Ekin    =      25.906391
siesta: Enl     =     -16.646098
siesta: DEna    =      -1.337708
siesta: DUscf   =       0.240372
siesta: DUext   =      -0.075228
siesta: Exc     =     -17.413634
siesta: eta*DQ  =       0.000000
siesta: Emadel  =       0.000000
siesta: Ekinion =       0.000000
siesta: Eharris =     -31.365368
siesta: Eso     =       0.000000
siesta: Etot    =     -31.365381
siesta: FreeEng =     -31.365381

siesta: Final energy (eV):
siesta:       Kinetic =      25.906391
siesta:       Hartree =      28.927123
siesta:    Ext. field =      -0.075228
siesta:   Exch.-corr. =     -17.413634
siesta:  Ion-electron =     -83.294472
siesta:       Ion-ion =      14.584439
siesta:       Ekinion =       0.000000
siesta:         Total =     -31.365381

siesta: Atomic forces (eV/Ang):
siesta:    1    0.000000    0.000000    0.653944
siesta:    2    0.000000    0.000000   -0.653832
siesta: ----------------------------------------
siesta:  Tot    0.000000    0.000000    0.000112

siesta: Stress tensor (static) (eV/Ang**3):
siesta:     0.000009    0.000000    0.000000
siesta:     0.000000    0.000009    0.000000
siesta:     0.000000    0.000000    0.000082

siesta: Cell volume =       8000.000000 Ang**3

siesta: Pressure (static):
siesta:                Solid            Molecule  Units
siesta:          -0.00000037         -0.00000014  Ry/Bohr**3
siesta:          -0.00003357         -0.00001254  eV/Ang**3
siesta:          -0.05379034         -0.02009614  kBar

siesta: Total spin polarization (Qup-Qdown) =    0.000000
siesta: Spin vector =    0.000000    0.000000    0.000000
siesta: No SpinPolK block detected...

siesta: Electric dipole (a.u.)  =    0.000000    0.000000    0.142160
siesta: Electric dipole (Debye) =    0.000000    0.000000    0.361334

siesta: Vibrational frequency (cm^-1) & IR (a.u.) (Acoustic sum rule):
 eigenvalue #    1   omega =   -0.000029    IR =    0.000002 
 eigenvalue #    2   omega =    0.000001    IR =    0.000004 
 eigenvalue #    3   omega =    0.000070    IR =    0.000000 
 eigenvalue #    4   omega =  159.798619    IR =    0.003997 
 eigenvalue #    5   omega =  165.225652    IR =    0.004047 
 eigenvalue #    6   omega = 4371.202867    IR =    0.098630 
 
* Maximum dynamic memory allocated : Node    0 =   584 MB
* Maximum dynamic memory allocated : Node    1 =   580 MB
* Maximum dynamic memory allocated : Node    2 =   583 MB
* Maximum dynamic memory allocated : Node    3 =   580 MB
* Maximum memory occured during redistribXZ                   

timer: CPU execution times:
timer:  Routine       Calls   Time/call    Tot.time        %
timer:  siesta            1   16682.090   16682.090   100.00
timer:  Setup             1       2.367       2.367     0.01
timer:  bands             1       0.004       0.004     0.00
timer:  writewave         1       0.004       0.004     0.00
timer:  KSV_init          1       0.000       0.000     0.00
timer:  IterMD           13    1276.940   16600.220    99.51
timer:  hsparse          14       0.001       0.011     0.00
timer:  overfsm          26       0.004       0.100     0.00
timer:  IterSCF         361      45.974   16596.663    99.49
timer:  kinefsm          26       0.001       0.029     0.00
timer:  nlefsm           26       0.034       0.889     0.01
timer:  DHSCF           401      41.563   16666.945    99.91
timer:  DHSCF1            1      12.697      12.697     0.08
timer:  DHSCF2           53      24.618    1304.750     7.82
timer:  REORD          5722       0.148     845.107     5.07
timer:  POISON          454      22.588   10254.763    61.47
timer:  DHSCF3          401      38.055   15260.072    91.48
timer:  rhoofd          401       0.271     108.498     0.65
timer:  CELLXC          401       4.775    1914.876    11.48
timer:  vmat            361       0.145      52.347     0.31
timer:  diagon          348       0.020       6.972     0.04
timer:  rdiag           348       0.012       4.346     0.03
timer:  DHSCF4           52       1.501      78.033     0.47
timer:  dfscf            52       1.206      62.718     0.38
  
>> End of run:   8-OCT-2013  20:29:48
