     300
 i =        1, E =     -9641.9104819787
 Au         1.0428309654        1.0432887112        1.0428329970
 Au         1.0428309181        1.0455666143        9.3701606428
 Au         1.0428164255        3.1284667232        3.1347829359
 Au         3.1284405077        1.0429711201        3.1354787877
 Au         3.1283959785        3.1284623017        1.0428439184
 Au         3.1257916911        3.1284761706        9.3701993122
 Au         1.0428276559        1.0435507113        5.2115144817
 Au         5.2141640953        1.0432614581        1.0428376451
 Au         5.2160295264        1.0429248592        9.3700403279
 Au        13.5566254260        1.0432591549        1.0428429592
 Au        13.5547647009        1.0429258259        9.3700320208
 Au         1.0428286345        5.2136424759        1.0428467383
 Au         1.0428319269        5.2113638737        9.3701474747
 Au         1.0428162518       13.5573494837        1.0428366207
 Au         1.0428101633       13.5582155369        9.3689008482
 Au         1.0428187714        3.1284672512        7.2982836655
 Au         5.2157053638        3.1284703890        3.1357746631
 Au        13.5550928264        3.1284704954        3.1357751797
 Au         1.0428279292        7.3011672944        3.1362868998
 Au         1.0428279907       15.6409131387        3.1362755151
 Au         3.1269394530        1.0444848480        7.2942612132
 Au         7.3008739935        1.0429650305        3.1343534499
 Au        15.6423543803        1.0429781673        3.1354746994
 Au         3.1284371863        5.2139567235        3.1354779057
 Au         3.1283275180       13.5558474047        3.1342682947
 Au         3.1276136032        3.1284619080        5.2113936662
 Au         7.2986689262        3.1284686504        1.0428433113
 Au         7.2979982988        3.1284396898        9.3692524333
 Au        15.6423889897        3.1284710717        1.0428433409
 Au        15.6449991976        3.1284757226        9.3702019680
 Au         3.1284137337        7.2994887191        1.0428369710
 Au         3.1283613245        7.3019153530        9.3700170342
 Au         3.1284133544       15.6425853901        1.0428488633
 Au         3.1283575539       15.6401529136        9.3700103545
 Au         1.0428252453        5.2133810722        5.2115121001
 Au         1.0428248900       13.5569148388        5.2085218783
 Au         5.2139055102        1.0426276630        5.2099243692
 Au        13.5568789048        1.0426278333        5.2099200273
 Au         5.2141726889        5.2136774798        1.0428442183
 Au         5.2160395811        5.2140208460        9.3700322248
 Au        13.5557831020       13.5590441586        1.0428407468
 Au        13.5595741194       13.5613156445        9.3655660087
 Au        13.5566344747        5.2136794334        1.0428495998
 Au        13.5547536990        5.2140198136        9.3700240557
 Au         5.2150177239       13.5590484230        1.0428577811
 Au         5.2112237655       13.5613273067        9.3655737379
 Au         1.0428324196        7.2993835641        7.2998448105
 Au         1.0428324132       15.6426886842        7.2998305355
 Au         5.2136211658        3.1284694652        7.2997957423
 Au        13.5571836585        3.1284695429        7.2997955009
 Au         5.2136970237        7.2991585564        3.1347281178
 Au        13.5570819132       15.6429162825        3.1347229973
 Au        13.5570826794        7.2991594267        3.1347284813
 Au         5.2136978905       15.6429171241        3.1347226975
 Au         3.1269183461        5.2124547371        7.2942597171
 Au         3.1272310255       13.5556612044        7.2965105208
 Au         7.3010518735        1.0438138039        7.2964420413
 Au        15.6438552678        1.0444868440        7.2942547928
 Au         7.3008679670        5.2139752817        3.1343464292
 Au        15.6424705807       13.5558378115        3.1342695971
 Au        15.6423573618        5.2139497680        3.1354741174
 Au         7.3021135281       13.5544807358        3.1373276129
 Au         3.1286577190        7.2992086186        5.2098939148
 Au         3.1286550487       15.6428633281        5.2098959763
 Au         7.2992784537        3.1284741926        5.2084186751
 Au        15.6431765852        3.1284709894        5.2113993857
 Au         7.2972111230        7.3003675270        1.0428388729
 Au         7.2940026060        7.2965709034        9.3654156651
 Au        15.6423780410       15.6425789772        1.0428427085
 Au        15.6424351792       15.6401515628        9.3700219458
 Au        15.6423781697        7.2994905315        1.0428307209
 Au        15.6424314413        7.3019188600        9.3700287034
 Au         7.2972122612       15.6416995714        1.0428322032
 Au         7.2940821036       15.6454380614        9.3653948122
 Au         1.0428185475        9.3847330686        1.0428433406
 Au         1.0428091142        9.3838566360        9.3688911354
 Au         9.3854055854        1.0449284298        1.0428439508
 Au         9.3853990150        1.0453726812        9.3713330111
 Au         1.0428211032       11.4710433277        3.1348161894
 Au         9.3853915875        3.1284585848        3.1342874899
 Au         3.1283306326        9.3862292501        3.1342693648
 Au        11.4699190284        1.0429584421        3.1343465453
 Au         3.1263118780       11.4710377511        1.0428382615
 Au         3.1259742720       11.4710462209        9.3721367108
 Au        11.4721080648        3.1284597056        1.0428444936
 Au        11.4727837156        3.1284400964        9.3692452018
 Au         1.0428272986        9.3851483420        5.2085499929
 Au         9.3854034041        5.2120063430        1.0428356840
 Au         9.3853997547        5.2115736301        9.3713552702
 Au         9.3853963396       13.5546701446        1.0428324051
 Au         9.3854188122       13.6721986458        9.3710642382
 Au         9.3854009327        1.0423061735        5.2149688799
 Au         5.2150093770        9.3830403998        1.0428461648
 Au         5.2112516761        9.3807807784        9.3655326821
 Au        13.5557737697        9.3830447146        1.0428291195
 Au        13.5595467308        9.3807929107        9.3655246193
 Au         1.0428067119       11.4710314670        7.2971334856
 Au         9.3854044218        7.2977163652        3.1338556364
 Au         9.3854044437       15.6443294461        3.1338982170
 Au         9.3853870641        3.1284313116        7.2965951351
 Au         5.2125636769       11.4710474268        3.1344032733
 Au        13.5582198381       11.4710473159        3.1344236268
 Au         3.1272197384        9.3864406967        7.2965010630
 Au        11.4699253398        5.2139823868        3.1343391938
 Au        11.4686864820       13.5544879893        3.1373414506
 Au        11.4697458216        1.0437958291        7.2964496122
 Au         7.3021022731        9.3876083887        3.1373235625
 Au        15.6424672994        9.3862387738        3.1342703290
 Au         3.1289855709       11.4710433068        5.2150270513
 Au        11.4735819544        7.3003636928        1.0428476302
 Au        11.4767970052        7.2965590377        9.3654205341
 Au        11.4735808685       15.6417079035        1.0428410067
 Au        11.4767182967       15.6454483923        9.3654001223
 Au        11.4715031632        3.1284651073        5.2084111125
 Au         7.3014171460       11.4710452559        1.0428601060
 Au         7.1863151528       11.4711795402        9.3801356496
 Au        15.6444853172       11.4710465729        1.0428490049
 Au        15.6448378868       11.4710458969        9.3721358703
 Au         5.2139004923        5.2142992680        5.2099188032
 Au        13.5569272707       13.5583747249        5.2100657328
 Au        13.5569022016        5.2142990809        5.2099143233
 Au         5.2138829534       13.5583718197        5.2100685075
 Au         5.2146424698        7.3001333911        7.2965464606
 Au        13.5561543801       15.6419432885        7.2965318594
 Au        13.5561403042        7.3001288468        7.2965466517
 Au         5.2146282687       15.6419387152        7.2965315258
 Au         7.3010493315        5.2131737130        7.2964652735
 Au        15.6435682497       13.5556431750        7.2965089754
 Au        15.6438716115        5.2124477513        7.2942543808
 Au         7.2995334342       13.5565892077        7.2877663964
 Au         7.2980414362        7.2992251964        5.2103330273
 Au        15.6421323372       15.6428549161        5.2098953923
 Au        15.6421296767        7.2992121923        5.2098932758
 Au         7.2980301362       15.6428660549        5.2103228904
 Au         5.2138776609        9.3837232975        5.2100675955
 Au        13.5569144139        9.3837203106        5.2100649525
 Au         9.3853986215        5.2146330290        5.2149714926
 Au         9.3854016889       13.5576615962        5.2092865488
 Au         5.2300463913       11.4710276939        7.3126045976
 Au        13.5407148278       11.4710247950        7.3126557815
 Au         9.3854085726        7.3141597164        7.3112023224
 Au         9.3854079219       15.6277543759        7.3113696944
 Au         7.2995353632        9.3855594104        7.2878392601
 Au        15.6435836400        9.3864545396        7.2964977109
 Au        11.4697450285        5.2131950174        7.2964703759
 Au        11.4712629464       13.5566062433        7.2877317253
 Au         7.2987643400       11.4710552620        5.2095271280
 Au        15.6418055777       11.4710523636        5.2150304841
 Au        11.4727515379        7.2992258773        5.2103364834
 Au        11.4727627098       15.6428700579        5.2103262477
 Au         9.3853982790        9.3874155909        1.0428414902
 Au         9.3854165451        9.2700158057        9.3714506497
 Au         9.3853942667       11.4710523098        3.1374578180
 Au        11.4686980576        9.3876009734        3.1373377918
 Au        11.4693756392       11.4710367612        1.0428400030
 Au        11.5844295043       11.4711816218        9.3800977787
 Au         9.3854039746        9.3843867784        5.2092461182
 Au         9.3853847168       11.4709926232        7.2115764981
 Au        11.4712627017        9.3855450192        7.2878082976
 Au        11.4720136983       11.4710464596        5.2095288885
  S         9.3823716106       11.4689108959       16.9794497581
  C         9.3772142325       11.4542026202       15.2115485414
  C         8.1573545137       11.4657093387       14.5425696198
  C        10.6012574564       11.4657975888       14.5435570987
  S         9.3856682989       11.4729259412       10.7092947543
  C         9.3838848810       11.4858487183       12.4771747653
  C        10.6034868435       11.4738804448       13.1462700067
  C         8.1594843433       11.4737593979       13.1449067494
  H         7.2273863744       11.4436224202       15.0849191346
  H        11.5256270337       11.4434195772       15.0943117750
  H        11.5331976713       11.4962910903       12.6036784565
  H         7.2348740582       11.4964819331       12.5943977163
 Au         1.0428089976        1.0455702486       18.3185454870
 Au         1.0428292578        3.1284715438       20.3903770607
 Au         3.1269159624        1.0444672467       20.3944052697
 Au         3.1257947409        3.1284523176       18.3184729848
 Au         1.0428227081        1.0435489867       22.4770747281
 Au         5.2160259742        1.0429311048       18.3186561564
 Au        13.5547353882        1.0428895462       18.3186590607
 Au         1.0428063103        5.2113624543       18.3185265732
 Au         1.0428503051       13.5582218764       18.3197997252
 Au         1.0428238780        3.1284714758       24.5538059141
 Au         5.2136192804        3.1284556851       20.3888710694
 Au        13.5571824077        3.1284548735       20.3888704252
 Au         1.0428146597        7.2993805763       20.3888239349
 Au         1.0428145211       15.6426858185       20.3888070352
 Au         3.1284363443        1.0429740736       24.5531139770
 Au         7.3010435826        1.0437311957       20.3921871530
 Au        15.6438647007        1.0444989798       20.3944052974
 Au         3.1269266366        5.2124677264       20.3944023520
 Au         3.1271755011       13.5556450594       20.3921776508
 Au         3.1276218597        3.1284683948       22.4771896289
 Au         7.2979993278        3.1285014025       18.3194283523
 Au        15.6450109593        3.1284617592       18.3184950949
 Au         3.1283641224        7.3019109390       18.3186678082
 Au         3.1283714248       15.6401655542       18.3186621427
 Au         1.0428230230        5.2133833517       22.4770760741
 Au         1.0428197551       13.5569367776       22.4800404238
 Au         5.2138896533        1.0426406955       22.4786691960
 Au        13.5568928309        1.0426394742       22.4786684205
 Au         5.2160198323        5.2139929876       18.3186460947
 Au        13.5595711609       13.5613748504       18.3231337077
 Au        13.5547599476        5.2140338729       18.3186488409
 Au         5.2112852280       13.5612297635       18.3231738938
 Au         1.0428259164        7.3011583267       24.5523168944
 Au         1.0428258737       15.6409042969       24.5523059087
 Au         5.2157059451        3.1284600188       24.5528128540
 Au        13.5550934398        3.1284600681       24.5528078299
 Au         5.2146265672        7.3001228433       20.3921367202
 Au        13.5561387649       15.6419329642       20.3921073897
 Au        13.5561557371        7.3001407892       20.3921244446
 Au         5.2146436073       15.6419508120       20.3921196794
 Au         3.1284324068        5.2139671643       24.5531100611
 Au         3.1283163361       13.5558522797       24.5543146511
 Au         7.3008706098        1.0429581694       24.5542572890
 Au        15.6423553992        1.0429830387       24.5531149704
 Au         7.3010474109        5.2131364425       20.3922146423
 Au        15.6435509751       13.5556300845       20.3921457647
 Au        15.6438479386        5.2124296519       20.3944025300
 Au         7.2994900262       13.5565304661       20.4008747648
 Au         3.1286628215        7.2992185437       22.4786874404
 Au         3.1286660655       15.6428550705       22.4786886854
 Au         7.2992926766        3.1284642894       22.4801707610
 Au        15.6431770580        3.1284682304       22.4771878584
 Au         7.2940754829        7.2966028823       18.3232859056
 Au        15.6424331240       15.6401435819       18.3186736369
 Au        15.6424411084        7.3019279134       18.3186790937
 Au         7.2939784961       15.6455407200       18.3232571835
 Au         1.0428525636        9.3838671526       18.3197886171
 Au         9.3854129649        1.0453582873       18.3173319389
 Au         1.0428724915       11.4710576481       20.3915280767
 Au         9.3853936459        3.1285134235       20.3920662745
 Au         3.1272026619        9.3864279136       20.3921677801
 Au        11.4697444779        1.0437594342       20.3921941403
 Au         3.1259421788       11.4710373410       18.3165640615
 Au        11.4727768898        3.1284925233       18.3194437806
 Au         1.0428194961        9.3851664486       22.4800650816
 Au         9.3854104141        5.2115547375       18.3173603687
 Au         9.3853929767       13.6721041588       18.3171622352
 Au         9.3853969400        1.0422972917       22.4736158952
 Au         5.2112426342        9.3808343907       18.3231305232
 Au        13.5595961861        9.3806895440       18.3230915162
 Au         1.0428368798       11.4710465719       24.5537731306
 Au         9.3854040429        7.3143354108       20.3772585392
 Au         9.3854036660       15.6279271064       20.3774711595
 Au         9.3854007604        3.1284841734       24.5543016536
 Au         5.2302358392       11.4710505965       20.3758614898
 Au        13.5409027336       11.4710503120       20.3762088451
 Au         3.1283198570        9.3862436468       24.5543199090
 Au        11.4697369926        5.2131118407       20.3922200180
 Au        11.4712074851       13.5565229713       20.4007819969
 Au        11.4699318769        1.0429458687       24.5542389083
 Au         7.2994805663        9.3854761953       20.4009585435
 Au        15.6435274512        9.3864389100       20.3921345060
 Au         3.1289878523       11.4710394057       22.4735605791
 Au        11.4766961027        7.2966670420       18.3233074492
 Au        11.4767938307       15.6454813910       18.3232780481
 Au        11.4715252224        3.1284643964       22.4801700265
 Au         7.1861710590       11.4708976715       18.3088136763
 Au        15.6448141079       11.4710466045       18.3165321129
 Au         5.2139051366        5.2143030127       22.4786635143
 Au        13.5568920063       13.5583528284       22.4785014957
 Au        13.5568770899        5.2143044358       22.4786627444
 Au         5.2138574556       13.5583665644       22.4785399910
 Au         5.2136978966        7.2991573688       24.5538600330
 Au        13.5570827136       15.6429150287       24.5538664390
 Au        13.5570814756        7.2991541014       24.5538706531
 Au         5.2136966932       15.6429117371       24.5538558835
 Au         7.3008797185        5.2139619800       24.5542460705
 Au        15.6424589011       13.5558512771       24.5543190073
 Au        15.6423523870        5.2139517667       24.5531109230
 Au         7.3020955064       13.5544684214       24.5512471671
 Au         7.2980310713        7.2991921428       22.4782740426
 Au        15.6421414805       15.6428674829       22.4787009010
 Au        15.6421445552        7.2992066554       22.4786994754
 Au         7.2980433782       15.6428528038       22.4782582959
 Au         5.2138515588        9.3837092034       22.4785383140
 Au        13.5568983494        9.3837228244       22.4784999250
 Au         9.3853974973        5.2146275007       22.4736214251
 Au         9.3853938045       13.5577016433       22.4793766661
 Au         5.2125932667       11.4710355216       24.5541444551
 Au        13.5582490888       11.4710355161       24.5541889093
 Au         9.3853956991        7.2977444929       24.5546923010
 Au         9.3853956423       15.6443572756       24.5547384830
 Au         7.3021093353        9.3876074157       24.5512495849
 Au        15.6424619005        9.3862379169       24.5543245994
 Au        11.4699160519        5.2139810598       24.5542280872
 Au        11.4686876975       13.5544925789       24.5512488953
 Au         7.2987889652       11.4710345007       22.4790356631
 Au        15.6418007974       11.4710391419       22.4735534088
 Au        11.4727611230        7.2992096133       22.4782605367
 Au        11.4727487194       15.6428345102       22.4782446866
 Au         9.3853948595        9.2698988507       18.3175945030
 Au         9.3855181650       11.4711130916       20.4770964484
 Au        11.4712207650        9.3854853085       20.4008701545
 Au        11.5843186869       11.4708889146       18.3082659796
 Au         9.3853933131        9.3844225484       22.4793238106
 Au         9.3853868781       11.4710352834       24.5511277986
 Au        11.4686808789        9.3875895879       24.5512509909
 Au        11.4720466650       11.4710347275       22.4790974621
     300
 i =        2, E =     -9641.9189377761
 Au         1.0428320710        1.0427415980        1.0428157650
 Au         1.0428297343        1.0463593384        9.3574754327
 Au         1.0428182109        3.1284616177        3.1348198960
 Au         3.1279528729        1.0436236538        3.1350686447
 Au         3.1290154320        3.1284643469        1.0428384186
 Au         3.1249393702        3.1285062633        9.3576144886
 Au         1.0428260639        1.0435269705        5.2121366554
 Au         5.2135618240        1.0443636460        1.0428266676
 Au         5.2157738577        1.0430198630        9.3564740181
 Au        13.5572272928        1.0443632454        1.0428315787
 Au        13.5550208709        1.0430099792        9.3564730554
 Au         1.0428314369        5.2141878870        1.0428428985
 Au         1.0428284283        5.2105462023        9.3574529840
 Au         1.0428181793       13.5587652478        1.0428157030
 Au         1.0428177127       13.5586033066        9.3562711080
 Au         1.0428171220        3.1284540961        7.2896457079
 Au         5.2162635873        3.1284770164        3.1361403035
 Au        13.5545226193        3.1284770184        3.1361386807
 Au         1.0428240064        7.3016439552        3.1367002189
 Au         1.0428238470       15.6404512627        3.1366736711
 Au         3.1271081316        1.0443772832        7.2834454152
 Au         7.3026710536        1.0425772054        3.1339932490
 Au        15.6428461323        1.0436253191        3.1350744133
 Au         3.1279478586        5.2133028286        3.1350648698
 Au         3.1287756952       13.5542976827        3.1338201456
 Au         3.1276962746        3.1284601993        5.2117974608
 Au         7.2972777644        3.1284706039        1.0428396172
 Au         7.2974484175        3.1284046957        9.3566387032
 Au        15.6417657516        3.1284735168        1.0428273399
 Au        15.6458608772        3.1285000308        9.3576116385
 Au         3.1273590406        7.2986288371        1.0428201603
 Au         3.1283852494        7.3019618228        9.3563893175
 Au         3.1273588582       15.6434425734        1.0428427125
 Au         3.1283348906       15.6401385958        9.3563845956
 Au         1.0428258394        5.2134025386        5.2121315754
 Au         1.0428288993       13.5575067614        5.2082919885
 Au         5.2139853046        1.0431464965        5.2112568220
 Au        13.5567913279        1.0431502424        5.2112504251
 Au         5.2135716791        5.2125753848        1.0428336856
 Au         5.2157847474        5.2138883589        9.3564661774
 Au        13.5542971808       13.5599021688        1.0428431716
 Au        13.5714035244       13.5772138092        9.3540437581
 Au        13.5572363497        5.2125754378        1.0428386242
 Au        13.5550014268        5.2138989617        9.3564621224
 Au         5.2164995170       13.5599055120        1.0428428138
 Au         5.1994054528       13.5771906649        9.3540582155
 Au         1.0428224103        7.2979450549        7.2919894015
 Au         1.0428227810       15.6441331730        7.2919779295
 Au         5.2124000196        3.1284976200        7.2918851163
 Au        13.5584006525        3.1284927878        7.2918822640
 Au         5.2137179826        7.2989634290        3.1342017584
 Au        13.5570615348       15.6431058669        3.1341920306
 Au        13.5570608164        7.2989692869        3.1341996644
 Au         5.2137172544       15.6431114742        3.1341944005
 Au         3.1270757720        5.2125685459        7.2834304549
 Au         3.1269513481       13.5527844231        7.2842384297
 Au         7.3038343644        1.0443575695        7.2842906820
 Au        15.6436888880        1.0443807721        7.2834318689
 Au         7.3026602734        5.2143679096        3.1339898223
 Au        15.6420173929       13.5542930914        3.1338210334
 Au        15.6428529114        5.2133029921        3.1350612806
 Au         7.3033911905       13.5535062959        3.1376228007
 Au         3.1283271830        7.2991079227        5.2112939280
 Au         3.1283132475       15.6429613773        5.2112844976
 Au         7.2985520375        3.1285028647        5.2081697260
 Au        15.6430933613        3.1284689526        5.2118053641
 Au         7.2961621291        7.3016942526        1.0428283478
 Au         7.2769098137        7.2844570200        9.3538122887
 Au        15.6434347587       15.6434408476        1.0428382744
 Au        15.6424568717       15.6401348415        9.3563941407
 Au        15.6434350383        7.2986296197        1.0428155404
 Au        15.6424074034        7.3019608266        9.3563986887
 Au         7.2961633302       15.6403731100        1.0428172617
 Au         7.2769927247       15.6576183406        9.3537307080
 Au         1.0428185035        9.3833145245        1.0428432149
 Au         1.0428198765        9.3834710934        9.3562553942
 Au         9.3854047007        1.0453377040        1.0428452196
 Au         9.3854011091        1.0506854151        9.3594602551
 Au         1.0428283941       11.4710114387        3.1355138757
 Au         9.3853865398        3.1284627108        3.1345879315
 Au         3.1287691680        9.3877772020        3.1338383721
 Au        11.4681271501        1.0425722414        3.1339890655
 Au         3.1260354948       11.4710407292        1.0428207124
 Au         3.1208335828       11.4710418297        9.3608413793
 Au        11.4735072801        3.1284660911        1.0428239762
 Au        11.4733276080        3.1284113833        9.3566214838
 Au         1.0428288385        9.3845292210        5.2083062623
 Au         9.3854038714        5.2115973985        1.0428126628
 Au         9.3854007208        5.2063081101        9.3595115320
 Au         9.3854009905       13.5543390751        1.0428024894
 Au         9.3853951586       13.6989949184        9.3635943979
 Au         9.3854017194        1.0382569781        5.2220574848
 Au         5.2164921956        9.3821803000        1.0428175376
 Au         5.1995295636        9.3649880048        9.3539652455
 Au        13.5542879800        9.3821845277        1.0428180139
 Au        13.5712853907        9.3649665720        9.3539543842
 Au         1.0428347198       11.4710392498        7.2882225176
 Au         9.3854034908        7.2962085495        3.1336325348
 Au         9.3854022470       15.6458022456        3.1337379827
 Au         9.3853891986        3.1284010525        7.2872470544
 Au         5.2112251776       11.4710675682        3.1345432689
 Au        13.5595619247       11.4710675193        3.1345563927
 Au         3.1269013403        9.3893009427        7.2842355409
 Au        11.4681409146        5.2143705393        3.1339900005
 Au        11.4674103861       13.5535123396        3.1376290099
 Au        11.4669601973        1.0443567907        7.2843004642
 Au         7.3033771718        9.3885835015        3.1376145350
 Au        15.6420208361        9.3877847027        3.1338427223
 Au         3.1334128020       11.4710496133        5.2225548612
 Au        11.4746260381        7.3016899729        1.0428405353
 Au        11.4939001075        7.2844553495        9.3538221414
 Au        11.4746246875       15.6403794181        1.0428295487
 Au        11.4938162518       15.6576234413        9.3537381827
 Au        11.4722319124        3.1284928487        5.2081681806
 Au         7.3014957404       11.4710480385        1.0428478507
 Au         7.1605855304       11.4711454271        9.3800085541
 Au        15.6447653202       11.4710490954        1.0428414427
 Au        15.6499675847       11.4710399288        9.3608641579
 Au         5.2139760127        5.2137721862        5.2112547696
 Au        13.5598403330       13.5571844752        5.2103226038
 Au        13.5568196498        5.2137683145        5.2112477879
 Au         5.2109649393       13.5571930963        5.2103140547
 Au         5.2123831779        7.2980955542        7.2853598928
 Au        13.5584233528       15.6439971716        7.2853635245
 Au        13.5584084152        7.2980956224        7.2853674901
 Au         5.2123684554       15.6439968892        7.2853556337
 Au         7.3038375920        5.2126460458        7.2843436148
 Au        15.6438300613       13.5527775009        7.2842433326
 Au        15.6437232224        5.2125688119        7.2834339205
 Au         7.3069451057       13.5482816276        7.2814119501
 Au         7.2991490446        7.2963036569        5.2104841396
 Au        15.6424835857       15.6429590668        5.2112829986
 Au        15.6424695144        7.2991097943        5.2112924365
 Au         7.2991571923       15.6458454505        5.2104523501
 Au         5.2109781262        9.3848889378        5.2103181654
 Au        13.5598094151        9.3848968845        5.2103269256
 Au         9.3854017136        5.2186210213        5.2220272334
 Au         9.3853958735       13.5735572726        5.1970154852
 Au         5.2256705389       11.4710464528        7.2975019959
 Au        13.5451183279       11.4710411015        7.2975058986
 Au         9.3854079876        7.3072107687        7.2932671441
 Au         9.3854059575       15.6344878559        7.2937116881
 Au         7.3070498314        9.3939187662        7.2816606498
 Au        15.6438800489        9.3893085040        7.2842253834
 Au        11.4669577203        5.2126454497        7.2843381633
 Au        11.4638525460       13.5482870587        7.2813763839
 Au         7.2829937567       11.4710602304        5.1976587734
 Au        15.6373650503       11.4710592047        5.2225646268
 Au        11.4716431923        7.2962955289        5.2104843866
 Au        11.4716351322       15.6458545773        5.2104522930
 Au         9.3854016263        9.3877441174        1.0428442863
 Au         9.3853934569        9.2439728673        9.3644782346
 Au         9.3853991041       11.4710554844        3.1360029416
 Au        11.4674216381        9.3885754908        3.1376134786
 Au        11.4692878870       11.4710397185        1.0428293130
 Au        11.6101024433       11.4711465582        9.3800974917
 Au         9.3853958592        9.3684542659        5.1969514583
 Au         9.3853905706       11.4708504909        7.2230496528
 Au        11.4637369564        9.3939042589        7.2816525987
 Au        11.4877932861       11.4710500145        5.1976441910