ATOMS
H             0.00000000      0.00000000     -0.00998254             0.00001336     -0.70392890      0.06696340
H             0.00000000      0.00000000      0.73998166             0.00001336     -0.70392890      0.06696340
