ATOMS
H             0.00000000      0.00000000     -0.00998254             0.00000069      0.06696340      0.70392890
H             0.00000000      0.00000000      0.73998166             0.00000069      0.06696340      0.70392890
