         0      -5729.810926761      -5729.803111338      -5729.783192272      -5729.751357877      -5729.731304778      -5729.761165975      -5729.782607823          0.704327980          0.704327980          0.704327980          0.704327980          0.961545083          0.961545083
         1      -5729.810926760      -5729.930916439      -5729.912112603      -5729.879972140      -5729.855831749      -5729.887125616      -5729.782607823          1.123794771          0.728087379          0.712509969          0.769068583          0.929293397          1.308716441
         2      -5729.810926761      -5729.945999369      -5729.931452669      -5729.905688794      -5729.880251031      -5729.907659716      -5729.782607823          1.115808187          0.785085406          0.690814204          0.780435596          0.972780807          1.315286084
         3      -5729.810926761      -5729.954308664      -5729.943787341      -5729.917807023      -5729.891314940      -5729.918401567      -5729.782607823          1.103690367          0.866869653          0.719644011          0.798615357          1.054883462          1.318153708
         4      -5729.810926761      -5729.959023624      -5729.952562807      -5729.926127991      -5729.898266714      -5729.927635759      -5729.782607823          1.095605353          0.918909227          0.737421275          0.814378797          1.093790758          1.322327178
         5      -5729.810926760      -5729.962670335      -5729.960012689      -5729.932867205      -5729.904845008      -5729.934305788      -5729.782607823          1.087704059          0.985646550          0.771345916          0.838157353          1.153356868          1.328967727
         6      -5729.810926760      -5729.964956743      -5729.965640557      -5729.937763589      -5729.909560658      -5729.940647187      -5729.782607823          1.083910955          1.028421200          0.794918157          0.857905885          1.183410545          1.335104087
         7      -5729.810926760      -5729.966014360      -5729.968641318      -5729.940199325      -5729.911899430      -5729.946051834      -5729.782607823          1.082379777          1.049763193          0.810031130          0.852279550          1.219868677          1.336032985
         8      -5729.810926760      -5729.980421776      -5730.002989652      -5729.968825213      -5729.939825905      -5729.949023766      -5729.782607823          1.194403554          1.567529573          1.142790843          0.753025736          2.043671428          1.604354827
         9      -5729.810926761      -5729.982784952      -5730.005238303      -5729.972095024      -5729.941461507      -5729.958480488      -5729.782607823          1.215674805          1.537923351          1.145543729          0.775603543          2.020061636          1.665566207
        10      -5729.810926761      -5729.984281470      -5730.006844484      -5729.974544156      -5729.942741528      -5729.978826935      -5729.782607823          1.233268557          1.513859080          1.150841570          0.798728920          2.002311928          1.694836939
        11      -5729.810926760      -5729.988190985      -5730.011720421      -5729.982088389      -5729.946883529      -5729.977935257      -5729.782607824          1.290664790          1.443015944          1.171478319          0.879430929          1.977292157          1.760399400
        12      -5729.810926761      -5729.988755598      -5730.012738094      -5729.984018263      -5729.947651746      -5729.983845505      -5729.782607823          1.297179400          1.433163213          1.174438412          0.895458305          1.975548390          1.771864620
        13      -5729.810926760      -5729.992017205      -5730.020002629      -5729.993307147      -5729.954053627      -5729.979935121      -5729.782607823          1.350112540          1.370273644          1.214939288          1.028265602          1.969181490          1.859136092
        14      -5729.810926760      -5729.992229936      -5730.020843391      -5729.996637754      -5729.954813104      -5729.988894686      -5729.782607823          1.351242668          1.368195738          1.217599292          1.043530511          1.966083222          1.867385691
        15      -5729.810926761      -5729.992348927      -5730.022349186      -5729.997982349      -5729.956261023      -5729.989863278      -5729.782607824          1.352940327          1.365209185          1.228050299          1.066894075          1.971023511          1.877341658
        16      -5729.810926760      -5729.992430318      -5730.023190992      -5730.000168735      -5729.957082698      -5729.990247485      -5729.782607823          1.353661374          1.364295709          1.234724517          1.080611121          1.975762478          1.882808619
        17      -5729.810926761      -5729.991975467      -5730.023415851      -5730.000809980      -5729.957395630      -5729.989818192      -5729.782607823          1.345839949          1.367967426          1.237381570          1.078879856          1.983295313          1.876281848
        18      -5729.810926760      -5729.992058116      -5730.024144928      -5730.001982103      -5729.958129683      -5729.990321020      -5729.782607823          1.347010230          1.366902693          1.244472377          1.089596711          1.986434532          1.881860597
        19      -5729.810926761      -5729.993030144      -5730.035306265      -5730.007715065      -5729.969879868      -5729.987477795      -5729.782607823          1.364897273          1.421353855          1.394753175          1.271757817          2.069605709          1.983330318
        20      -5729.810926760      -5729.993325072      -5730.035711485      -5730.019510580      -5729.970392503      -5729.994946965      -5729.782607823          1.367115613          1.423794406          1.383287583          1.286494451          2.066238121          1.988684603
        21      -5729.810926761      -5729.993791384      -5730.036857172      -5730.021055781      -5729.972244973      -5729.995123997      -5729.782607823          1.375015187          1.425638342          1.405182528          1.311144293          2.082317266          2.000611109
        22      -5729.810926761      -5729.993964800      -5730.037315350      -5730.022480148      -5729.973025902      -5729.995970217      -5729.782607823          1.377969132          1.427048462          1.414923120          1.322397858          2.089068446          2.005849069
        23      -5729.810926760      -5729.994106527      -5730.037687147      -5730.023418318      -5729.973669644      -5729.996342573      -5729.782607823          1.380404951          1.428418054          1.421863602          1.331880644          2.095275809          2.010244033
        24      -5729.810926760      -5729.995563575      -5730.041681850      -5730.026065854      -5729.981073886      -5729.994436856      -5729.782607823          1.407330270          1.455941646          1.522237674          1.434832480          2.183921051          2.059692156
        25      -5729.810926761      -5729.995780889      -5730.041996108      -5730.031880966      -5729.981735120      -5729.998230323      -5729.782607823          1.409571425          1.459385969          1.519982037          1.450123752          2.184807493          2.066803281
        26      -5729.810926760      -5729.995994111      -5730.042422526      -5730.032851637      -5729.982834542      -5729.998725181      -5729.782607823          1.413304846          1.463114045          1.529664958          1.467044671          2.195559619          2.075861478
        27      -5729.810926760      -5729.996197112      -5730.042817531      -5730.033805299      -5729.983903988      -5729.999069844      -5729.782607823          1.416864731          1.466866595          1.538216015          1.483442320          2.205718635          2.084477844
        28      -5729.810926761      -5729.996406695      -5730.043214674      -5730.034706548      -5729.985036550      -5729.999429032      -5729.782607823          1.420560884          1.470845341          1.548515880          1.500592491          2.217967039          2.093569714
        29      -5729.810926760      -5729.996609289      -5730.043589082      -5730.035636475      -5729.986155806      -5729.999780486      -5729.782607823          1.424139701          1.474878374          1.556821442          1.517603025          2.228971358          2.102448544
        30      -5729.810926761      -5729.996707034      -5730.043761969      -5730.036516806      -5729.986701649      -5730.000118532      -5729.782607823          1.425850140          1.476786839          1.561395608          1.525600114          2.234812860          2.106692007
        31      -5729.810926760      -5730.003054004      -5730.054628458      -5730.055817487      -5730.023443287      -5730.000279755      -5729.782607823          1.545268661          1.692999446          1.976806370          2.103545276          2.858209242          2.409303025
        32      -5729.810926760      -5730.003461167      -5730.054944862      -5730.061876003      -5730.025713926      -5730.007522134      -5729.782607823          1.552254817          1.699880992          1.976458689          2.132694906          2.824540126          2.397848775
        33      -5729.810926761      -5729.999907900      -5730.055384018      -5730.062794251      -5730.028617649      -5730.009907967      -5729.782607823          1.484479587          1.767805133          1.984696839          2.176167426          2.753911219          2.429356998
        34      -5729.810926760      -5729.994172143      -5730.055831659      -5730.062822247      -5730.032133723      -5730.009530596      -5729.782607823          1.386583529          1.864896508          1.999868593          2.229998091          2.677689710          2.460377400
        35      -5729.810926760      -5729.991436719      -5730.055944483      -5730.064252997      -5730.033416776      -5730.012234967      -5729.782607823          1.342936723          1.906917824          2.008494867          2.248963936          2.653921567          2.468517559
        36      -5729.810926761      -5729.994338096      -5730.055855947      -5730.064019851      -5730.032154333      -5730.011859270      -5729.782607824          1.389362498          1.863071346          1.998699723          2.231075712          2.675018480          2.462028744
        37      -5729.810926760      -5729.962661802      -5730.056945242      -5730.064336388      -5730.043310861      -5729.997970811      -5729.782607823          0.969783668          2.278486972          2.085918471          2.425695366          2.470885643          2.539273986
        38      -5729.810926760      -5729.956201723      -5730.056806748      -5730.066141890      -5730.044175539      -5730.013473319      -5729.782607823          0.898832473          2.340049280          2.105452579          2.435194305          2.457659839          2.543555004
        39      -5729.810926760      -5729.937721961      -5730.056381493      -5730.066476294      -5730.046086055      -5730.012725972      -5729.782607823          0.718103452          2.495249237          2.155681871          2.459532351          2.454908482          2.537669694
        40      -5729.810926761      -5729.924304406      -5730.056045634      -5730.066698565      -5730.046995015      -5730.014264603      -5729.782607823          0.606281642          2.584400733          2.183531903          2.472300154          2.453741512          2.534766767
