     116
 i =        1, E =     -3518.0855483178
 Au         0.0000000000        0.0000000000        0.0000000000
 Au         0.0000000000        4.1460000000        0.0000000000
 Au         2.0730000000        2.0730000000        0.0000000000
 Au         2.0730000000        6.2190000000        0.0000000000
 Au         4.1460000000        0.0000000000        0.0000000000
 Au         4.1460000000        4.1460000000        0.0000000000
 Au         6.2190000000        2.0730000000        0.0000000000
 Au         6.2190000000        6.2190000000        0.0000000000
 Au         0.0000000000        2.0730000000        2.0730000000
 Au         0.0000000000        6.2190000000        2.0730000000
 Au         2.0730000000        0.0000000000        2.0730000000
 Au         2.0730000000        4.1460000000        2.0730000000
 Au         4.1460000000        2.0730000000        2.0730000000
 Au         4.1460000000        6.2190000000        2.0730000000
 Au         6.2190000000        0.0000000000        2.0730000000
 Au         6.2190000000        4.1460000000        2.0730000000
 Au         0.0000000000        0.0000000000        4.1460000000
 Au         0.0000000000        4.1460000000        4.1460000000
 Au         2.0730000000        2.0730000000        4.1460000000
 Au         2.0730000000        6.2190000000        4.1460000000
 Au         4.1460000000        0.0000000000        4.1460000000
 Au         4.1460000000        4.1460000000        4.1460000000
 Au         6.2190000000        2.0730000000        4.1460000000
 Au         6.2190000000        6.2190000000        4.1460000000
 Au         0.0000000000        2.0730000000        6.2190000000
 Au         0.0000000000        6.2190000000        6.2190000000
 Au         2.0730000000        0.0000000000        6.2190000000
 Au         2.0730000000        4.1460000000        6.2190000000
 Au         4.1460000000        2.0730000000        6.2190000000
 Au         4.1460000000        6.2190000000        6.2190000000
 Au         6.2190000000        0.0000000000        6.2190000000
 Au         6.2190000000        4.1460000000        6.2190000000
 Au         0.0000000000        0.0000000000        8.2920000000
 Au         0.0000000000        4.1460000000        8.2920000000
 Au         2.0730000000        2.0730000000        8.2920000000
 Au         2.0730000000        6.2190000000        8.2920000000
 Au         4.1460000000        0.0000000000        8.2920000000
 Au         4.1460000000        4.1460000000        8.2920000000
 Au         6.2190000000        2.0730000000        8.2920000000
 Au         6.2190000000        6.2190000000        8.2920000000
 Au        -0.0000250000        2.0729834734       10.3760905462
 Au        -0.0000129782        6.2189525907       10.3606066487
 Au         2.0711307022       -0.0011457870       10.3533553707
 Au         2.0711501993        4.1472462030       10.3533059777
 Au         4.1459873003        2.0729100406       10.2987618071
 Au         4.1459967122        6.2188085209       10.3749522503
 Au         6.2208695026       -0.0011490035       10.3533291939
 Au         6.2208505388        4.1472496087       10.3532788094
 Au         0.0000318827       -0.0105470321       12.4415298490
 Au         0.0000324752        4.1566451383       12.4416143149
 Au         1.9499538496        2.0730286625       12.4324336429
 Au         2.0617762167        6.2189471664       12.4407607990
 Au         4.1459861680       -0.1313407595       12.4181798170
 Au         4.1459871511        4.2772796780       12.4180436103
 Au         6.3420086689        2.0730307799       12.4324094338
 Au         6.2302242913        6.2189478335       12.4407648174
  S         4.1462750934        2.0756395492       13.9580149967
  C         4.1433194240        2.0904731750       15.7405609498
  H         1.9743420242        2.0976898527       15.8417879488
  H         6.3140094030        2.0975356138       15.8518195294
  C         2.8994779586        2.0745909878       16.3935427147
  C         5.3837210168        2.0747495684       16.3955795332
  C         2.8990144730        2.0694471247       17.7963747009
  C         5.3816185005        2.0695249581       17.7978306334
  H         1.9673054696        2.0465310907       18.3406082684
  H         6.3072179638        2.0463504524       18.3508432571
  C         4.1390168983        2.0543829794       18.4522022529
  S         4.1413772942        2.0700311647       20.2359408434
 Au         0.0004462505       -0.0086100983       21.7520833376
 Au         0.0004377602        4.1545125465       21.7521725382
 Au         1.9472824153        2.0730066006       21.7619659590
 Au         2.0633571396        6.2190185472       21.7529253524
 Au         4.1465370208       -0.1343980657       21.7763355001
 Au         4.1465449160        4.2805574676       21.7761963521
 Au         6.3445710481        2.0730097206       21.7616106046
 Au         6.2190000000        6.2190000000       21.7550000000
 Au         0.0000000000        2.0730000000       23.8280000000
 Au         0.0000000000        6.2190000000       23.8280000000
 Au         2.0730000000        0.0000000000       23.8280000000
 Au         2.0730000000        4.1460000000       23.8280000000
 Au         4.1460000000        2.0730000000       23.8280000000
 Au         4.1460000000        6.2190000000       23.8280000000
 Au         6.2190000000        0.0000000000       23.8280000000
 Au         6.2190000000        4.1460000000       23.8280000000
 Au         0.0000000000        0.0000000000       25.9010000000
 Au         0.0000000000        4.1460000000       25.9010000000
 Au         2.0730000000        2.0730000000       25.9010000000
 Au         2.0730000000        6.2190000000       25.9010000000
 Au         4.1460000000        0.0000000000       25.9010000000
 Au         4.1460000000        4.1460000000       25.9010000000
 Au         6.2190000000        2.0730000000       25.9010000000
 Au         6.2190000000        6.2190000000       25.9010000000
 Au         0.0000000000        2.0730000000       27.9740000000
 Au         0.0000000000        6.2190000000       27.9740000000
 Au         2.0730000000        0.0000000000       27.9740000000
 Au         2.0730000000        4.1460000000       27.9740000000
 Au         4.1460000000        2.0730000000       27.9740000000
 Au         4.1460000000        6.2190000000       27.9740000000
 Au         6.2190000000        0.0000000000       27.9740000000
 Au         6.2190000000        4.1460000000       27.9740000000
 Au         0.0000000000        0.0000000000       30.0470000000
 Au         0.0000000000        4.1460000000       30.0470000000
 Au         2.0730000000        2.0730000000       30.0470000000
 Au         2.0730000000        6.2190000000       30.0470000000
 Au         4.1460000000        0.0000000000       30.0470000000
 Au         4.1460000000        4.1460000000       30.0470000000
 Au         6.2190000000        2.0730000000       30.0470000000
 Au         6.2190000000        6.2190000000       30.0470000000
 Au         0.0000000000        2.0730000000       32.1200000000
 Au         0.0000000000        6.2190000000       32.1200000000
 Au         2.0730000000        0.0000000000       32.1200000000
 Au         2.0730000000        4.1460000000       32.1200000000
 Au         4.1460000000        2.0730000000       32.1200000000
 Au         4.1460000000        6.2190000000       32.1200000000
 Au         6.2190000000        0.0000000000       32.1200000000
 Au         6.2190000000        4.1460000000       32.1200000000
     116
 i =        2, E =     -3518.0911355051
 Au         0.0000000000        0.0000000000        0.0000000000
 Au         0.0000000000        4.1460000000        0.0000000000
 Au         2.0730000000        2.0730000000        0.0000000000
 Au         2.0730000000        6.2190000000        0.0000000000
 Au         4.1460000000        0.0000000000        0.0000000000
 Au         4.1460000000        4.1460000000        0.0000000000
 Au         6.2190000000        2.0730000000        0.0000000000
 Au         6.2190000000        6.2190000000        0.0000000000
 Au         0.0000000000        2.0730000000        2.0730000000
 Au         0.0000000000        6.2190000000        2.0730000000
 Au         2.0730000000        0.0000000000        2.0730000000
 Au         2.0730000000        4.1460000000        2.0730000000
 Au         4.1460000000        2.0730000000        2.0730000000
 Au         4.1460000000        6.2190000000        2.0730000000
 Au         6.2190000000        0.0000000000        2.0730000000
 Au         6.2190000000        4.1460000000        2.0730000000
 Au         0.0000000000        0.0000000000        4.1460000000
 Au         0.0000000000        4.1460000000        4.1460000000
 Au         2.0730000000        2.0730000000        4.1460000000
 Au         2.0730000000        6.2190000000        4.1460000000
 Au         4.1460000000        0.0000000000        4.1460000000
 Au         4.1460000000        4.1460000000        4.1460000000
 Au         6.2190000000        2.0730000000        4.1460000000
 Au         6.2190000000        6.2190000000        4.1460000000
 Au         0.0000000000        2.0730000000        6.2190000000
 Au         0.0000000000        6.2190000000        6.2190000000
 Au         2.0730000000        0.0000000000        6.2190000000
 Au         2.0730000000        4.1460000000        6.2190000000
 Au         4.1460000000        2.0730000000        6.2190000000
 Au         4.1460000000        6.2190000000        6.2190000000
 Au         6.2190000000        0.0000000000        6.2190000000
 Au         6.2190000000        4.1460000000        6.2190000000
 Au         0.0000000000        0.0000000000        8.2920000000
 Au         0.0000000000        4.1460000000        8.2920000000
 Au         2.0730000000        2.0730000000        8.2920000000
 Au         2.0730000000        6.2190000000        8.2920000000
 Au         4.1460000000        0.0000000000        8.2920000000
 Au         4.1460000000        4.1460000000        8.2920000000
 Au         6.2190000000        2.0730000000        8.2920000000
 Au         6.2190000000        6.2190000000        8.2920000000
 Au         0.0000103037        2.0730128195       10.3521766109
 Au        -0.0000115992        6.2189407175       10.3603737981
 Au         2.0748768250        0.0050332628       10.3551778863
 Au         2.0748901409        4.1410653359       10.3550354630
 Au         4.1460113190        2.0727784696       10.3203950222
 Au         4.1459875884        6.2184854647       10.3419948915
 Au         6.2171270742        0.0050323399       10.3551864103
 Au         6.2171156193        4.1410673877       10.3550418832
 Au         0.0000450015       -0.0402501556       12.4489695039
 Au         0.0000470896        4.1864430174       12.4491183135
 Au         1.9419095480        2.0728254020       12.4482156252
 Au         2.0284052589        6.2190546675       12.4485033992
 Au         4.1459726278       -0.1414160354       12.4265405298
 Au         4.1459731636        4.2879610020       12.4259807456
 Au         6.3500358210        2.0728272422       12.4483217130
 Au         6.2635790596        6.2190565015       12.4484876286
  S         4.1459783104        2.0806662986       13.9151274866
  C         4.1438089912        2.0749241398       15.7052833453
  H         1.9839924653        2.0902971985       15.8422060709
  H         6.3032127843        2.0902310959       15.8500465622
  C         2.9208632758        2.0934906874       16.3958331717
  C         5.3641736499        2.0933269993       16.4003157100
  C         2.9175551138        2.0513538232       17.7921296499
  C         5.3618118247        2.0512842847       17.7962792275
  H         1.9777941312        2.0538217670       18.3425331639
  H         6.2989831660        2.0536902724       18.3503326283
  C         4.1385951141        2.0696626846       18.4859461299
  S         4.1399542022        2.0649584335       20.2759799625
 Au        -0.0007045814       -0.0391972981       21.7429059672
 Au        -0.0007149216        4.1849692599       21.7430622411
 Au         1.9365625408        2.0732743144       21.7398147919
 Au         2.0296213111        6.2189110144       21.7428812532
 Au         4.1451951832       -0.1458331246       21.7611409109
 Au         4.1452025667        4.2912104337       21.7605106952
 Au         6.3548789569        2.0732743572       21.7394396506
 Au         6.2190000000        6.2190000000       21.7550000000
 Au         0.0000000000        2.0730000000       23.8280000000
 Au         0.0000000000        6.2190000000       23.8280000000
 Au         2.0730000000        0.0000000000       23.8280000000
 Au         2.0730000000        4.1460000000       23.8280000000
 Au         4.1460000000        2.0730000000       23.8280000000
 Au         4.1460000000        6.2190000000       23.8280000000
 Au         6.2190000000        0.0000000000       23.8280000000
 Au         6.2190000000        4.1460000000       23.8280000000
 Au         0.0000000000        0.0000000000       25.9010000000
 Au         0.0000000000        4.1460000000       25.9010000000
 Au         2.0730000000        2.0730000000       25.9010000000
 Au         2.0730000000        6.2190000000       25.9010000000
 Au         4.1460000000        0.0000000000       25.9010000000
 Au         4.1460000000        4.1460000000       25.9010000000
 Au         6.2190000000        2.0730000000       25.9010000000
 Au         6.2190000000        6.2190000000       25.9010000000
 Au         0.0000000000        2.0730000000       27.9740000000
 Au         0.0000000000        6.2190000000       27.9740000000
 Au         2.0730000000        0.0000000000       27.9740000000
 Au         2.0730000000        4.1460000000       27.9740000000
 Au         4.1460000000        2.0730000000       27.9740000000
 Au         4.1460000000        6.2190000000       27.9740000000
 Au         6.2190000000        0.0000000000       27.9740000000
 Au         6.2190000000        4.1460000000       27.9740000000
 Au         0.0000000000        0.0000000000       30.0470000000
 Au         0.0000000000        4.1460000000       30.0470000000
 Au         2.0730000000        2.0730000000       30.0470000000
 Au         2.0730000000        6.2190000000       30.0470000000
 Au         4.1460000000        0.0000000000       30.0470000000
 Au         4.1460000000        4.1460000000       30.0470000000
 Au         6.2190000000        2.0730000000       30.0470000000
 Au         6.2190000000        6.2190000000       30.0470000000
 Au         0.0000000000        2.0730000000       32.1200000000
 Au         0.0000000000        6.2190000000       32.1200000000
 Au         2.0730000000        0.0000000000       32.1200000000
 Au         2.0730000000        4.1460000000       32.1200000000
 Au         4.1460000000        2.0730000000       32.1200000000
 Au         4.1460000000        6.2190000000       32.1200000000
 Au         6.2190000000        0.0000000000       32.1200000000
 Au         6.2190000000        4.1460000000       32.1200000000
     116
 i =        3, E =     -3518.0906604808
 Au         0.0000000000        0.0000000000        0.0000000000
 Au         0.0000000000        4.1460000000        0.0000000000
 Au         2.0730000000        2.0730000000        0.0000000000
 Au         2.0730000000        6.2190000000        0.0000000000
 Au         4.1460000000        0.0000000000        0.0000000000
 Au         4.1460000000        4.1460000000        0.0000000000
 Au         6.2190000000        2.0730000000        0.0000000000
 Au         6.2190000000        6.2190000000        0.0000000000
 Au         0.0000000000        2.0730000000        2.0730000000
 Au         0.0000000000        6.2190000000        2.0730000000
 Au         2.0730000000        0.0000000000        2.0730000000
 Au         2.0730000000        4.1460000000        2.0730000000
 Au         4.1460000000        2.0730000000        2.0730000000
 Au         4.1460000000        6.2190000000        2.0730000000
 Au         6.2190000000        0.0000000000        2.0730000000
 Au         6.2190000000        4.1460000000        2.0730000000
 Au         0.0000000000        0.0000000000        4.1460000000
 Au         0.0000000000        4.1460000000        4.1460000000
 Au         2.0730000000        2.0730000000        4.1460000000
 Au         2.0730000000        6.2190000000        4.1460000000
 Au         4.1460000000        0.0000000000        4.1460000000
 Au         4.1460000000        4.1460000000        4.1460000000
 Au         6.2190000000        2.0730000000        4.1460000000
 Au         6.2190000000        6.2190000000        4.1460000000
 Au         0.0000000000        2.0730000000        6.2190000000
 Au         0.0000000000        6.2190000000        6.2190000000
 Au         2.0730000000        0.0000000000        6.2190000000
 Au         2.0730000000        4.1460000000        6.2190000000
 Au         4.1460000000        2.0730000000        6.2190000000
 Au         4.1460000000        6.2190000000        6.2190000000
 Au         6.2190000000        0.0000000000        6.2190000000
 Au         6.2190000000        4.1460000000        6.2190000000
 Au         0.0000000000        0.0000000000        8.2920000000
 Au         0.0000000000        4.1460000000        8.2920000000
 Au         2.0730000000        2.0730000000        8.2920000000
 Au         2.0730000000        6.2190000000        8.2920000000
 Au         4.1460000000        0.0000000000        8.2920000000
 Au         4.1460000000        4.1460000000        8.2920000000
 Au         6.2190000000        2.0730000000        8.2920000000
 Au         6.2190000000        6.2190000000        8.2920000000
 Au        -0.0000207931        2.0731351126       10.3455745420
 Au        -0.0000155188        6.2189483155       10.3461364332
 Au         2.0795888707        0.0120535597       10.3641370507
 Au         2.0793603055        4.1336565958       10.3639323031
 Au         4.1460117681        2.0728238737       10.3484814717
 Au         4.1459691577        6.2188091255       10.3271288162
 Au         6.2124861131        0.0120696381       10.3642018619
 Au         6.2127167387        4.1336430292       10.3639967383
 Au         0.0000484981       -0.0562406926       12.4562639005
 Au         0.0000495112        4.2023874320       12.4563328524
 Au         1.9320096376        2.0723082412       12.4625922732
 Au         2.0086637969        6.2194581629       12.4548443664
 Au         4.1459638254       -0.1533763585       12.4317972044
 Au         4.1459647401        4.3016533136       12.4313110954
 Au         6.3600493422        2.0723107072       12.4627336760
 Au         6.2832874761        6.2194590842       12.4548571759
  S         4.1459185752        2.0813940014       13.8902006942
  C         4.1436611333        2.1051045914       15.6896178308
  H         1.9876572159        2.0910189533       15.8453992804
  H         6.2990178740        2.0909378928       15.8523153886
  C         2.9278337813        2.0588641153       16.3952362261
  C         5.3577210278        2.0587369903       16.4000461389
  C         2.9239154911        2.0858790070       17.7918499316
  C         5.3554481961        2.0856379774       17.7965794225
  H         1.9829682334        2.0532546229       18.3401892563
  H         6.2953440683        2.0531739862       18.3468623718
  C         4.1387831898        2.0404008279       18.5000439946
  S         4.1391159477        2.0640016510       20.2971863690
 Au        -0.0053918733       -0.0633014646       21.7322059673
 Au        -0.0054067404        4.2090703830       21.7322979798
 Au         1.9274090642        2.0738541514       21.7189935691
 Au         2.0033952135        6.2184955520       21.7297568752
 Au         4.1385153372       -0.1487286117       21.7441009191
 Au         4.1385473614        4.2921826333       21.7434015964
 Au         6.3627757988        2.0738449965       21.7181951726
 Au         6.2190000000        6.2190000000       21.7550000000
 Au         0.0000000000        2.0730000000       23.8280000000
 Au         0.0000000000        6.2190000000       23.8280000000
 Au         2.0730000000        0.0000000000       23.8280000000
 Au         2.0730000000        4.1460000000       23.8280000000
 Au         4.1460000000        2.0730000000       23.8280000000
 Au         4.1460000000        6.2190000000       23.8280000000
 Au         6.2190000000        0.0000000000       23.8280000000
 Au         6.2190000000        4.1460000000       23.8280000000
 Au         0.0000000000        0.0000000000       25.9010000000
 Au         0.0000000000        4.1460000000       25.9010000000
 Au         2.0730000000        2.0730000000       25.9010000000
 Au         2.0730000000        6.2190000000       25.9010000000
 Au         4.1460000000        0.0000000000       25.9010000000
 Au         4.1460000000        4.1460000000       25.9010000000
 Au         6.2190000000        2.0730000000       25.9010000000
 Au         6.2190000000        6.2190000000       25.9010000000
 Au         0.0000000000        2.0730000000       27.9740000000
 Au         0.0000000000        6.2190000000       27.9740000000
 Au         2.0730000000        0.0000000000       27.9740000000
 Au         2.0730000000        4.1460000000       27.9740000000
 Au         4.1460000000        2.0730000000       27.9740000000
 Au         4.1460000000        6.2190000000       27.9740000000
 Au         6.2190000000        0.0000000000       27.9740000000
 Au         6.2190000000        4.1460000000       27.9740000000
 Au         0.0000000000        0.0000000000       30.0470000000
 Au         0.0000000000        4.1460000000       30.0470000000
 Au         2.0730000000        2.0730000000       30.0470000000
 Au         2.0730000000        6.2190000000       30.0470000000
 Au         4.1460000000        0.0000000000       30.0470000000
 Au         4.1460000000        4.1460000000       30.0470000000
 Au         6.2190000000        2.0730000000       30.0470000000
 Au         6.2190000000        6.2190000000       30.0470000000
 Au         0.0000000000        2.0730000000       32.1200000000
 Au         0.0000000000        6.2190000000       32.1200000000
 Au         2.0730000000        0.0000000000       32.1200000000
 Au         2.0730000000        4.1460000000       32.1200000000
 Au         4.1460000000        2.0730000000       32.1200000000
 Au         4.1460000000        6.2190000000       32.1200000000
 Au         6.2190000000        0.0000000000       32.1200000000
 Au         6.2190000000        4.1460000000       32.1200000000
     116
 i =        4, E =     -3518.0930901510
 Au         0.0000000000        0.0000000000        0.0000000000
 Au         0.0000000000        4.1460000000        0.0000000000
 Au         2.0730000000        2.0730000000        0.0000000000
 Au         2.0730000000        6.2190000000        0.0000000000
 Au         4.1460000000        0.0000000000        0.0000000000
 Au         4.1460000000        4.1460000000        0.0000000000
 Au         6.2190000000        2.0730000000        0.0000000000
 Au         6.2190000000        6.2190000000        0.0000000000
 Au         0.0000000000        2.0730000000        2.0730000000
 Au         0.0000000000        6.2190000000        2.0730000000
 Au         2.0730000000        0.0000000000        2.0730000000
 Au         2.0730000000        4.1460000000        2.0730000000
 Au         4.1460000000        2.0730000000        2.0730000000
 Au         4.1460000000        6.2190000000        2.0730000000
 Au         6.2190000000        0.0000000000        2.0730000000
 Au         6.2190000000        4.1460000000        2.0730000000
 Au         0.0000000000        0.0000000000        4.1460000000
 Au         0.0000000000        4.1460000000        4.1460000000
 Au         2.0730000000        2.0730000000        4.1460000000
 Au         2.0730000000        6.2190000000        4.1460000000
 Au         4.1460000000        0.0000000000        4.1460000000
 Au         4.1460000000        4.1460000000        4.1460000000
 Au         6.2190000000        2.0730000000        4.1460000000
 Au         6.2190000000        6.2190000000        4.1460000000
 Au         0.0000000000        2.0730000000        6.2190000000
 Au         0.0000000000        6.2190000000        6.2190000000
 Au         2.0730000000        0.0000000000        6.2190000000
 Au         2.0730000000        4.1460000000        6.2190000000
 Au         4.1460000000        2.0730000000        6.2190000000
 Au         4.1460000000        6.2190000000        6.2190000000
 Au         6.2190000000        0.0000000000        6.2190000000
 Au         6.2190000000        4.1460000000        6.2190000000
 Au         0.0000000000        0.0000000000        8.2920000000
 Au         0.0000000000        4.1460000000        8.2920000000
 Au         2.0730000000        2.0730000000        8.2920000000
 Au         2.0730000000        6.2190000000        8.2920000000
 Au         4.1460000000        0.0000000000        8.2920000000
 Au         4.1460000000        4.1460000000        8.2920000000
 Au         6.2190000000        2.0730000000        8.2920000000
 Au         6.2190000000        6.2190000000        8.2920000000
 Au        -0.0000304175        2.0730813969       10.3547045772
 Au        -0.0000122902        6.2189113824       10.3371832446
 Au         2.0802882992        0.0134120294       10.3689285527
 Au         2.0801248428        4.1322786929       10.3688171114
 Au         4.1460001102        2.0728097252       10.3523950673
 Au         4.1459702939        6.2187239125       10.3352912288
 Au         6.2118131678        0.0134237049       10.3690119558
 Au         6.2119798108        4.1322694009       10.3689003388
 Au         0.0000486763       -0.0502722649       12.4574550012
 Au         0.0000494288        4.1964174534       12.4574783887
 Au         1.9257365288        2.0719647517       12.4654070649
 Au         2.0137450185        6.2196544221       12.4549412442
 Au         4.1459748713       -0.1599395696       12.4321627389
 Au         4.1459751526        4.3093182012       12.4313630274
 Au         6.3663878449        2.0719693477       12.4655446763
 Au         6.2781830195        6.2196561620       12.4550202775
  S         4.1459429481        2.0839702185       13.8997188519
  C         4.1432607945        2.0849871269       15.7018316780
  H         1.9822294847        2.0873319759       15.8461300842
  H         6.3046237973        2.0872213014       15.8536049231
  C         2.9198512923        2.0781336947       16.3942101041
  C         5.3649871112        2.0781216661       16.3980375460
  C         2.9174162898        2.0666130022       17.7925309662
  C         5.3627843590        2.0665193851       17.7962694898
  H         1.9785276993        2.0570259870       18.3383112482
  H         6.2996773096        2.0569082474       18.3455790502
  C         4.1392509072        2.0602110470       18.4874443556
  S         4.1395513461        2.0615485082       20.2870502193
 Au        -0.0088301543       -0.0600461351       21.7294037130
 Au        -0.0089138934        4.2059196135       21.7294336990
 Au         1.9209853207        2.0742023151       21.7180166852
 Au         2.0074496490        6.2182411524       21.7257127933
 Au         4.1336967343       -0.1496027790       21.7426866512
 Au         4.1338338453        4.2919607869       21.7417120591
 Au         6.3675923972        2.0741974547       21.7169460068
 Au         6.2190000000        6.2190000000       21.7550000000
 Au         0.0000000000        2.0730000000       23.8280000000
 Au         0.0000000000        6.2190000000       23.8280000000
 Au         2.0730000000        0.0000000000       23.8280000000
 Au         2.0730000000        4.1460000000       23.8280000000
 Au         4.1460000000        2.0730000000       23.8280000000
 Au         4.1460000000        6.2190000000       23.8280000000
 Au         6.2190000000        0.0000000000       23.8280000000
 Au         6.2190000000        4.1460000000       23.8280000000
 Au         0.0000000000        0.0000000000       25.9010000000
 Au         0.0000000000        4.1460000000       25.9010000000
 Au         2.0730000000        2.0730000000       25.9010000000
 Au         2.0730000000        6.2190000000       25.9010000000
 Au         4.1460000000        0.0000000000       25.9010000000
 Au         4.1460000000        4.1460000000       25.9010000000
 Au         6.2190000000        2.0730000000       25.9010000000
 Au         6.2190000000        6.2190000000       25.9010000000
 Au         0.0000000000        2.0730000000       27.9740000000
 Au         0.0000000000        6.2190000000       27.9740000000
 Au         2.0730000000        0.0000000000       27.9740000000
 Au         2.0730000000        4.1460000000       27.9740000000
 Au         4.1460000000        2.0730000000       27.9740000000
 Au         4.1460000000        6.2190000000       27.9740000000
 Au         6.2190000000        0.0000000000       27.9740000000
 Au         6.2190000000        4.1460000000       27.9740000000
 Au         0.0000000000        0.0000000000       30.0470000000
 Au         0.0000000000        4.1460000000       30.0470000000
 Au         2.0730000000        2.0730000000       30.0470000000
 Au         2.0730000000        6.2190000000       30.0470000000
 Au         4.1460000000        0.0000000000       30.0470000000
 Au         4.1460000000        4.1460000000       30.0470000000
 Au         6.2190000000        2.0730000000       30.0470000000
 Au         6.2190000000        6.2190000000       30.0470000000
 Au         0.0000000000        2.0730000000       32.1200000000
 Au         0.0000000000        6.2190000000       32.1200000000