 DBCSR| CPU Multiplication driver                                           XSMM
 DBCSR| Multrec recursion limit                                              512
 DBCSR| Multiplication stack size                                           1000
 DBCSR| Maximum elements for images                                    UNLIMITED
 DBCSR| Multiplicative factor virtual images                                   1
 DBCSR| Use multiplication densification                                       T
 DBCSR| Multiplication size stacks                                             3
 DBCSR| Use memory pool for CPU allocation                                     F
 DBCSR| Number of 3D layers                                               SINGLE
 DBCSR| Use MPI memory allocation                                              F
 DBCSR| Use RMA algorithm                                                      F
 DBCSR| Use Communication thread                                               T
 DBCSR| Communication thread load                                             87
 DBCSR| MPI: My node id                                                        0
 DBCSR| MPI: Number of nodes                                                 240
 DBCSR| OMP: Current number of threads                                         1
 DBCSR| OMP: Max number of threads                                             1
 DBCSR| Split modifier for TAS multiplication algorithm                  1.0E+00


  **** **** ******  **  PROGRAM STARTED AT               2023-02-21 21:50:09.767
 ***** ** ***  *** **   PROGRAM STARTED ON                 cn1033.scarf.rl.ac.uk
 **    ****   ******    PROGRAM STARTED BY                             scarf1157
 ***** **    ** ** **   PROGRAM PROCESS ID                                 33285
  **** **  *******  **  PROGRAM STARTED IN /work4/scd/scarf1157/work/testing/cp2
                                           k-smeagol/bdt/cp2k/hollow-site/transp
                                           ort-cp2k/5-4/geometry-ordered/3x3-4/s
                                           z/bulk_layers-4/geo_opt/Au-S-2.55_dft

 CP2K| version string:                 CP2K version 2022.1 (Development Version)
 CP2K| source code revision number:                                  git:1ef701d
 CP2K| cp2kflags: omp fftw3 libxc parallel mpi3 scalapack xsmm spglib           
 CP2K| is freely available from                            https://www.cp2k.org/
 CP2K| Program compiled at                          Thu 26 Jan 13:39:53 GMT 2023
 CP2K| Program compiled on                                 cn1108.scarf.rl.ac.uk
 CP2K| Program compiled for                                                local
 CP2K| Data directory path    /home/vol07/scarf1157/code/smeagol/cp2k-smeagol/sc
 CP2K| Input file name                                             2_dft_wfn.inp

 GLOBAL| Force Environment number                                              1
 GLOBAL| Basis set file name                                        BASIS_MOLOPT
 GLOBAL| Potential file name                                      GTH_POTENTIALS
 GLOBAL| MM Potential file name                                     MM_POTENTIAL
 GLOBAL| Coordinate file name                                             em.xyz
 GLOBAL| Method name                                                        CP2K
 GLOBAL| Project name                                                    dft_wfn
 GLOBAL| Run type                                                        GEO_OPT
 GLOBAL| FFT library                                                       FFTW3
 GLOBAL| Diagonalization library                                       ScaLAPACK
 GLOBAL| Orthonormality check for eigenvectors                          DISABLED
 GLOBAL| Matrix multiplication library                                 ScaLAPACK
 GLOBAL| All-to-all communication in single precision                          F
 GLOBAL| FFTs using library dependent lengths                                  T
 GLOBAL| Grid backend                                                       AUTO
 GLOBAL| Global print level                                               MEDIUM
 GLOBAL| MPI I/O enabled                                                       T
 GLOBAL| Total number of message passing processes                           240
 GLOBAL| Number of threads for this process                                    1
 GLOBAL| This output is from process                                           0
 GLOBAL| Stack size for threads created by OpenMP (OMP_STACKSIZE)        default
 GLOBAL| CPU model name                         AMD EPYC 7502P 32-Core Processor
 GLOBAL| CPUID                                                              1002

 MEMORY| system memory details [Kb]
 MEMORY|                        rank 0           min           max       average
 MEMORY| MemTotal            263896984     263896980     263896984     263896983
 MEMORY| MemFree             131151176      52337532     245414824     140141342
 MEMORY| Buffers                  2488           204          2624          1971
 MEMORY| Cached              113372248       7493092     195652632     108066016
 MEMORY| Slab                  1536352        740240       1780960       1320024
 MEMORY| SReclaimable           915972        305200       1205188        795811
 MEMORY| MemLikelyFree       245441884     245441884     253625900     249005141


 *** Fundamental physical constants (SI units) ***

 *** Literature: B. J. Mohr and B. N. Taylor,
 ***             CODATA recommended values of the fundamental physical
 ***             constants: 2006, Web Version 5.1
 ***             http://physics.nist.gov/constants

 Speed of light in vacuum [m/s]                             2.99792458000000E+08
 Magnetic constant or permeability of vacuum [N/A**2]       1.25663706143592E-06
 Electric constant or permittivity of vacuum [F/m]          8.85418781762039E-12
 Planck constant (h) [J*s]                                  6.62606896000000E-34
 Planck constant (h-bar) [J*s]                              1.05457162825177E-34
 Elementary charge [C]                                      1.60217648700000E-19
 Electron mass [kg]                                         9.10938215000000E-31
 Electron g factor [ ]                                     -2.00231930436220E+00
 Proton mass [kg]                                           1.67262163700000E-27
 Fine-structure constant                                    7.29735253760000E-03
 Rydberg constant [1/m]                                     1.09737315685270E+07
 Avogadro constant [1/mol]                                  6.02214179000000E+23
 Boltzmann constant [J/K]                                   1.38065040000000E-23
 Atomic mass unit [kg]                                      1.66053878200000E-27
 Bohr radius [m]                                            5.29177208590000E-11

 *** Conversion factors ***

 [u] -> [a.u.]                                              1.82288848426455E+03
 [Angstrom] -> [Bohr] = [a.u.]                              1.88972613288564E+00
 [a.u.] = [Bohr] -> [Angstrom]                              5.29177208590000E-01
 [a.u.] -> [s]                                              2.41888432650478E-17
 [a.u.] -> [fs]                                             2.41888432650478E-02
 [a.u.] -> [J]                                              4.35974393937059E-18
 [a.u.] -> [N]                                              8.23872205491840E-08
 [a.u.] -> [K]                                              3.15774647902944E+05
 [a.u.] -> [kJ/mol]                                         2.62549961709828E+03
 [a.u.] -> [kcal/mol]                                       6.27509468713739E+02
 [a.u.] -> [Pa]                                             2.94210107994716E+13
 [a.u.] -> [bar]                                            2.94210107994716E+08
 [a.u.] -> [atm]                                            2.90362800883016E+08
 [a.u.] -> [eV]                                             2.72113838565563E+01
 [a.u.] -> [Hz]                                             6.57968392072181E+15
 [a.u.] -> [1/cm] (wave numbers)                            2.19474631370540E+05
 [a.u./Bohr**2] -> [1/cm]                                   5.14048714338585E+03
 

 CELL_TOP| Volume [angstrom^3]:                                      2351.017128
 CELL_TOP| Vector a [angstrom     8.292     0.000     0.000   |a| =     8.292000
 CELL_TOP| Vector b [angstrom     0.000     8.292     0.000   |b| =     8.292000
 CELL_TOP| Vector c [angstrom     0.000     0.000    34.193   |c| =    34.193000
 CELL_TOP| Angle (b,c), alpha [degree]:                                90.000000
 CELL_TOP| Angle (a,c), beta  [degree]:                                90.000000
 CELL_TOP| Angle (a,b), gamma [degree]:                                90.000000
 CELL_TOP| Numerically orthorhombic:                                         YES
 CELL_TOP| Periodicity                                                       XYZ

 GENERATE|  Preliminary Number of Bonds generated:                             0
 GENERATE|  Achieved consistency in connectivity generation.

 CELL| Volume [angstrom^3]:                                          2351.017128
 CELL| Vector a [angstrom]:       8.292     0.000     0.000   |a| =     8.292000
 CELL| Vector b [angstrom]:       0.000     8.292     0.000   |b| =     8.292000
 CELL| Vector c [angstrom]:       0.000     0.000    34.193   |c| =    34.193000
 CELL| Angle (b,c), alpha [degree]:                                    90.000000
 CELL| Angle (a,c), beta  [degree]:                                    90.000000
 CELL| Angle (a,b), gamma [degree]:                                    90.000000
 CELL| Numerically orthorhombic:                                             YES
 CELL| Periodicity                                                           XYZ

 CELL_REF| Volume [angstrom^3]:                                      2351.017128
 CELL_REF| Vector a [angstrom     8.292     0.000     0.000   |a| =     8.292000
 CELL_REF| Vector b [angstrom     0.000     8.292     0.000   |b| =     8.292000
 CELL_REF| Vector c [angstrom     0.000     0.000    34.193   |c| =    34.193000
 CELL_REF| Angle (b,c), alpha [degree]:                                90.000000
 CELL_REF| Angle (a,c), beta  [degree]:                                90.000000
 CELL_REF| Angle (a,b), gamma [degree]:                                90.000000
 CELL_REF| Numerically orthorhombic:                                         YES
 CELL_REF| Periodicity                                                       XYZ

 *******************************************************************************
                                    Kpoints
 *******************************************************************************
 BRILLOUIN| K-point scheme                                        Monkhorst-Pack
 BRILLOUIN| K-Point grid                                             2    2    1
 BRILLOUIN| Accuracy in Symmetry determination                      0.100000E-07
 BRILLOUIN| K-Point point group symmetrization                               OFF
 BRILLOUIN| Wavefunction type                                            COMPLEX
 BRILLOUIN| Use full k-point grid     
 BRILLOUIN| List of Kpoints [2 Pi/Bohr]                                        4
 BRILLOUIN| Number           Weight            X              Y              Z
 BRILLOUIN|     1           0.25000       -0.25000       -0.25000        0.00000
 BRILLOUIN|     2           0.25000       -0.25000        0.25000        0.00000
 BRILLOUIN|     3           0.25000        0.25000       -0.25000        0.00000
 BRILLOUIN|     4           0.25000        0.25000        0.25000        0.00000
 *******************************************************************************

 *******************************************************************************
 *******************************************************************************
 **                                                                           **
 **     #####                         ##              ##                      **
 **    ##   ##            ##          ##              ##                      **
 **   ##     ##                       ##            ######                    **
 **   ##     ##  ##   ##  ##   #####  ##  ##   ####   ##    #####    #####    **
 **   ##     ##  ##   ##  ##  ##      ## ##   ##      ##   ##   ##  ##   ##   **
 **   ##  ## ##  ##   ##  ##  ##      ####     ###    ##   ######   ######    **
 **    ##  ###   ##   ##  ##  ##      ## ##      ##   ##   ##       ##        **
 **     #######   #####   ##   #####  ##  ##  ####    ##    #####   ##        **
 **           ##                                                    ##        **
 **                                                                           **
 **                                                ... make the atoms dance   **
 **                                                                           **
 **            Copyright (C) by CP2K developers group (2000-2022)             **
 **                      J. Chem. Phys. 152, 194103 (2020)                    **
 **                                                                           **
 *******************************************************************************

 DFT| Spin restricted Kohn-Sham (RKS) calculation                            RKS
 DFT| Multiplicity                                                             1
 DFT| Number of spin states                                                    1
 DFT| Charge                                                                   0
 DFT| Self-interaction correction (SIC)                                       NO
 DFT| Cutoffs: density                                              1.000000E-10
 DFT|          gradient                                             1.000000E-10
 DFT|          tau                                                  1.000000E-10
 DFT|          cutoff_smoothing_range                               0.000000E+00
 DFT| XC density smoothing                                                  NONE
 DFT| XC derivatives                                                          PW

 FUNCTIONAL| PADE:
 FUNCTIONAL| S. Goedecker, M. Teter and J. Hutter, Phys. Rev. B 54, 1703 (1996) 


 QS| Method:                                                                 GPW
 QS| Density plane wave grid type                        NON-SPHERICAL FULLSPACE
 QS| Number of grid levels:                                                    4
 QS| Density cutoff [a.u.]:                                                200.0
 QS| Multi grid cutoff [a.u.]: 1) grid level                               200.0
 QS|                           2) grid level                                66.7
 QS|                           3) grid level                                22.2
 QS|                           4) grid level                                 7.4
 QS| Grid level progression factor:                                          3.0
 QS| Relative density cutoff [a.u.]:                                        20.0
 QS| Interaction thresholds: eps_pgf_orb:                                1.0E-05
 QS|                         eps_filter_matrix:                          0.0E+00
 QS|                         eps_core_charge:                            1.0E-12
 QS|                         eps_rho_gspace:                             1.0E-10
 QS|                         eps_rho_rspace:                             1.0E-10
 QS|                         eps_gvg_rspace:                             1.0E-05
 QS|                         eps_ppl:                                    1.0E-02
 QS|                         eps_ppnl:                                   1.0E-07


 ATOMIC KIND INFORMATION

  1. Atomic kind: Au                                    Number of atoms:     104

     Orbital Basis Set                                         SZV-MOLOPT-SR-GTH

       Number of orbital shell sets:                                           1
       Number of orbital shells:                                               3
       Number of primitive Cartesian functions:                                5
       Number of Cartesian basis functions:                                   10
       Number of spherical basis functions:                                    9
       Norm type:                                                              2

       Normalised Cartesian orbitals:

                        Set   Shell   Orbital            Exponent    Coefficient

                          1       1    2s                2.950008       0.074626
                                                         1.563057      -0.007898
                                                         0.666664      -0.297688
                                                         0.251083       0.136809
                                                         0.081714       0.088198

                          1       2    3px               2.950008       0.148824
                                                         1.563057       0.025430
                                                         0.666664      -0.123003
                                                         0.251083       0.033648
                                                         0.081714       0.059008
                          1       2    3py               2.950008       0.148824
                                                         1.563057       0.025430
                                                         0.666664      -0.123003
                                                         0.251083       0.033648
                                                         0.081714       0.059008
                          1       2    3pz               2.950008       0.148824
                                                         1.563057       0.025430
                                                         0.666664      -0.123003
                                                         0.251083       0.033648
                                                         0.081714       0.059008

                          1       3    4dx2              2.950008      -0.139595
                                                         1.563057       1.319655
                                                         0.666664       0.377081
                                                         0.251083       0.046872
                                                         0.081714       0.001393
                          1       3    4dxy              2.950008      -0.241786
                                                         1.563057       2.285709
                                                         0.666664       0.653124
                                                         0.251083       0.081185
                                                         0.081714       0.002412
                          1       3    4dxz              2.950008      -0.241786
                                                         1.563057       2.285709
                                                         0.666664       0.653124
                                                         0.251083       0.081185
                                                         0.081714       0.002412
                          1       3    4dy2              2.950008      -0.139595
                                                         1.563057       1.319655
                                                         0.666664       0.377081
                                                         0.251083       0.046872
                                                         0.081714       0.001393
                          1       3    4dyz              2.950008      -0.241786
                                                         1.563057       2.285709
                                                         0.666664       0.653124
                                                         0.251083       0.081185
                                                         0.081714       0.002412
                          1       3    4dz2              2.950008      -0.139595
                                                         1.563057       1.319655
                                                         0.666664       0.377081
                                                         0.251083       0.046872
                                                         0.081714       0.001393

       Atomic covalent radius [Angstrom]:                                  1.340

       Atomic van der Waals radius [Angstrom]:                             1.660

     GTH Potential information for                                  GTH-PADE-q11

       Description:                       Goedecker-Teter-Hutter pseudopotential
                                           Goedecker et al., PRB 54, 1703 (1996)
                                          Hartwigsen et al., PRB 58, 3641 (1998)
                                                      Krack, TCA 114, 145 (2005)

       Gaussian exponent of the core charge distribution:               1.436369
       Electronic configuration (s p d ...):                           1   0  10

       Parameters of the local part of the GTH pseudopotential:

                          rloc        C1          C2          C3          C4
                        0.590000   11.604428

       Parameters of the non-local part of the GTH pseudopotential:

                   l      r(l)      h(i,j,l)

                   0    0.521180    2.538614   -1.046137
                                   -1.046137    2.701113
                   1    0.630613    0.394853   -0.869592
                                   -0.869592    2.057831
                   2    0.440706   -4.719070    0.727771
                                    0.727771   -1.650429

  2. Atomic kind: S                                     Number of atoms:       2

     Orbital Basis Set                                         SZV-MOLOPT-SR-GTH

       Number of orbital shell sets:                                           1
       Number of orbital shells:                                               2
       Number of primitive Cartesian functions:                                4
       Number of Cartesian basis functions:                                    4
       Number of spherical basis functions:                                    4
       Norm type:                                                              2

       Normalised Cartesian orbitals:

                        Set   Shell   Orbital            Exponent    Coefficient

                          1       1    2s                2.215855       0.308496
                                                         1.131471       0.138505
                                                         0.410168      -0.373736
                                                         0.140587      -0.040370

                          1       2    3px               2.215855       0.420434
                                                         1.131471      -0.319283
                                                         0.410168      -0.335323
                                                         0.140587      -0.030976
                          1       2    3py               2.215855       0.420434
                                                         1.131471      -0.319283
                                                         0.410168      -0.335323
                                                         0.140587      -0.030976
                          1       2    3pz               2.215855       0.420434
                                                         1.131471      -0.319283
                                                         0.410168      -0.335323
                                                         0.140587      -0.030976

       Atomic covalent radius [Angstrom]:                                  1.020

       Atomic van der Waals radius [Angstrom]:                             1.800

     GTH Potential information for                                   GTH-PADE-q6

       Description:                       Goedecker-Teter-Hutter pseudopotential
                                           Goedecker et al., PRB 54, 1703 (1996)
                                          Hartwigsen et al., PRB 58, 3641 (1998)
                                                      Krack, TCA 114, 145 (2005)

       Gaussian exponent of the core charge distribution:               2.834467
       Electronic configuration (s p d ...):                               2   4

       Parameters of the local part of the GTH pseudopotential:

                          rloc        C1          C2          C3          C4
                        0.420000   -6.554492

       Parameters of the non-local part of the GTH pseudopotential:

                   l      r(l)      h(i,j,l)

                   0    0.361757    7.905303   -1.731881
                                   -1.731881    4.471698
                   1    0.405285    3.866579

  3. Atomic kind: C                                     Number of atoms:       6

     Orbital Basis Set                                         SZV-MOLOPT-SR-GTH

       Number of orbital shell sets:                                           1
       Number of orbital shells:                                               2
       Number of primitive Cartesian functions:                                5
       Number of Cartesian basis functions:                                    4
       Number of spherical basis functions:                                    4
       Norm type:                                                              2

       Normalised Cartesian orbitals:

                        Set   Shell   Orbital            Exponent    Coefficient

                          1       1    2s                5.605331       0.322515
                                                         2.113016       0.213043
                                                         0.769911      -0.209686
                                                         0.348157      -0.219794
                                                         0.128212      -0.022789

                          1       2    3px               5.605331      -0.703879
                                                         2.113016      -0.642521
                                                         0.769911      -0.374851
                                                         0.348157      -0.139743
                                                         0.128212      -0.027849
                          1       2    3py               5.605331      -0.703879
                                                         2.113016      -0.642521
                                                         0.769911      -0.374851
                                                         0.348157      -0.139743
                                                         0.128212      -0.027849
                          1       2    3pz               5.605331      -0.703879
                                                         2.113016      -0.642521
                                                         0.769911      -0.374851
                                                         0.348157      -0.139743
                                                         0.128212      -0.027849

       Atomic covalent radius [Angstrom]:                                  0.770

       Atomic van der Waals radius [Angstrom]:                             1.700

     GTH Potential information for                                   GTH-PADE-q4

       Description:                       Goedecker-Teter-Hutter pseudopotential
                                           Goedecker et al., PRB 54, 1703 (1996)
                                          Hartwigsen et al., PRB 58, 3641 (1998)
                                                      Krack, TCA 114, 145 (2005)

       Gaussian exponent of the core charge distribution:               4.109048
       Electronic configuration (s p d ...):                               2   2

       Parameters of the local part of the GTH pseudopotential:

                          rloc        C1          C2          C3          C4
                        0.348830   -8.513771    1.228432

       Parameters of the non-local part of the GTH pseudopotential:

                   l      r(l)      h(i,j,l)

                   0    0.304553    9.522842
                   1    0.232677

  4. Atomic kind: H                                     Number of atoms:       4

     Orbital Basis Set                                         SZV-MOLOPT-SR-GTH

       Number of orbital shell sets:                                           1
       Number of orbital shells:                                               1
       Number of primitive Cartesian functions:                                5
       Number of Cartesian basis functions:                                    1
       Number of spherical basis functions:                                    1
       Norm type:                                                              2

       Normalised Cartesian orbitals:

                        Set   Shell   Orbital            Exponent    Coefficient

                          1       1    2s               10.068468      -0.133023
                                                         2.680223      -0.177618
                                                         0.791502      -0.258419
                                                         0.239116      -0.107525
                                                         0.082193      -0.014019

       Atomic covalent radius [Angstrom]:                                  0.320

       Atomic van der Waals radius [Angstrom]:                             1.090

     GTH Potential information for                                   GTH-PADE-q1

       Description:                       Goedecker-Teter-Hutter pseudopotential
                                           Goedecker et al., PRB 54, 1703 (1996)
                                          Hartwigsen et al., PRB 58, 3641 (1998)
                                                      Krack, TCA 114, 145 (2005)

       Gaussian exponent of the core charge distribution:              12.500000
       Electronic configuration (s p d ...):                                   1

       Parameters of the local part of the GTH pseudopotential:

                          rloc        C1          C2          C3          C4
                        0.200000   -4.180237    0.725075


 MOLECULE KIND INFORMATION


 All atoms are their own molecule, skipping detailed information


 TOTAL NUMBERS AND MAXIMUM NUMBERS

  Total number of            - Atomic kinds:                                   4
                             - Atoms:                                        116
                             - Shell sets:                                   116
                             - Shells:                                       332
                             - Primitive Cartesian functions:                578
                             - Cartesian basis functions:                   1076
                             - Spherical basis functions:                    972

  Maximum angular momentum of- Orbital basis functions:                        2
                             - Local part of the GTH pseudopotential:          2
                             - Non-local part of the GTH pseudopotential:      4


 MODULE QUICKSTEP: ATOMIC COORDINATES IN ANGSTROM

   Atom Kind Element         X             Y             Z       Z(eff)     Mass
      1    1 Au   79      0.000000      0.000000      0.000000  11.0000 196.9666
      2    1 Au   79      0.000000      4.146000      0.000000  11.0000 196.9666
      3    1 Au   79      2.073000      2.073000      0.000000  11.0000 196.9666
      4    1 Au   79      2.073000      6.219000      0.000000  11.0000 196.9666
      5    1 Au   79      4.146000      0.000000      0.000000  11.0000 196.9666
      6    1 Au   79      4.146000      4.146000      0.000000  11.0000 196.9666
      7    1 Au   79      6.219000      2.073000      0.000000  11.0000 196.9666
      8    1 Au   79      6.219000      6.219000      0.000000  11.0000 196.9666
      9    1 Au   79      0.000000      2.073000      2.073000  11.0000 196.9666
     10    1 Au   79      0.000000      6.219000      2.073000  11.0000 196.9666
     11    1 Au   79      2.073000      0.000000      2.073000  11.0000 196.9666
     12    1 Au   79      2.073000      4.146000      2.073000  11.0000 196.9666
     13    1 Au   79      4.146000      2.073000      2.073000  11.0000 196.9666
     14    1 Au   79      4.146000      6.219000      2.073000  11.0000 196.9666
     15    1 Au   79      6.219000      0.000000      2.073000  11.0000 196.9666
     16    1 Au   79      6.219000      4.146000      2.073000  11.0000 196.9666
     17    1 Au   79      0.000000      0.000000      4.146000  11.0000 196.9666
     18    1 Au   79      0.000000      4.146000      4.146000  11.0000 196.9666
     19    1 Au   79      2.073000      2.073000      4.146000  11.0000 196.9666
     20    1 Au   79      2.073000      6.219000      4.146000  11.0000 196.9666
     21    1 Au   79      4.146000      0.000000      4.146000  11.0000 196.9666
     22    1 Au   79      4.146000      4.146000      4.146000  11.0000 196.9666
     23    1 Au   79      6.219000      2.073000      4.146000  11.0000 196.9666
     24    1 Au   79      6.219000      6.219000      4.146000  11.0000 196.9666
     25    1 Au   79      0.000000      2.073000      6.219000  11.0000 196.9666
     26    1 Au   79      0.000000      6.219000      6.219000  11.0000 196.9666
     27    1 Au   79      2.073000      0.000000      6.219000  11.0000 196.9666
     28    1 Au   79      2.073000      4.146000      6.219000  11.0000 196.9666
     29    1 Au   79      4.146000      2.073000      6.219000  11.0000 196.9666
     30    1 Au   79      4.146000      6.219000      6.219000  11.0000 196.9666
     31    1 Au   79      6.219000      0.000000      6.219000  11.0000 196.9666
     32    1 Au   79      6.219000      4.146000      6.219000  11.0000 196.9666
     33    1 Au   79      0.000000      0.000000      8.292000  11.0000 196.9666
     34    1 Au   79      0.000000      4.146000      8.292000  11.0000 196.9666
     35    1 Au   79      2.073000      2.073000      8.292000  11.0000 196.9666
     36    1 Au   79      2.073000      6.219000      8.292000  11.0000 196.9666
     37    1 Au   79      4.146000      0.000000      8.292000  11.0000 196.9666
     38    1 Au   79      4.146000      4.146000      8.292000  11.0000 196.9666
     39    1 Au   79      6.219000      2.073000      8.292000  11.0000 196.9666
     40    1 Au   79      6.219000      6.219000      8.292000  11.0000 196.9666
     41    1 Au   79      0.000000      2.073000     10.365000  11.0000 196.9666
     42    1 Au   79      0.000000      6.219000     10.365000  11.0000 196.9666
     43    1 Au   79      2.073000      0.000000     10.365000  11.0000 196.9666
     44    1 Au   79      2.073000      4.146000     10.365000  11.0000 196.9666
     45    1 Au   79      4.146000      2.073000     10.365000  11.0000 196.9666
     46    1 Au   79      4.146000      6.219000     10.365000  11.0000 196.9666
     47    1 Au   79      6.219000      0.000000     10.365000  11.0000 196.9666
     48    1 Au   79      6.219000      4.146000     10.365000  11.0000 196.9666
     49    1 Au   79      0.000000      0.000000     12.438000  11.0000 196.9666
     50    1 Au   79      0.000000      4.146000     12.438000  11.0000 196.9666
     51    1 Au   79      2.073000      2.073000     12.438000  11.0000 196.9666
     52    1 Au   79      2.073000      6.219000     12.438000  11.0000 196.9666
     53    1 Au   79      4.146000      0.000000     12.438000  11.0000 196.9666
     54    1 Au   79      4.146000      4.146000     12.438000  11.0000 196.9666
     55    1 Au   79      6.219000      2.073000     12.438000  11.0000 196.9666
     56    1 Au   79      6.219000      6.219000     12.438000  11.0000 196.9666
     57    2 S    16      4.146000      2.073000     13.923000   6.0000  32.0650
     58    3 C     6      4.149000      2.077000     15.684000   4.0000  12.0107
     59    4 H     1      2.047000      2.103000     15.868000   1.0000   1.0079
     60    4 H     1      6.244000      2.103000     15.874000   1.0000   1.0079
     61    3 C     6      2.940000      2.083000     16.385000   4.0000  12.0107
     62    3 C     6      5.348000      2.083000     16.385000   4.0000  12.0107
     63    3 C     6      2.933000      2.061000     17.808000   4.0000  12.0107
     64    3 C     6      5.341000      2.061000     17.808000   4.0000  12.0107
     65    4 H     1      2.037000      2.041000     18.319000   1.0000   1.0079
     66    4 H     1      6.234000      2.041000     18.325000   1.0000   1.0079
     67    3 C     6      4.132000      2.067000     18.508000   4.0000  12.0107
     68    2 S    16      4.146000      2.073000     20.270000   6.0000  32.0650
     69    1 Au   79      0.000000      0.000000     21.755000  11.0000 196.9666
     70    1 Au   79      0.000000      4.146000     21.755000  11.0000 196.9666
     71    1 Au   79      2.073000      2.073000     21.755000  11.0000 196.9666
     72    1 Au   79      2.073000      6.219000     21.755000  11.0000 196.9666
     73    1 Au   79      4.146000      0.000000     21.755000  11.0000 196.9666
     74    1 Au   79      4.146000      4.146000     21.755000  11.0000 196.9666
     75    1 Au   79      6.219000      2.073000     21.755000  11.0000 196.9666
     76    1 Au   79      6.219000      6.219000     21.755000  11.0000 196.9666
     77    1 Au   79      0.000000      2.073000     23.828000  11.0000 196.9666
     78    1 Au   79      0.000000      6.219000     23.828000  11.0000 196.9666
     79    1 Au   79      2.073000      0.000000     23.828000  11.0000 196.9666
     80    1 Au   79      2.073000      4.146000     23.828000  11.0000 196.9666
     81    1 Au   79      4.146000      2.073000     23.828000  11.0000 196.9666
     82    1 Au   79      4.146000      6.219000     23.828000  11.0000 196.9666
     83    1 Au   79      6.219000      0.000000     23.828000  11.0000 196.9666
     84    1 Au   79      6.219000      4.146000     23.828000  11.0000 196.9666
     85    1 Au   79      0.000000      0.000000     25.901000  11.0000 196.9666
     86    1 Au   79      0.000000      4.146000     25.901000  11.0000 196.9666
     87    1 Au   79      2.073000      2.073000     25.901000  11.0000 196.9666
     88    1 Au   79      2.073000      6.219000     25.901000  11.0000 196.9666
     89    1 Au   79      4.146000      0.000000     25.901000  11.0000 196.9666
     90    1 Au   79      4.146000      4.146000     25.901000  11.0000 196.9666
     91    1 Au   79      6.219000      2.073000     25.901000  11.0000 196.9666
     92    1 Au   79      6.219000      6.219000     25.901000  11.0000 196.9666
     93    1 Au   79      0.000000      2.073000     27.974000  11.0000 196.9666
     94    1 Au   79      0.000000      6.219000     27.974000  11.0000 196.9666
     95    1 Au   79      2.073000      0.000000     27.974000  11.0000 196.9666
     96    1 Au   79      2.073000      4.146000     27.974000  11.0000 196.9666
     97    1 Au   79      4.146000      2.073000     27.974000  11.0000 196.9666
     98    1 Au   79      4.146000      6.219000     27.974000  11.0000 196.9666
     99    1 Au   79      6.219000      0.000000     27.974000  11.0000 196.9666
    100    1 Au   79      6.219000      4.146000     27.974000  11.0000 196.9666
    101    1 Au   79      0.000000      0.000000     30.047000  11.0000 196.9666
    102    1 Au   79      0.000000      4.146000     30.047000  11.0000 196.9666
    103    1 Au   79      2.073000      2.073000     30.047000  11.0000 196.9666
    104    1 Au   79      2.073000      6.219000     30.047000  11.0000 196.9666
    105    1 Au   79      4.146000      0.000000     30.047000  11.0000 196.9666
    106    1 Au   79      4.146000      4.146000     30.047000  11.0000 196.9666
    107    1 Au   79      6.219000      2.073000     30.047000  11.0000 196.9666
    108    1 Au   79      6.219000      6.219000     30.047000  11.0000 196.9666
    109    1 Au   79      0.000000      2.073000     32.120000  11.0000 196.9666
    110    1 Au   79      0.000000      6.219000     32.120000  11.0000 196.9666
    111    1 Au   79      2.073000      0.000000     32.120000  11.0000 196.9666
    112    1 Au   79      2.073000      4.146000     32.120000  11.0000 196.9666
    113    1 Au   79      4.146000      2.073000     32.120000  11.0000 196.9666
    114    1 Au   79      4.146000      6.219000     32.120000  11.0000 196.9666
    115    1 Au   79      6.219000      0.000000     32.120000  11.0000 196.9666
    116    1 Au   79      6.219000      4.146000     32.120000  11.0000 196.9666



 SCF PARAMETERS         Density guess:                                    ATOMIC
                        --------------------------------------------------------
                        max_scf:                                             100
                        max_scf_history:                                       0
                        max_diis:                                              4
                        --------------------------------------------------------
                        eps_scf:                                        1.00E-07
                        eps_scf_history:                                0.00E+00
                        eps_diis:                                       1.00E-01
                        eps_eigval:                                     1.00E-05
                        --------------------------------------------------------
                        level_shift [a.u.]:                             0.000000
                        added MOs                                       100    0
                        --------------------------------------------------------
                        Mixing method:                            BROYDEN_MIXING
                                                charge density mixing in g-space
                        --------------------------------------------------------
                        Smear method:                                FERMI_DIRAC
                        Electronic temperature [K]:                        293.0
                        Electronic temperature [a.u.]:                  9.28E-04
                        Accuracy threshold:                             1.00E-10
                        --------------------------------------------------------
                        No outer SCF

 PW_GRID| Information for grid number                                          1
 PW_GRID| Grid distributed over                                   240 processors
 PW_GRID| Real space group dimensions                                    12   20
 PW_GRID| the grid is blocked:                                               YES
 PW_GRID| Cutoff [a.u.]                                                    200.0
 PW_GRID| spherical cutoff:                                                   NO
 PW_GRID|   Bounds   1            -49      49                Points:          99
 PW_GRID|   Bounds   2            -49      49                Points:          99
 PW_GRID|   Bounds   3           -210     209                Points:         420
 PW_GRID| Volume element (a.u.^3)  0.3854E-02     Volume (a.u.^3)     15865.4502
 PW_GRID| Grid span                                                    FULLSPACE
 PW_GRID|   Distribution                         Average         Max         Min
 PW_GRID|   G-Vectors                            17151.8       18711       16632
 PW_GRID|   G-Rays                                 173.2         189         168
 PW_GRID|   Real Space Points                    17151.8       18711       16632

 PW_GRID| Information for grid number                                          2
 PW_GRID| Number of the reference grid                                         1
 PW_GRID| Grid distributed over                                   240 processors
 PW_GRID| Real space group dimensions                                    12   20
 PW_GRID| the grid is blocked:                                                NO
 PW_GRID| Cutoff [a.u.]                                                     66.7
 PW_GRID| spherical cutoff:                                                   NO
 PW_GRID|   Bounds   1            -30      29                Points:          60
 PW_GRID|   Bounds   2            -30      29                Points:          60
 PW_GRID|   Bounds   3           -120     119                Points:         240
 PW_GRID| Volume element (a.u.^3)  0.1836E-01     Volume (a.u.^3)     15865.4502
 PW_GRID| Grid span                                                    FULLSPACE
 PW_GRID|   Distribution                         Average         Max         Min
 PW_GRID|   G-Vectors                             3600.0       11340           0
 PW_GRID|   G-Rays                                  60.0         189           0
 PW_GRID|   Real Space Points                     3600.0        3600        3600

 PW_GRID| Information for grid number                                          3
 PW_GRID| Number of the reference grid                                         1
 PW_GRID| Grid distributed over                                   240 processors
 PW_GRID| Real space group dimensions                                    12   20
 PW_GRID| the grid is blocked:                                                NO
 PW_GRID| Cutoff [a.u.]                                                     22.2
 PW_GRID| spherical cutoff:                                                   NO
 PW_GRID|   Bounds   1            -16      16                Points:          33
 PW_GRID|   Bounds   2            -16      16                Points:          33
 PW_GRID|   Bounds   3            -70      69                Points:         140
 PW_GRID| Volume element (a.u.^3)  0.1041         Volume (a.u.^3)     15865.4502
 PW_GRID| Grid span                                                    FULLSPACE
 PW_GRID|   Distribution                         Average         Max         Min
 PW_GRID|   G-Vectors                              635.2        6237           0
 PW_GRID|   G-Rays                                  19.2         189           0
 PW_GRID|   Real Space Points                      635.2         840         280

 PW_GRID| Information for grid number                                          4
 PW_GRID| Number of the reference grid                                         1
 PW_GRID| Grid distributed over                                   240 processors
 PW_GRID| Real space group dimensions                                    12   20
 PW_GRID| the grid is blocked:                                                NO
 PW_GRID| Cutoff [a.u.]                                                      7.4
 PW_GRID| spherical cutoff:                                                   NO
 PW_GRID|   Bounds   1            -10       9                Points:          20
 PW_GRID|   Bounds   2            -10       9                Points:          20
 PW_GRID|   Bounds   3            -40      39                Points:          80
 PW_GRID| Volume element (a.u.^3)  0.4958         Volume (a.u.^3)     15865.4502
 PW_GRID| Grid span                                                    FULLSPACE
 PW_GRID|   Distribution                         Average         Max         Min
 PW_GRID|   G-Vectors                              133.3        3360           0
 PW_GRID|   G-Rays                                   6.7         168           0
 PW_GRID|   Real Space Points                      133.3         160          80

 POISSON| Solver                                                        PERIODIC
 POISSON| Periodicity                                                        XYZ

 RS_GRID| Information for grid number                                          1
 RS_GRID|   Bounds   1            -49      49                Points:          99
 RS_GRID|   Bounds   2            -49      49                Points:          99
 RS_GRID|   Bounds   3           -210     209                Points:         420
 RS_GRID| Real space distribution over                                  8 groups
 RS_GRID| Real space distribution along direction                              2
 RS_GRID| Border size                                                         29
 RS_GRID| Real space distribution over                                 30 groups
 RS_GRID| Real space distribution along direction                              3
 RS_GRID| Border size                                                         29
 RS_GRID|   Distribution                         Average         Max         Min
 RS_GRID|   Planes                                  70.4          71          70
 RS_GRID|   Distribution                         Average         Max         Min
 RS_GRID|   Planes                                  72.0          72          72

 RS_GRID| Information for grid number                                          2
 RS_GRID|   Bounds   1            -30      29                Points:          60
 RS_GRID|   Bounds   2            -30      29                Points:          60
 RS_GRID|   Bounds   3           -120     119                Points:         240
 RS_GRID| Real space distribution over                                  8 groups
 RS_GRID| Real space distribution along direction                              2
 RS_GRID| Border size                                                         21
 RS_GRID| Real space distribution over                                 30 groups
 RS_GRID| Real space distribution along direction                              3
 RS_GRID| Border size                                                         21
 RS_GRID|   Distribution                         Average         Max         Min
 RS_GRID|   Planes                                  49.5          50          49
 RS_GRID|   Distribution                         Average         Max         Min
 RS_GRID|   Planes                                  50.0          50          50

 RS_GRID| Information for grid number                                          3
 RS_GRID|   Bounds   1            -16      16                Points:          33
 RS_GRID|   Bounds   2            -16      16                Points:          33
 RS_GRID|   Bounds   3            -70      69                Points:         140
 RS_GRID| Real space fully replicated
 RS_GRID| Group size                                                           1

 RS_GRID| Information for grid number                                          4
 RS_GRID|   Bounds   1            -10       9                Points:          20
 RS_GRID|   Bounds   2            -10       9                Points:          20
 RS_GRID|   Bounds   3            -40      39                Points:          80
 RS_GRID| Real space fully replicated
 RS_GRID| Group size                                                           1

 KPOINTS| Number of kpoint groups                                              1
 KPOINTS| Size of each kpoint group                                          240
 KPOINTS| Number of kpoints per group                                          4

 BFGS| Use rational function optimization for step estimation:                NO
 BFGS| Use model Hessian for initial guess:                                  YES
 BFGS| Restart Hessian:                                                       NO
 BFGS| Trust radius:                                                       0.472

 *******************************************************************************
 ***                     STARTING GEOMETRY OPTIMIZATION                      ***
 ***                                   BFGS                                  ***
 *******************************************************************************

 Number of electrons:                                                       1184
 Number of occupied orbitals:                                                592
 Number of molecular orbitals:                                               692

 Number of orbital functions:                                                972
 Number of independent orbital functions:                                    972

 Extrapolation method: initial_guess

 Atomic guess: The first density matrix is obtained in terms of atomic orbitals
               and electronic configurations assigned to each atomic kind

 Guess for atomic kind: Au

 Electronic structure
    Total number of core electrons                                         68.00
    Total number of valence electrons                                      11.00
    Total number of electrons                                              79.00
    Multiplicity                                                   not specified
    S   [  2.00  2.00  2.00  2.00  2.00] 1.00
    P   [  6.00  6.00  6.00  6.00]
    D   [ 10.00 10.00]10.00
    F   [ 14.00]


 *******************************************************************************
                  Iteration          Convergence                     Energy [au]
 *******************************************************************************
                          1         0.00000                     -33.033218197848

 Energy components [Hartree]           Total Energy ::          -33.033218197848
                                        Band Energy ::           -1.147505983145
                                     Kinetic Energy ::           24.744064437587
                                   Potential Energy ::          -57.777282635435
                                      Virial (-V/T) ::            2.334995642336
                                        Core Energy ::          -60.197309615488
                                          XC Energy ::           -5.116883226844
                                     Coulomb Energy ::           32.280974644483
                       Total Pseudopotential Energy ::          -85.042885173964
                       Local Pseudopotential Energy ::          -66.341694915099
                    Nonlocal Pseudopotential Energy ::          -18.701190258865
                                        Confinement ::            1.015111208892

 Orbital energies  State     L     Occupation   Energy[a.u.]          Energy[eV]

                       1     0          1.000      -0.213792           -5.817572

                       1     2         10.000      -0.093371           -2.540765


 Total Electron Density at R=0:                                         0.000035

 Guess for atomic kind: S

 Electronic structure
    Total number of core electrons                                         10.00
    Total number of valence electrons                                       6.00
    Total number of electrons                                              16.00
    Multiplicity                                                   not specified
    S   [  2.00  2.00] 2.00
    P   [  6.00] 4.00


 *******************************************************************************
                  Iteration          Convergence                     Energy [au]
 *******************************************************************************
                          1         0.00000                      -9.853460757856

 Energy components [Hartree]           Total Energy ::           -9.853460757856
                                        Band Energy ::           -2.356337656970
                                     Kinetic Energy ::            4.823553161963
                                   Potential Energy ::          -14.677013919818
                                      Virial (-V/T) ::            3.042780586634
                                        Core Energy ::          -17.027141804256
                                          XC Energy ::           -2.306120006027
                                     Coulomb Energy ::            9.479801052427
                       Total Pseudopotential Energy ::          -21.894561428820
                       Local Pseudopotential Energy ::          -24.454849976053
                    Nonlocal Pseudopotential Energy ::            2.560288547233
                                        Confinement ::            0.438664626013

 Orbital energies  State     L     Occupation   Energy[a.u.]          Energy[eV]

                       1     0          2.000      -0.651558          -17.729806

                       1     1          4.000      -0.263305           -7.164899


 Total Electron Density at R=0:                                         0.002164

 Guess for atomic kind: C

 Electronic structure
    Total number of core electrons                                          2.00
    Total number of valence electrons                                       4.00
    Total number of electrons                                               6.00
    Multiplicity                                                   not specified
    S   [  2.00] 2.00
    P      2.00


 *******************************************************************************
                  Iteration          Convergence                     Energy [au]
 *******************************************************************************
                          1         0.00000                      -5.203769106903

 Energy components [Hartree]           Total Energy ::           -5.203769106903
                                        Band Energy ::           -1.102062531975
                                     Kinetic Energy ::            4.436946353555
                                   Potential Energy ::           -9.640715460459
                                      Virial (-V/T) ::            2.172826690306
                                        Core Energy ::           -8.622900759898
                                          XC Energy ::           -1.549179882233
                                     Coulomb Energy ::            4.968311535227
                       Total Pseudopotential Energy ::          -13.085360153352
                       Local Pseudopotential Energy ::          -13.648615018058
                    Nonlocal Pseudopotential Energy ::            0.563254864706
                                        Confinement ::            0.255130398990

 Orbital energies  State     L     Occupation   Energy[a.u.]          Energy[eV]

                       1     0          2.000      -0.416370          -11.330000

                       1     1          2.000      -0.134661           -3.664323


 Total Electron Density at R=0:                                         0.013874

 Guess for atomic kind: H

 Electronic structure
    Total number of core electrons                                          0.00
    Total number of valence electrons                                       1.00
    Total number of electrons                                               1.00
    Multiplicity                                                   not specified
    S      1.00


 *******************************************************************************
                  Iteration          Convergence                     Energy [au]
 *******************************************************************************
                          1         0.00000                      -0.372474116344

 Energy components [Hartree]           Total Energy ::           -0.372474116344
                                        Band Energy ::           -0.184689713228
                                     Kinetic Energy ::            0.795946116619
                                   Potential Energy ::           -1.168420232963
                                      Virial (-V/T) ::            1.467963984706
                                        Core Energy ::           -0.452545141516
                                          XC Energy ::           -0.314416247311
                                     Coulomb Energy ::            0.394487272483
                       Total Pseudopotential Energy ::           -1.259976600556
                       Local Pseudopotential Energy ::           -1.259976600556
                    Nonlocal Pseudopotential Energy ::            0.000000000000
                                        Confinement ::            0.114853424211

 Orbital energies  State     L     Occupation   Energy[a.u.]          Energy[eV]

                       1     0          1.000      -0.184690           -5.025663


 Total Electron Density at R=0:                                         0.476934
 Re-scaling the density matrix to get the right number of electrons
                  # Electrons              Trace(P)               Scaling factor
                         1184              1184.000                        1.000


 SCF WAVEFUNCTION OPTIMIZATION

  Step     Update method      Time    Convergence         Total energy    Change
  ------------------------------------------------------------------------------
     1 NoMix/Diag. 0.30E+00    1.1     1.34424441     -3518.1782155074 -3.52E+03
     2 Broy./Diag. 0.30E+00    1.3     0.61079416     -3597.8115636611 -7.96E+01
     3 Broy./Diag. 0.30E+00    1.2     0.12385148     -3553.8799460733  4.39E+01
     4 Broy./Diag. 0.30E+00    1.2     0.14903577     -3531.1026900250  2.28E+01
     5 Broy./Diag. 0.30E+00    1.2     0.02766378     -3521.8307704541  9.27E+00
     6 Broy./Diag. 0.30E+00    1.1     0.01567052     -3518.3593259249  3.47E+00
     7 Broy./Diag. 0.30E+00    1.2     0.00339729     -3518.0743671046  2.85E-01
     8 Broy./Diag. 0.30E+00    1.1     0.00322624     -3518.0505793464  2.38E-02
     9 Broy./Diag. 0.30E+00    1.2     0.00272084     -3518.0759322379 -2.54E-02
    10 Broy./Diag. 0.30E+00    1.2     0.00097469     -3518.1012117993 -2.53E-02
    11 Broy./Diag. 0.30E+00    1.1     0.00062522     -3518.0965108582  4.70E-03
    12 Broy./Diag. 0.30E+00    1.2     0.00063461     -3518.0764523838  2.01E-02
    13 Broy./Diag. 0.30E+00    1.2     0.00032053     -3518.0569642785  1.95E-02
    14 Broy./Diag. 0.30E+00    1.1     0.00021076     -3518.0476951419  9.27E-03
    15 Broy./Diag. 0.30E+00    1.2     0.00019574     -3518.0460538409  1.64E-03
    16 Broy./Diag. 0.30E+00    1.2     0.00005844     -3518.0467504394 -6.97E-04
    17 Broy./Diag. 0.30E+00    1.2     0.00003907     -3518.0488857730 -2.14E-03
    18 Broy./Diag. 0.30E+00    1.2     0.00002520     -3518.0501517556 -1.27E-03
    19 Broy./Diag. 0.30E+00    1.2     0.00000809     -3518.0503443728 -1.93E-04
    20 Broy./Diag. 0.30E+00    1.1     0.00000320     -3518.0499331511  4.11E-04
    21 Broy./Diag. 0.30E+00    1.2     0.00000398     -3518.0496422289  2.91E-04
    22 Broy./Diag. 0.30E+00    1.2     0.00000386     -3518.0494818718  1.60E-04
    23 Broy./Diag. 0.30E+00    1.1     0.00000127     -3518.0494035562  7.83E-05
    24 Broy./Diag. 0.30E+00    1.1     0.00000081     -3518.0494441386 -4.06E-05
    25 Broy./Diag. 0.30E+00    1.1     0.00000057     -3518.0494960403 -5.19E-05
    26 Broy./Diag. 0.30E+00    1.0     0.00000012     -3518.0495127344 -1.67E-05
    27 Broy./Diag. 0.30E+00    1.1     0.00000011     -3518.0495044414  8.29E-06
    28 Broy./Diag. 0.30E+00    1.2     0.00000009     -3518.0494987780  5.66E-06

  *** SCF run converged in    28 steps ***


  Electronic density on regular grids:      -1183.9999999817        0.0000000183
  Core density on regular grids:             1183.9999998085       -0.0000001915
  Total charge density on r-space grids:       -0.0000001732
  Total charge density g-space grids:          -0.0000001732

  Overlap energy of the core charge distribution:               0.00001350102976
  Self energy of the core charge distribution:              -6148.38221378166963
  Core Hamiltonian energy:                                   1946.28997365070086
  Hartree energy:                                            1240.26778552248197
  Exchange-correlation energy:                               -556.22088954423714
  Electronic entropic energy:                                  -0.00416812627355
  Fermi energy:                                                 0.25441174334074

  Total energy:                                             -3518.04949877804665

 The electron density is written in cube file format to the file:

 dft_wfn-ELECTRON_DENSITY-1_0.cube

 !-----------------------------------------------------------------------------!
                     Mulliken Population Analysis

 #  Atom  Element  Kind  Atomic population                           Net charge
       1     Au       1         10.998938                              0.001062
       2     Au       1         10.998937                              0.001063
       3     Au       1         11.003974                             -0.003974
       4     Au       1         10.997944                              0.002056
       5     Au       1         11.004544                             -0.004544
       6     Au       1         11.004543                             -0.004543
       7     Au       1         11.003969                             -0.003969
       8     Au       1         10.997934                              0.002066
       9     Au       1         10.996199                              0.003801
      10     Au       1         11.000541                             -0.000541
      11     Au       1         10.998892                              0.001108
      12     Au       1         10.998890                              0.001110
      13     Au       1         11.000350                             -0.000350
      14     Au       1         10.995725                              0.004275
      15     Au       1         10.998886                              0.001114
      16     Au       1         10.998884                              0.001116
      17     Au       1         10.995321                              0.004679
      18     Au       1         10.995321                              0.004679
      19     Au       1         11.000472                             -0.000472
      20     Au       1         10.995264                              0.004736
      21     Au       1         11.000223                             -0.000223
      22     Au       1         11.000217                             -0.000217
      23     Au       1         11.000484                             -0.000484
      24     Au       1         10.995228                              0.004772
      25     Au       1         10.993962                              0.006038
      26     Au       1         11.003824                             -0.003824
      27     Au       1         10.993433                              0.006567
      28     Au       1         10.993472                              0.006528
      29     Au       1         11.001274                             -0.001274
      30     Au       1         10.993638                              0.006362
      31     Au       1         10.993450                              0.006550
      32     Au       1         10.993489                              0.006511
      33     Au       1         10.977800                              0.022200
      34     Au       1         10.977763                              0.022237
      35     Au       1         10.984107                              0.015893
      36     Au       1         10.979093                              0.020907
      37     Au       1         10.982898                              0.017102
      38     Au       1         10.982867                              0.017133
      39     Au       1         10.984109                              0.015891
      40     Au       1         10.979075                              0.020925
      41     Au       1         10.932965                              0.067035
      42     Au       1         10.971211                              0.028789
      43     Au       1         10.947690                              0.052310
      44     Au       1         10.947688                              0.052312
      45     Au       1         10.948816                              0.051184
      46     Au       1         10.937889                              0.062111
      47     Au       1         10.947681                              0.052319
      48     Au       1         10.947678                              0.052322
      49     Au       1         11.095890                             -0.095890
      50     Au       1         11.096304                             -0.096304
      51     Au       1         11.256745                             -0.256745
      52     Au       1         11.092386                             -0.092386
      53     Au       1         11.229000                             -0.229000
      54     Au       1         11.229604                             -0.229604
      55     Au       1         11.256892                             -0.256892
      56     Au       1         11.092380                             -0.092380
      57     S        2          5.304162                              0.695838
      58     C        3          4.081814                             -0.081814
      59     H        4          0.844274                              0.155726
      60     H        4          0.843842                              0.156158
      61     C        3          4.101161                             -0.101161
      62     C        3          4.103321                             -0.103321
      63     C        3          4.103500                             -0.103500
      64     C        3          4.101331                             -0.101331
      65     H        4          0.843648                              0.156352
      66     H        4          0.844362                              0.155638
      67     C        3          4.081471                             -0.081471
      68     S        2          5.304258                              0.695742
      69     Au       1         11.096319                             -0.096319
      70     Au       1         11.095875                             -0.095875
      71     Au       1         11.257038                             -0.257038
      72     Au       1         11.092378                             -0.092378
      73     Au       1         11.229675                             -0.229675
      74     Au       1         11.229037                             -0.229037
      75     Au       1         11.256668                             -0.256668
      76     Au       1         11.092368                             -0.092368
      77     Au       1         10.932970                              0.067030
      78     Au       1         10.971213                              0.028787
      79     Au       1         10.947693                              0.052307
      80     Au       1         10.947698                              0.052302
      81     Au       1         10.948808                              0.051192
      82     Au       1         10.937885                              0.062115
      83     Au       1         10.947660                              0.052340
      84     Au       1         10.947662                              0.052338
      85     Au       1         10.977764                              0.022236
      86     Au       1         10.977801                              0.022199
      87     Au       1         10.984088                              0.015912
      88     Au       1         10.979072                              0.020928
      89     Au       1         10.982867                              0.017133
      90     Au       1         10.982904                              0.017096
      91     Au       1         10.984129                              0.015871
      92     Au       1         10.979097                              0.020903
      93     Au       1         10.993962                              0.006038
      94     Au       1         11.003823                             -0.003823
      95     Au       1         10.993497                              0.006503
      96     Au       1         10.993456                              0.006544
      97     Au       1         11.001272                             -0.001272
      98     Au       1         10.993637                              0.006363
      99     Au       1         10.993462                              0.006538
     100     Au       1         10.993421                              0.006579
     101     Au       1         10.995326                              0.004674
     102     Au       1         10.995319                              0.004681
     103     Au       1         11.000467                             -0.000467
     104     Au       1         10.995259                              0.004741
     105     Au       1         11.000215                             -0.000215
     106     Au       1         11.000227                             -0.000227
     107     Au       1         11.000490                             -0.000490
     108     Au       1         10.995235                              0.004765
     109     Au       1         10.996198                              0.003802
     110     Au       1         11.000540                             -0.000540
     111     Au       1         10.998878                              0.001122
     112     Au       1         10.998881                              0.001119
     113     Au       1         11.000350                             -0.000350
     114     Au       1         10.995725                              0.004275
     115     Au       1         10.998894                              0.001106
     116     Au       1         10.998898                              0.001102
 # Total charge                           1184.000000                 -0.000000

 !-----------------------------------------------------------------------------!

 !-----------------------------------------------------------------------------!
                           Hirshfeld Charges

  #Atom  Element  Kind  Ref Charge     Population                    Net charge
      1       Au     1      11.000         11.000                         0.000
      2       Au     1      11.000         11.000                         0.000
      3       Au     1      11.000         11.004                        -0.004
      4       Au     1      11.000         10.999                         0.001
      5       Au     1      11.000         11.004                        -0.004
      6       Au     1      11.000         11.004                        -0.004
      7       Au     1      11.000         11.004                        -0.004
      8       Au     1      11.000         10.999                         0.001
      9       Au     1      11.000         10.998                         0.002
     10       Au     1      11.000         10.998                         0.002
     11       Au     1      11.000         11.001                        -0.001
     12       Au     1      11.000         11.001                        -0.001
     13       Au     1      11.000         10.999                         0.001
     14       Au     1      11.000         10.997                         0.003
     15       Au     1      11.000         11.001                        -0.001
     16       Au     1      11.000         11.001                        -0.001
     17       Au     1      11.000         10.999                         0.001
     18       Au     1      11.000         10.999                         0.001
     19       Au     1      11.000         10.998                         0.002
     20       Au     1      11.000         10.999                         0.001
     21       Au     1      11.000         10.998                         0.002
     22       Au     1      11.000         10.998                         0.002
     23       Au     1      11.000         10.998                         0.002
     24       Au     1      11.000         10.999                         0.001
     25       Au     1      11.000         10.999                         0.001
     26       Au     1      11.000         11.001                        -0.001
     27       Au     1      11.000         11.003                        -0.003
     28       Au     1      11.000         11.003                        -0.003
     29       Au     1      11.000         11.001                        -0.001
     30       Au     1      11.000         10.999                         0.001
     31       Au     1      11.000         11.003                        -0.003
     32       Au     1      11.000         11.003                        -0.003
     33       Au     1      11.000         10.997                         0.003
     34       Au     1      11.000         10.997                         0.003
     35       Au     1      11.000         11.001                        -0.001
     36       Au     1      11.000         10.997                         0.003
     37       Au     1      11.000         11.001                        -0.001
     38       Au     1      11.000         11.000                        -0.000
     39       Au     1      11.000         11.001                        -0.001
     40       Au     1      11.000         10.997                         0.003
     41       Au     1      11.000         10.980                         0.020
     42       Au     1      11.000         10.989                         0.011
     43       Au     1      11.000         10.992                         0.008
     44       Au     1      11.000         10.992                         0.008
     45       Au     1      11.000         10.997                         0.003
     46       Au     1      11.000         10.980                         0.020
     47       Au     1      11.000         10.992                         0.008
     48       Au     1      11.000         10.992                         0.008
     49       Au     1      11.000         11.045                        -0.045
     50       Au     1      11.000         11.045                        -0.045
     51       Au     1      11.000         10.997                         0.003
     52       Au     1      11.000         11.043                        -0.043
     53       Au     1      11.000         11.001                        -0.001
     54       Au     1      11.000         11.001                        -0.001
     55       Au     1      11.000         10.997                         0.003
     56       Au     1      11.000         11.043                        -0.043
     57       S      2       6.000          5.933                         0.067
     58       C      3       4.000          3.997                         0.003
     59       H      4       1.000          0.956                         0.044
     60       H      4       1.000          0.955                         0.045
     61       C      3       4.000          4.040                        -0.040
     62       C      3       4.000          4.040                        -0.040
[...]
     61       C      3       4.000          4.041                        -0.041
     62       C      3       4.000          4.041                        -0.041
     63       C      3       4.000          4.040                        -0.040
     64       C      3       4.000          4.040                        -0.040
     65       H      4       1.000          0.953                         0.047
     66       H      4       1.000          0.953                         0.047
     67       C      3       4.000          3.996                         0.004
     68       S      2       6.000          5.946                         0.054
     69       Au     1      11.000         11.039                        -0.039
     70       Au     1      11.000         11.039                        -0.039
     71       Au     1      11.000         11.003                        -0.003
     72       Au     1      11.000         11.038                        -0.038
     73       Au     1      11.000         11.006                        -0.006
     74       Au     1      11.000         11.006                        -0.006
     75       Au     1      11.000         11.003                        -0.003
     76       Au     1      11.000         11.035                        -0.035
     77       Au     1      11.000         10.978                         0.022
     78       Au     1      11.000         10.988                         0.012
     79       Au     1      11.000         10.994                         0.006
     80       Au     1      11.000         10.994                         0.006
     81       Au     1      11.000         11.003                        -0.003
     82       Au     1      11.000         10.975                         0.025
     83       Au     1      11.000         10.994                         0.006
     84       Au     1      11.000         10.994                         0.006
     85       Au     1      11.000         10.996                         0.004
     86       Au     1      11.000         10.996                         0.004
     87       Au     1      11.000         10.999                         0.001
     88       Au     1      11.000         10.996                         0.004
     89       Au     1      11.000         10.999                         0.001
     90       Au     1      11.000         10.999                         0.001
     91       Au     1      11.000         10.999                         0.001
     92       Au     1      11.000         10.996                         0.004
     93       Au     1      11.000         11.000                         0.000
     94       Au     1      11.000         11.001                        -0.001
     95       Au     1      11.000         11.003                        -0.003
     96       Au     1      11.000         11.003                        -0.003
     97       Au     1      11.000         11.000                        -0.000
     98       Au     1      11.000         10.999                         0.001
     99       Au     1      11.000         11.003                        -0.003
    100       Au     1      11.000         11.003                        -0.003
    101       Au     1      11.000         10.999                         0.001
    102       Au     1      11.000         10.999                         0.001
    103       Au     1      11.000         10.998                         0.002
    104       Au     1      11.000         10.999                         0.001
    105       Au     1      11.000         10.998                         0.002
    106       Au     1      11.000         10.998                         0.002
    107       Au     1      11.000         10.998                         0.002
    108       Au     1      11.000         10.999                         0.001
    109       Au     1      11.000         10.998                         0.002
    110       Au     1      11.000         10.998                         0.002
    111       Au     1      11.000         11.001                        -0.001
    112       Au     1      11.000         11.001                        -0.001
    113       Au     1      11.000         10.999                         0.001
    114       Au     1      11.000         10.997                         0.003
    115       Au     1      11.000         11.001                        -0.001
    116       Au     1      11.000         11.001                        -0.001

  Total Charge                                                           -0.000
 !-----------------------------------------------------------------------------!

 ENERGY| Total FORCE_EVAL ( QS ) energy [a.u.]:            -3518.093643817185693

 -------------------------------------------------------------------------------
 -                                                                             -
 -                                DBCSR STATISTICS                             -
 -                                                                             -
 -------------------------------------------------------------------------------
 COUNTER                                    TOTAL       BLAS       SMM       ACC
 flops inhomo. stacks                           0       0.0%      0.0%      0.0%
 flops total                         0.000000E+00       0.0%      0.0%      0.0%
 flops max/rank                      0.000000E+00       0.0%      0.0%      0.0%
 matmuls inhomo. stacks                         0       0.0%      0.0%      0.0%
 matmuls total                                  0       0.0%      0.0%      0.0%
 number of processed stacks                     0       0.0%      0.0%      0.0%
 average stack size                                     0.0       0.0       0.0
 marketing flops                     0.000000E+00
 -------------------------------------------------------------------------------
 -                                                                             -
 -                      DBCSR MESSAGE PASSING PERFORMANCE                      -
 -                                                                             -
 -------------------------------------------------------------------------------
 ROUTINE             CALLS      AVE VOLUME [Bytes]
 MP_Bcast                1                     12.
 MP_Allreduce        30225                      8.
 MP_Alltoall        130712                 174389.
 -------------------------------------------------------------------------------

 -------------------------------------------------------------------------------
 -                                                                             -
 -                                DBM STATISTICS                               -
 -                                                                             -
 -------------------------------------------------------------------------------
    M  x    N  x    K                                          COUNT     PERCENT
 -------------------------------------------------------------------------------

 -------------------------------------------------------------------------------
 -                                                                             -
 -                                GRID STATISTICS                              -
 -                                                                             -
 -------------------------------------------------------------------------------
 LP    KERNEL             BACKEND                              COUNT     PERCENT
 4     collocate ortho    REF                               35344399      42.61%
 4     integrate ortho    REF                               34255085      41.30%
 0     collocate general  REF                                3006720       3.62%
 0     integrate general  REF                                2672640       3.22%
 3     collocate ortho    REF                                1621285       1.95%
 3     integrate ortho    REF                                1603062       1.93%
 2     collocate ortho    REF                                1150862       1.39%
 2     integrate ortho    REF                                1122992       1.35%
 5     integrate ortho    REF                                1042406       1.26%
 1     collocate ortho    REF                                 310402       0.37%
 1     integrate general  REF                                 306240       0.37%
 1     integrate ortho    REF                                 303482       0.37%
 0     collocate ortho    REF                                 103934       0.13%
 0     integrate ortho    REF                                 100590       0.12%
 -------------------------------------------------------------------------------

 MEMORY| Estimated peak process memory [MiB]                                2065

 -------------------------------------------------------------------------------
 ----                             MULTIGRID INFO                            ----
 -------------------------------------------------------------------------------
 count for grid        1:         430531          cutoff [a.u.]          200.00
 count for grid        2:         971111          cutoff [a.u.]           66.67
 count for grid        3:         631707          cutoff [a.u.]           22.22
 count for grid        4:         629067          cutoff [a.u.]            7.41
 total gridlevel count  :        2662416

 -------------------------------------------------------------------------------
 -                                                                             -
 -                         MESSAGE PASSING PERFORMANCE                         -
 -                                                                             -
 -------------------------------------------------------------------------------

 ROUTINE             CALLS      AVE VOLUME [Bytes]
 MP_Group                5
 MP_Bcast            53040                  12295.
 MP_Allreduce        20072                    548.
 MP_Sync              4496
 MP_Alltoall          6864
 MP_ISendRecv       356110                   4000.
 MP_Wait            484255
 MP_comm_split          11
 MP_ISend           183275                  25250.
 MP_IRecv           183373                  25237.
 MP_Recv             29410                 247548.
 MP_Write_All           24                  33180.
 -------------------------------------------------------------------------------


 -------------------------------------------------------------------------------
 -                                                                             -
 -                           R E F E R E N C E S                               -
 -                                                                             -
 -------------------------------------------------------------------------------
 
 CP2K version 2022.1 (Development Version), the CP2K developers group (2022).
 CP2K is freely available from https://www.cp2k.org/ .

 Kuehne,Thomas D.; Iannuzzi,Marcella; Del Ben,Mauro;
 Rybkin,Vladimir V.; Seewald,Patrick; Stein,Frederick; Laino,Teodoro;
 Khaliullin,Rustam Z.; Schuett,Ole; Schiffmann,Florian; Golze,Dorothea;
 Wilhelm,Jan; Chulkov,Sergey; Bani-Hashemian,Mohammad Hossein;
 Weber,Valery; Borstnik,Urban; Taillefumier,Mathieu;
 Jakobovits,Alice Shoshana; Lazzaro,Alfio; Pabst,Hans; Mueller,Tiziano;
 Schade,Robert; Guidon,Manuel; Andermatt,Samuel; Holmberg,Nico;
 Schenter,Gregory K.; Hehn,Anna; Bussy,Augustin; Belleflamme,Fabian;
 Tabacchi,Gloria; Gloess,Andreas; Lass,Michael; Bethune,Iain;
 Mundy,Christopher J.; Plessl,Christian; Watkins,Matt;
 VandeVondele,Joost; Krack,Matthias; Hutter,Juerg. 
 The Journal of Chemical Physics, 152 (19), (2020). 
 CP2K: An electronic structure and molecular dynamics software package -
 Quickstep: Efficient and accurate electronic structure calculations.
 https://doi.org/10.1063/5.0007045

 Togo, Atsushi; Tanaka, Isao. arXiv, 1808.01590 (2018). 
 Spglib : a software library for crystal symmetry search.
 https://doi.org/xxx

 Schuett, Ole; Messmer, Peter; Hutter, Juerg; VandeVondele, Joost. 
 Electronic Structure Calculations on Graphics Processing Units, John
 Wiley & Sons, Ltd, 173-190 (2016). 
 GPU-Accelerated Sparse Matrix-Matrix Multiplication for
 Linear Scaling Density Functional Theory.
 https://doi.org/10.1002/9781118670712.ch8

 Heinecke, A; Henry, G; Hutchinson, M; Pabst, H. 
 Proceedings of Intl. Supercomputing Conference, 981-991 (2016). 
 LIBXSMM: Accelerating Small Matrix Multiplications
 by Runtime Code Generation.
 https://doi.org/10.1109/SC.2016.83

 Borstnik, U; VandeVondele, J; Weber, V; Hutter, J. 
 PARALLEL COMPUTING, 40 (5-6), 47-58 (2014). 
 Sparse matrix multiplication: The distributed block-compressed sparse
 row library.
 https://doi.org/10.1016/j.parco.2014.03.012

 Hutter, J; Iannuzzi, M; Schiffmann, F; VandeVondele, J. 
 WIREs Comput Mol Sci., 4 (1), 15-25 (2014). 
 CP2K: atomistic simulations of condensed matter systems.
 https://doi.org/10.1002/wcms.1159

 VandeVondele, J; Hutter, J. 
 JOURNAL OF CHEMICAL PHYSICS, 127 (11), 114105 (2007). 
 Gaussian basis sets for accurate calculations on molecular systems in
 gas and condensed phases.
 https://doi.org/10.1063/1.2770708

 Krack, M. 
 THEORETICAL CHEMISTRY ACCOUNTS, 114 (1-3), 145-152 (2005). 
 Pseudopotentials for H to Kr optimized for gradient-corrected
 exchange-correlation functionals.
 https://doi.org/10.1007/s00214-005-0655-y

 VandeVondele, J; Krack, M; Mohamed, F; Parrinello, M; Chassaing, T;
 Hutter, J. COMPUTER PHYSICS COMMUNICATIONS, 167 (2), 103-128 (2005). 
 QUICKSTEP: Fast and accurate density functional calculations using a
 mixed Gaussian and plane waves approach.
 https://doi.org/10.1016/j.cpc.2004.12.014

 Frigo, M; Johnson, SG. 
 PROCEEDINGS OF THE IEEE, 93 (2), 216-231 (2005). 
 The design and implementation of FFTW3.
 https://doi.org/10.1109/JPROC.2004.840301

 Hartwigsen, C; Goedecker, S; Hutter, J. 
 PHYSICAL REVIEW B, 58 (7), 3641-3662 (1998). 
 Relativistic separable dual-space Gaussian pseudopotentials from H to Rn.
 https://doi.org/10.1103/PhysRevB.58.3641

 Lippert, G; Hutter, J; Parrinello, M. 
 MOLECULAR PHYSICS, 92 (3), 477-487 (1997). 
 A hybrid Gaussian and plane wave density functional scheme.
 https://doi.org/10.1080/002689797170220

 Goedecker, S; Teter, M; Hutter, J. 
 PHYSICAL REVIEW B, 54 (3), 1703-1710 (1996). 
 Separable dual-space Gaussian pseudopotentials.
 https://doi.org/10.1103/PhysRevB.54.1703


 -------------------------------------------------------------------------------
 -                                                                             -
 -                                T I M I N G                                  -
 -                                                                             -
 -------------------------------------------------------------------------------
 SUBROUTINE                       CALLS  ASD         SELF TIME        TOTAL TIME
                                MAXIMUM       AVERAGE  MAXIMUM  AVERAGE  MAXIMUM
 CP2K                                 1  1.0    0.032    0.050  469.345  469.351
 cp_geo_opt                           1  2.0    0.000    0.001  469.106  469.109
 geoopt_bfgs                          1  3.0    0.005    0.044  469.105  469.109
 cp_eval_at                          12  4.0    0.001    0.002  466.508  466.512
 qs_energies                         12  5.9    0.002    0.002  463.205  463.209
 scf_env_do_scf                      12  6.9    0.001    0.005  445.233  446.035
 scf_env_do_scf_inner_loop          361  7.9    0.068   12.351  445.232  446.030
 qs_forces                           11  5.0    0.002    0.002  425.375  425.379
 qs_scf_new_mos_kp                  361  8.9    0.003    0.004  353.584  353.617
 do_general_diag_kp                 361  9.9    0.047    0.056  353.581  353.615
 cp_cfm_geeig                      1444 10.9    0.015    0.020  286.963  287.072
 cp_cfm_heevd                      1444 11.9  250.024  250.657  250.024  250.657
 copy_dbcsr_to_fm                  6750 10.8    0.069    0.091   39.829   40.513
 rs_pw_transfer                    3027 13.3    0.031    0.046   36.231   37.779
 dbcsr_desymmetrize_deep          12526 11.4    0.264    0.326   36.389   37.308
 qs_ks_update_qs_env                361  8.9    0.003    0.003   37.005   37.086
 qs_rho_update_rho_low              373  8.9    0.002    0.002   31.190   31.212
 calculate_rho_elec                 373  9.9    0.029    0.034   31.189   31.210
 mp_waitany                       92256 15.3   23.945   28.512   23.945   28.512
 mp_alltoall_i22                  22252 12.7   23.297   26.157   23.297   26.157
 rebuild_ks_matrix                  372  9.8    0.001    0.002   24.910   24.934
 qs_ks_build_kohn_sham_matrix       372 10.8    0.052    0.060   24.908   24.933
 density_rs2pw                      373 10.9    0.011    0.016   22.952   24.490
 sum_up_and_integrate               372 11.8    0.014    0.022   22.661   22.770
 integrate_v_rspace                 372 12.8    0.009    0.011   22.647   22.761
 write_kpoints_restart              361  8.9    0.034    6.126   21.159   22.566
 mp_alltoall_d11v                 67512 13.3   17.911   20.891   17.911   20.891
 dbcsr_complete_redistribute       9726 12.1    0.509    0.701   18.714   19.095
 cp_cfm_triangular_multiply        4332 11.9   17.294   18.219   17.294   18.219
 potential_pw2rs                    372 13.8    0.010    0.013   17.925   18.037
 mp_sum_d                         33569 12.6   14.398   15.615   14.398   15.615
 cp_fm_start_copy_general          8752 11.2    0.452    0.721   14.936   15.488
 scf_post_calculation_gpw            12  6.9    0.000    0.001   14.988   14.993
 write_available_results             12  7.9    0.000    0.000   14.987   14.992
 write_mo_free_results               12  8.9    7.133    7.152   14.986   14.991
 kpoint_density_matrices            372 10.8    0.092    0.100   14.464   14.633
 cp_gemm                           5963 11.8    0.005    0.006   14.370   14.545
 cp_gemm_fm_gemm                   5963 12.8    0.005    0.006   14.365   14.540
 cp_fm_gemm                        5963 13.8   14.360   14.535   14.360   14.535
 mp_allgather_i                   17504 12.2   13.726   14.316   13.726   14.316
 mp_alltoall_i11v                 41704 12.9   13.099   14.256   13.099   14.256
 cp_fm_write_unformatted            984  9.9    0.989   12.329    1.145   13.422
 dbcsr_dot_sd                     30206 11.8    0.200    0.309   13.191   13.259
 evaluate_core_matrix_traces        372  9.8    0.001    0.001   13.067   13.129
 calculate_ptrace_kp                744 10.8    0.013    0.016   13.066   13.128
 cp_cfm_cholesky_decompose         1444 11.9   12.624   13.027   12.624   13.027
 rs_pw_transfer_RS2PW_200           397 12.8    1.249    2.150   10.023   11.654
 hybrid_alltoall_any              12526 12.4    0.053    0.062    8.374    9.981
 rs_pw_transfer_RS2PW_70            373 12.9    0.291    0.432    9.395    9.443
 -------------------------------------------------------------------------------

 The number of warnings for this run is : 0
 
 -------------------------------------------------------------------------------
  **** **** ******  **  PROGRAM ENDED AT                 2023-02-21 21:58:00.772
 ***** ** ***  *** **   PROGRAM RAN ON                     cn1033.scarf.rl.ac.uk
 **    ****   ******    PROGRAM RAN BY                                 scarf1157
 ***** **    ** ** **   PROGRAM PROCESS ID                                 33285
  **** **  *******  **  PROGRAM STOPPED IN /work4/scd/scarf1157/work/testing/cp2
                                           k-smeagol/bdt/cp2k/hollow-site/transp
                                           ort-cp2k/5-4/geometry-ordered/3x3-4/s
                                           z/bulk_layers-4/geo_opt/Au-S-2.55_dft
