       9
 i =        0, time =        0.000, E =      -298.8422831798
 Au         0.0000000000        0.0000000000        0.0000000000
 Au         0.0000000000        0.0000000000        0.0000000000
 Au         0.0000000000        0.0000000000        0.0000000000
 Au         0.0052399284        0.0000000001        0.0054258419
 Au        -0.0136199754        0.0000000001       -0.0000000016
 Au         0.0052399282        0.0000000001       -0.0054258448
 Au         0.0000000000        0.0000000000        0.0000000000
 Au         0.0000000000        0.0000000000        0.0000000000
 Au         0.0000000000        0.0000000000        0.0000000000
