     116
 i =        1, E =     -3518.0803976638
 Au         0.0000000000        0.0000000000        0.0000000000
 Au         0.0000000000        4.1460000000        0.0000000000
 Au         2.0730000000        2.0730000000        0.0000000000
 Au         2.0730000000        6.2190000000        0.0000000000
 Au         4.1460000000        0.0000000000        0.0000000000
 Au         4.1460000000        4.1460000000        0.0000000000
 Au         6.2190000000        2.0730000000        0.0000000000
 Au         6.2190000000        6.2190000000        0.0000000000
 Au         0.0000000000        2.0730000000        2.0730000000
 Au         0.0000000000        6.2190000000        2.0730000000
 Au         2.0730000000        0.0000000000        2.0730000000
 Au         2.0730000000        4.1460000000        2.0730000000
 Au         4.1460000000        2.0730000000        2.0730000000
 Au         4.1460000000        6.2190000000        2.0730000000
 Au         6.2190000000        0.0000000000        2.0730000000
 Au         6.2190000000        4.1460000000        2.0730000000
 Au         0.0000000000        0.0000000000        4.1460000000
 Au         0.0000000000        4.1460000000        4.1460000000
 Au         2.0730000000        2.0730000000        4.1460000000
 Au         2.0730000000        6.2190000000        4.1460000000
 Au         4.1460000000        0.0000000000        4.1460000000
 Au         4.1460000000        4.1460000000        4.1460000000
 Au         6.2190000000        2.0730000000        4.1460000000
 Au         6.2190000000        6.2190000000        4.1460000000
 Au         0.0000000000        2.0730000000        6.2190000000
 Au         0.0000000000        6.2190000000        6.2190000000
 Au         2.0730000000        0.0000000000        6.2190000000
 Au         2.0730000000        4.1460000000        6.2190000000
 Au         4.1460000000        2.0730000000        6.2190000000
 Au         4.1460000000        6.2190000000        6.2190000000
 Au         6.2190000000        0.0000000000        6.2190000000
 Au         6.2190000000        4.1460000000        6.2190000000
 Au         0.0000000000        0.0000000000        8.2920000000
 Au         0.0000000000        4.1460000000        8.2920000000
 Au         2.0730000000        2.0730000000        8.2920000000
 Au         2.0730000000        6.2190000000        8.2920000000
 Au         4.1460000000        0.0000000000        8.2920000000
 Au         4.1460000000        4.1460000000        8.2920000000
 Au         6.2190000000        2.0730000000        8.2920000000
 Au         6.2190000000        6.2190000000        8.2920000000
 Au        -0.0000558558        2.0729918614       10.3785375020
 Au        -0.0000119240        6.2189475839       10.3574215960
 Au         2.0731559570        0.0009428407       10.3567177326
 Au         2.0731484928        4.1451492834       10.3566475744
 Au         4.1459846277        2.0729304372       10.3237573618
 Au         4.1459955236        6.2188522880       10.3777802710
 Au         6.2188609414        0.0009515605       10.3567118071
 Au         6.2188689726        4.1451406751       10.3566404577
 Au         0.0000114370       -0.0049488525       12.4428360741
 Au         0.0000120578        4.1510337695       12.4428989519
 Au         1.9998636654        2.0730690753       12.4611053262
 Au         2.0678211781        6.2189923967       12.4425047295
 Au         4.1459867293       -0.0815014464       12.4466447193
 Au         4.1459879405        4.2268153328       12.4471080196
 Au         6.2920584086        2.0730710021       12.4611884740
 Au         6.2241871061        6.2189930359       12.4425098703
  S         4.1464389929        2.0759645396       14.1452175439
  C         4.1432713555        2.0909508975       15.9356570759
  H         1.9902693979        2.0972930382       16.0982669691
  H         6.2980794804        2.0971383856       16.1083090126
  C         2.9224263931        2.0744021656       16.6370967702
  C         5.3606550211        2.0745668586       16.6386947652
  C         2.9210291614        2.0695884403       18.0441288164
  C         5.3597530885        2.0696735917       18.0452096309
  H         1.9818033764        2.0468962868       18.5747618208
  H         6.2927836891        2.0467141403       18.5850718519
  C         4.1390448675        2.0540551139       18.7461697938
  S         4.1406158054        2.0695379703       20.5372882641
 Au         0.0000193080       -0.0046238702       22.2401514328
 Au         0.0000198245        4.1505468722       22.2402136749
 Au         1.9993630955        2.0729479564       22.2220079030
 Au         2.0681443101        6.2189572592       22.2405423378
 Au         4.1461078543       -0.0816010963       22.2362025584
 Au         4.1461072384        4.2285316685       22.2367935766
 Au         6.2933925006        2.0729484776       22.2225065187
 Au         6.2190000000        6.2190000000       22.2450000000
 Au         0.0000000000        2.0730000000       24.3180000000
 Au         0.0000000000        6.2190000000       24.3180000000
 Au         2.0730000000        0.0000000000       24.3180000000
 Au         2.0730000000        4.1460000000       24.3180000000
 Au         4.1460000000        2.0730000000       24.3180000000
 Au         4.1460000000        6.2190000000       24.3180000000
 Au         6.2190000000        0.0000000000       24.3180000000
 Au         6.2190000000        4.1460000000       24.3180000000
 Au         0.0000000000        0.0000000000       26.3910000000
 Au         0.0000000000        4.1460000000       26.3910000000
 Au         2.0730000000        2.0730000000       26.3910000000
 Au         2.0730000000        6.2190000000       26.3910000000
 Au         4.1460000000        0.0000000000       26.3910000000
 Au         4.1460000000        4.1460000000       26.3910000000
 Au         6.2190000000        2.0730000000       26.3910000000
 Au         6.2190000000        6.2190000000       26.3910000000
 Au         0.0000000000        2.0730000000       28.4640000000
 Au         0.0000000000        6.2190000000       28.4640000000
 Au         2.0730000000        0.0000000000       28.4640000000
 Au         2.0730000000        4.1460000000       28.4640000000
 Au         4.1460000000        2.0730000000       28.4640000000
 Au         4.1460000000        6.2190000000       28.4640000000
 Au         6.2190000000        0.0000000000       28.4640000000
 Au         6.2190000000        4.1460000000       28.4640000000
 Au         0.0000000000        0.0000000000       30.5370000000
 Au         0.0000000000        4.1460000000       30.5370000000
 Au         2.0730000000        2.0730000000       30.5370000000
 Au         2.0730000000        6.2190000000       30.5370000000
 Au         4.1460000000        0.0000000000       30.5370000000
 Au         4.1460000000        4.1460000000       30.5370000000
 Au         6.2190000000        2.0730000000       30.5370000000
 Au         6.2190000000        6.2190000000       30.5370000000
 Au         0.0000000000        2.0730000000       32.6100000000
 Au         0.0000000000        6.2190000000       32.6100000000
 Au         2.0730000000        0.0000000000       32.6100000000
 Au         2.0730000000        4.1460000000       32.6100000000
 Au         4.1460000000        2.0730000000       32.6100000000
 Au         4.1460000000        6.2190000000       32.6100000000
 Au         6.2190000000        0.0000000000       32.6100000000
 Au         6.2190000000        4.1460000000       32.6100000000
     116
 i =        2, E =     -3518.0829387765
 Au         0.0000000000        0.0000000000        0.0000000000
 Au         0.0000000000        4.1460000000        0.0000000000
 Au         2.0730000000        2.0730000000        0.0000000000
 Au         2.0730000000        6.2190000000        0.0000000000
 Au         4.1460000000        0.0000000000        0.0000000000
 Au         4.1460000000        4.1460000000        0.0000000000
 Au         6.2190000000        2.0730000000        0.0000000000
 Au         6.2190000000        6.2190000000        0.0000000000
 Au         0.0000000000        2.0730000000        2.0730000000
 Au         0.0000000000        6.2190000000        2.0730000000
 Au         2.0730000000        0.0000000000        2.0730000000
 Au         2.0730000000        4.1460000000        2.0730000000
 Au         4.1460000000        2.0730000000        2.0730000000
 Au         4.1460000000        6.2190000000        2.0730000000
 Au         6.2190000000        0.0000000000        2.0730000000
 Au         6.2190000000        4.1460000000        2.0730000000
 Au         0.0000000000        0.0000000000        4.1460000000
 Au         0.0000000000        4.1460000000        4.1460000000
 Au         2.0730000000        2.0730000000        4.1460000000
 Au         2.0730000000        6.2190000000        4.1460000000
 Au         4.1460000000        0.0000000000        4.1460000000
 Au         4.1460000000        4.1460000000        4.1460000000
 Au         6.2190000000        2.0730000000        4.1460000000
 Au         6.2190000000        6.2190000000        4.1460000000
 Au         0.0000000000        2.0730000000        6.2190000000
 Au         0.0000000000        6.2190000000        6.2190000000
 Au         2.0730000000        0.0000000000        6.2190000000
 Au         2.0730000000        4.1460000000        6.2190000000
 Au         4.1460000000        2.0730000000        6.2190000000
 Au         4.1460000000        6.2190000000        6.2190000000
 Au         6.2190000000        0.0000000000        6.2190000000
 Au         6.2190000000        4.1460000000        6.2190000000
 Au         0.0000000000        0.0000000000        8.2920000000
 Au         0.0000000000        4.1460000000        8.2920000000
 Au         2.0730000000        2.0730000000        8.2920000000
 Au         2.0730000000        6.2190000000        8.2920000000
 Au         4.1460000000        0.0000000000        8.2920000000
 Au         4.1460000000        4.1460000000        8.2920000000
 Au         6.2190000000        2.0730000000        8.2920000000
 Au         6.2190000000        6.2190000000        8.2920000000
 Au         0.0000342320        2.0730200195       10.3717145314
 Au         0.0000089671        6.2189392453       10.3597091410
 Au         2.0774291420        0.0082119379       10.3606068084
 Au         2.0775013224        4.1379807673       10.3604585423
 Au         4.1460259245        2.0728005751       10.3491505354
 Au         4.1459983919        6.2182456977       10.3621102390
 Au         6.2145356448        0.0082124079       10.3606355052
 Au         6.2144653470        4.1379814011       10.3604845323
 Au         0.0000341703       -0.0297974823       12.4492713641
 Au         0.0000368808        4.1760560118       12.4493906262
 Au         1.9890086604        2.0728108347       12.4883253821
 Au         2.0393600892        6.2190638619       12.4493754481
 Au         4.1459794711       -0.0970129903       12.4625565798
 Au         4.1459803449        4.2420487934       12.4635520027
 Au         6.3030912976        2.0728123941       12.4884325521
 Au         6.2526056497        6.2190661387       12.4493785610
  S         4.1457930077        2.0832178387       14.1105444992
  C         4.1441337376        2.0700857734       15.9209275269
  H         1.9797973311        2.0880190275       16.0993217361
  H         6.3065987149        2.0879700374       16.1066219677
  C         2.9285842688        2.0981308047       16.6379858369
  C         5.3568945168        2.0978792639       16.6438366932
  C         2.9262247170        2.0471011434       18.0379392533
  C         5.3529621540        2.0469857358       18.0435288598
  H         1.9759426575        2.0560509022       18.5753356504
  H         6.3020112966        2.0559258185       18.5826203954
  C         4.1383467413        2.0742540627       18.7620492251
  S         4.1390943457        2.0622330883       20.5725537990
 Au        -0.0003861785       -0.0263774921       22.2322333065
 Au        -0.0003916413        4.1720878977       22.2323442136
 Au         1.9825200088        2.0733010318       22.1911509423
 Au         2.0428991114        6.2188856274       22.2317065894
 Au         4.1457075279       -0.1014036468       22.2155965342
 Au         4.1457108755        4.2483410194       22.2167181116
 Au         6.3089147080        2.0733008492       22.1917229229
 Au         6.2190000000        6.2190000000       22.2450000000
 Au         0.0000000000        2.0730000000       24.3180000000
 Au         0.0000000000        6.2190000000       24.3180000000
 Au         2.0730000000        0.0000000000       24.3180000000
 Au         2.0730000000        4.1460000000       24.3180000000
 Au         4.1460000000        2.0730000000       24.3180000000
 Au         4.1460000000        6.2190000000       24.3180000000
 Au         6.2190000000        0.0000000000       24.3180000000
 Au         6.2190000000        4.1460000000       24.3180000000
 Au         0.0000000000        0.0000000000       26.3910000000
 Au         0.0000000000        4.1460000000       26.3910000000
 Au         2.0730000000        2.0730000000       26.3910000000
 Au         2.0730000000        6.2190000000       26.3910000000
 Au         4.1460000000        0.0000000000       26.3910000000
 Au         4.1460000000        4.1460000000       26.3910000000
 Au         6.2190000000        2.0730000000       26.3910000000
 Au         6.2190000000        6.2190000000       26.3910000000
 Au         0.0000000000        2.0730000000       28.4640000000
 Au         0.0000000000        6.2190000000       28.4640000000
 Au         2.0730000000        0.0000000000       28.4640000000
 Au         2.0730000000        4.1460000000       28.4640000000
 Au         4.1460000000        2.0730000000       28.4640000000
 Au         4.1460000000        6.2190000000       28.4640000000
 Au         6.2190000000        0.0000000000       28.4640000000
 Au         6.2190000000        4.1460000000       28.4640000000
 Au         0.0000000000        0.0000000000       30.5370000000
 Au         0.0000000000        4.1460000000       30.5370000000
 Au         2.0730000000        2.0730000000       30.5370000000
 Au         2.0730000000        6.2190000000       30.5370000000
 Au         4.1460000000        0.0000000000       30.5370000000
 Au         4.1460000000        4.1460000000       30.5370000000
 Au         6.2190000000        2.0730000000       30.5370000000
 Au         6.2190000000        6.2190000000       30.5370000000
 Au         0.0000000000        2.0730000000       32.6100000000
 Au         0.0000000000        6.2190000000       32.6100000000
 Au         2.0730000000        0.0000000000       32.6100000000
 Au         2.0730000000        4.1460000000       32.6100000000
 Au         4.1460000000        2.0730000000       32.6100000000
 Au         4.1460000000        6.2190000000       32.6100000000
 Au         6.2190000000        0.0000000000       32.6100000000
 Au         6.2190000000        4.1460000000       32.6100000000
     116
 i =        3, E =     -3518.0839771147
 Au         0.0000000000        0.0000000000        0.0000000000
 Au         0.0000000000        4.1460000000        0.0000000000
 Au         2.0730000000        2.0730000000        0.0000000000
 Au         2.0730000000        6.2190000000        0.0000000000
 Au         4.1460000000        0.0000000000        0.0000000000
 Au         4.1460000000        4.1460000000        0.0000000000
 Au         6.2190000000        2.0730000000        0.0000000000
 Au         6.2190000000        6.2190000000        0.0000000000
 Au         0.0000000000        2.0730000000        2.0730000000
 Au         0.0000000000        6.2190000000        2.0730000000
 Au         2.0730000000        0.0000000000        2.0730000000
 Au         2.0730000000        4.1460000000        2.0730000000
 Au         4.1460000000        2.0730000000        2.0730000000
 Au         4.1460000000        6.2190000000        2.0730000000
 Au         6.2190000000        0.0000000000        2.0730000000
 Au         6.2190000000        4.1460000000        2.0730000000
 Au         0.0000000000        0.0000000000        4.1460000000
 Au         0.0000000000        4.1460000000        4.1460000000
 Au         2.0730000000        2.0730000000        4.1460000000
 Au         2.0730000000        6.2190000000        4.1460000000
 Au         4.1460000000        0.0000000000        4.1460000000
 Au         4.1460000000        4.1460000000        4.1460000000
 Au         6.2190000000        2.0730000000        4.1460000000
 Au         6.2190000000        6.2190000000        4.1460000000
 Au         0.0000000000        2.0730000000        6.2190000000
 Au         0.0000000000        6.2190000000        6.2190000000
 Au         2.0730000000        0.0000000000        6.2190000000
 Au         2.0730000000        4.1460000000        6.2190000000
 Au         4.1460000000        2.0730000000        6.2190000000
 Au         4.1460000000        6.2190000000        6.2190000000
 Au         6.2190000000        0.0000000000        6.2190000000
 Au         6.2190000000        4.1460000000        6.2190000000
 Au         0.0000000000        0.0000000000        8.2920000000
 Au         0.0000000000        4.1460000000        8.2920000000
 Au         2.0730000000        2.0730000000        8.2920000000
 Au         2.0730000000        6.2190000000        8.2920000000
 Au         4.1460000000        0.0000000000        8.2920000000
 Au         4.1460000000        4.1460000000        8.2920000000
 Au         6.2190000000        2.0730000000        8.2920000000
 Au         6.2190000000        6.2190000000        8.2920000000
 Au         0.0000590401        2.0731921424       10.3750979041
 Au         0.0000134864        6.2189751667       10.3531963339
 Au         2.0827779187        0.0163440895       10.3697494249
 Au         2.0828172698        4.1295608534       10.3696845864
 Au         4.1460343615        2.0728535840       10.3806870370
 Au         4.1459732039        6.2179673027       10.3563217235
 Au         6.2092220731        0.0163614891       10.3698277756
 Au         6.2091850940        4.1295455392       10.3697615137
 Au         0.0000351054       -0.0453791047       12.4556831395
 Au         0.0000372551        4.1916891734       12.4557273740
 Au         1.9784926424        2.0721563449       12.5107771415
 Au         2.0198357584        6.2192321769       12.4551915027
 Au         4.1459907300       -0.1100162527       12.4748359531
 Au         4.1459920792        4.2577485786       12.4755516044
 Au         6.3137604256        2.0721585052       12.5108446310
 Au         6.2720988431        6.2192340895       12.4552097803
  S         4.1457169120        2.0839332779       14.0925431592
  C         4.1440754311        2.0967904764       15.9184877354
  H         1.9767128359        2.0879016257       16.1016631975
  H         6.3092060067        2.0878403167       16.1078104369
  C         2.9290173425        2.0672175072       16.6381208530
  C         5.3573546868        2.0669027936       16.6446299250
  C         2.9252790322        2.0780136915       18.0375077821
  C         5.3535113275        2.0776760541       18.0440442147
  H         1.9740016891        2.0563317391       18.5742418800
  H         6.3055189825        2.0562547899       18.5801128038
  C         4.1384069549        2.0484215825       18.7638697095
  S         4.1383349999        2.0613515928       20.5892498193
 Au        -0.0026452855       -0.0437883341       22.2246256973
 Au        -0.0026688386        4.1893530209       22.2246849202
 Au         1.9703267921        2.0740791947       22.1672838374
 Au         2.0216738417        6.2187763446       22.2221563585
 Au         4.1426600560       -0.1132632002       22.1991833432
 Au         4.1426602479        4.2568728298       22.1997337434
 Au         6.3193704995        2.0740717161       22.1676097312
 Au         6.2190000000        6.2190000000       22.2450000000
 Au         0.0000000000        2.0730000000       24.3180000000
 Au         0.0000000000        6.2190000000       24.3180000000
 Au         2.0730000000        0.0000000000       24.3180000000
 Au         2.0730000000        4.1460000000       24.3180000000
 Au         4.1460000000        2.0730000000       24.3180000000
 Au         4.1460000000        6.2190000000       24.3180000000
 Au         6.2190000000        0.0000000000       24.3180000000
 Au         6.2190000000        4.1460000000       24.3180000000
 Au         0.0000000000        0.0000000000       26.3910000000
 Au         0.0000000000        4.1460000000       26.3910000000
 Au         2.0730000000        2.0730000000       26.3910000000
 Au         2.0730000000        6.2190000000       26.3910000000
 Au         4.1460000000        0.0000000000       26.3910000000
 Au         4.1460000000        4.1460000000       26.3910000000
 Au         6.2190000000        2.0730000000       26.3910000000
 Au         6.2190000000        6.2190000000       26.3910000000
 Au         0.0000000000        2.0730000000       28.4640000000
 Au         0.0000000000        6.2190000000       28.4640000000
 Au         2.0730000000        0.0000000000       28.4640000000
 Au         2.0730000000        4.1460000000       28.4640000000
 Au         4.1460000000        2.0730000000       28.4640000000
 Au         4.1460000000        6.2190000000       28.4640000000
 Au         6.2190000000        0.0000000000       28.4640000000
 Au         6.2190000000        4.1460000000       28.4640000000
 Au         0.0000000000        0.0000000000       30.5370000000
 Au         0.0000000000        4.1460000000       30.5370000000
 Au         2.0730000000        2.0730000000       30.5370000000
 Au         2.0730000000        6.2190000000       30.5370000000
 Au         4.1460000000        0.0000000000       30.5370000000
 Au         4.1460000000        4.1460000000       30.5370000000
 Au         6.2190000000        2.0730000000       30.5370000000
 Au         6.2190000000        6.2190000000       30.5370000000
 Au         0.0000000000        2.0730000000       32.6100000000
 Au         0.0000000000        6.2190000000       32.6100000000
 Au         2.0730000000        0.0000000000       32.6100000000
 Au         2.0730000000        4.1460000000       32.6100000000
 Au         4.1460000000        2.0730000000       32.6100000000
 Au         4.1460000000        6.2190000000       32.6100000000
 Au         6.2190000000        0.0000000000       32.6100000000
 Au         6.2190000000        4.1460000000       32.6100000000
     116
 i =        4, E =     -3518.0854323326
 Au         0.0000000000        0.0000000000        0.0000000000
 Au         0.0000000000        4.1460000000        0.0000000000
 Au         2.0730000000        2.0730000000        0.0000000000
 Au         2.0730000000        6.2190000000        0.0000000000
 Au         4.1460000000        0.0000000000        0.0000000000
 Au         4.1460000000        4.1460000000        0.0000000000
 Au         6.2190000000        2.0730000000        0.0000000000
 Au         6.2190000000        6.2190000000        0.0000000000
 Au         0.0000000000        2.0730000000        2.0730000000
 Au         0.0000000000        6.2190000000        2.0730000000
 Au         2.0730000000        0.0000000000        2.0730000000
 Au         2.0730000000        4.1460000000        2.0730000000
 Au         4.1460000000        2.0730000000        2.0730000000
 Au         4.1460000000        6.2190000000        2.0730000000
 Au         6.2190000000        0.0000000000        2.0730000000
 Au         6.2190000000        4.1460000000        2.0730000000
 Au         0.0000000000        0.0000000000        4.1460000000
 Au         0.0000000000        4.1460000000        4.1460000000
 Au         2.0730000000        2.0730000000        4.1460000000
 Au         2.0730000000        6.2190000000        4.1460000000
 Au         4.1460000000        0.0000000000        4.1460000000
 Au         4.1460000000        4.1460000000        4.1460000000
 Au         6.2190000000        2.0730000000        4.1460000000
 Au         6.2190000000        6.2190000000        4.1460000000
 Au         0.0000000000        2.0730000000        6.2190000000
 Au         0.0000000000        6.2190000000        6.2190000000
 Au         2.0730000000        0.0000000000        6.2190000000
 Au         2.0730000000        4.1460000000        6.2190000000
 Au         4.1460000000        2.0730000000        6.2190000000
 Au         4.1460000000        6.2190000000        6.2190000000
 Au         6.2190000000        0.0000000000        6.2190000000
 Au         6.2190000000        4.1460000000        6.2190000000
 Au         0.0000000000        0.0000000000        8.2920000000
 Au         0.0000000000        4.1460000000        8.2920000000
 Au         2.0730000000        2.0730000000        8.2920000000
 Au         2.0730000000        6.2190000000        8.2920000000
 Au         4.1460000000        0.0000000000        8.2920000000
 Au         4.1460000000        4.1460000000        8.2920000000
 Au         6.2190000000        2.0730000000        8.2920000000
 Au         6.2190000000        6.2190000000        8.2920000000
 Au         0.0000196598        2.0732611857       10.3882355906
 Au         0.0000001213        6.2189605247       10.3410912279
 Au         2.0844246678        0.0184125549       10.3756655808
 Au         2.0843901413        4.1272177626       10.3757690171
 Au         4.1460002017        2.0729344758       10.3858599820
 Au         4.1459549868        6.2181387518       10.3677320739
 Au         6.2076600513        0.0184418063       10.3757579915
 Au         6.2076964933        4.1271908370       10.3758614852
 Au         0.0000217983       -0.0362984037       12.4577418407
 Au         0.0000230055        4.1824314456       12.4576862632
 Au         1.9687595466        2.0716872854       12.5132194601
 Au         2.0278513711        6.2195497612       12.4555812819
 Au         4.1460120384       -0.1197012993       12.4748638170
 Au         4.1460142560        4.2690473150       12.4755696780
 Au         6.3234934809        2.0716913926       12.5132452443
 Au         6.2640840286        6.2195514358       12.4556336047
  S         4.1461379611        2.0849816136       14.1064217810
  C         4.1427270959        2.0853932501       15.9324464053
  H         1.9783725700        2.0860228184       16.1009472824
  H         6.3086422971        2.0858467961       16.1089140506
  C         2.9224447997        2.0764961176       16.6384978716
  C         5.3620056699        2.0765179956       16.6417408061
  C         2.9197665025        2.0683017177       18.0411830024
  C         5.3609310685        2.0682087188       18.0444043736
  H         1.9734953977        2.0584804011       18.5738217318
  H         6.3047559117        2.0583161692       18.5815840960
  C         4.1397895476        2.0601640246       18.7491340122
  S         4.1389017355        2.0602916728       20.5746869489
 Au        -0.0058616985       -0.0389382957       22.2231778705
 Au        -0.0059116915        4.1848096521       22.2231392735
 Au         1.9637566138        2.0745180356       22.1704136564
 Au         2.0258713747        6.2183942458       22.2192282169
 Au         4.1382650878       -0.1144320662       22.2010198858
 Au         4.1383311296        4.2563233142       22.2013929212
 Au         6.3246508748        2.0745040333       22.1703529958
 Au         6.2190000000        6.2190000000       22.2450000000
 Au         0.0000000000        2.0730000000       24.3180000000
 Au         0.0000000000        6.2190000000       24.3180000000
 Au         2.0730000000        0.0000000000       24.3180000000
 Au         2.0730000000        4.1460000000       24.3180000000
 Au         4.1460000000        2.0730000000       24.3180000000
 Au         4.1460000000        6.2190000000       24.3180000000
 Au         6.2190000000        0.0000000000       24.3180000000
 Au         6.2190000000        4.1460000000       24.3180000000
 Au         0.0000000000        0.0000000000       26.3910000000
 Au         0.0000000000        4.1460000000       26.3910000000
 Au         2.0730000000        2.0730000000       26.3910000000
 Au         2.0730000000        6.2190000000       26.3910000000
 Au         4.1460000000        0.0000000000       26.3910000000
 Au         4.1460000000        4.1460000000       26.3910000000
 Au         6.2190000000        2.0730000000       26.3910000000
 Au         6.2190000000        6.2190000000       26.3910000000
 Au         0.0000000000        2.0730000000       28.4640000000
 Au         0.0000000000        6.2190000000       28.4640000000
 Au         2.0730000000        0.0000000000       28.4640000000
 Au         2.0730000000        4.1460000000       28.4640000000
 Au         4.1460000000        2.0730000000       28.4640000000
 Au         4.1460000000        6.2190000000       28.4640000000
 Au         6.2190000000        0.0000000000       28.4640000000
 Au         6.2190000000        4.1460000000       28.4640000000
 Au         0.0000000000        0.0000000000       30.5370000000
 Au         0.0000000000        4.1460000000       30.5370000000
 Au         2.0730000000        2.0730000000       30.5370000000
 Au         2.0730000000        6.2190000000       30.5370000000
 Au         4.1460000000        0.0000000000       30.5370000000
 Au         4.1460000000        4.1460000000       30.5370000000
 Au         6.2190000000        2.0730000000       30.5370000000
 Au         6.2190000000        6.2190000000       30.5370000000
 Au         0.0000000000        2.0730000000       32.6100000000
 Au         0.0000000000        6.2190000000       32.6100000000