# xsf file for siesta output, generated by Python
 ANIMSTEPS    5
 CRYSTAL
 PRIMVEC
       8.86712000       0.00000000       0.00000000
       0.00000000       8.86712000       0.00000000
       0.00000000       0.00000000      38.72000000
 PRIMCOORD    1
  113  1
   79         1.47785317       0.00000000       0.00000000          0.0000166      0.0000350     -0.0000563
   79         0.00000000       1.47785318       2.09000000          0.0000322      0.0000174     -0.0000347
   79         1.47785317       0.00000000       4.18000000          0.0001082      0.0000316      0.0000416
   79         0.00000000       1.47785318       6.27000000         -0.0003524     -0.0003906      0.0009204
   79         4.43355951       0.00000000       0.00000000          0.0000178      0.0000175     -0.0000560
   79         2.95570634       1.47785318       2.09000000         -0.0000276     -0.0000029     -0.0000079
   79         4.43355951       0.00000000       4.18000000         -0.0000660      0.0000444      0.0000449
   79         2.95570634       1.47785318       6.27000000         -0.0000291     -0.0001661     -0.0003783
   79         7.38926586       0.00000000       0.00000000         -0.0000559      0.0000350     -0.0000595
   79         5.91141269       1.47785318       2.09000000         -0.0000069     -0.0000022     -0.0000306
   79         7.38926586       0.00000000       4.18000000         -0.0000299      0.0000316      0.0000060
   79         5.91141269       1.47785318       6.27000000          0.0003802     -0.0003751      0.0009043
   79         1.47785317       2.95570635       0.00000000         -0.0000134     -0.0000285     -0.0000527
   79         0.00000000       4.43355952       2.09000000          0.0000367      0.0000288      0.0000007
   79         1.47785317       2.95570635       4.18000000          0.0001718      0.0001458     -0.0001097
   79         0.00000000       4.43355952       6.27000000         -0.0001309      0.0000345     -0.0003597
   79         4.43355951       2.95570635       0.00000000          0.0000308     -0.0000276     -0.0000526
   79         2.95570634       4.43355952       2.09000000         -0.0000412      0.0000409      0.0000051
   79         4.43355951       2.95570635       4.18000000         -0.0001315      0.0001431     -0.0001233
   79         2.95570634       4.43355952       6.27000000         -0.0000269      0.0000163     -0.0003958
   79         7.38926586       2.95570635       0.00000000         -0.0000109     -0.0000100     -0.0000559
   79         5.91141269       4.43355952       2.09000000          0.0000038      0.0000274     -0.0000073
   79         7.38926586       2.95570635       4.18000000         -0.0000344      0.0000896      0.0000507
   79         5.91141269       4.43355952       6.27000000          0.0001610      0.0000249     -0.0003648
   79         1.47785317       5.91141269       0.00000000          0.0000039     -0.0000183     -0.0000527
   79         0.00000000       7.38926587       2.09000000          0.0000515     -0.0000401     -0.0000359
   79         1.47785317       5.91141269       4.18000000          0.0001622     -0.0001635     -0.0001183
   79         0.00000000       7.38926587       6.27000000         -0.0003440      0.0003580      0.0009031
   79         4.43355951       5.91141269       0.00000000          0.0000327      0.0000091     -0.0000526
   79         2.95570634       7.38926587       2.09000000         -0.0000369     -0.0000301      0.0000055
   79         4.43355951       5.91141269       4.18000000         -0.0001292     -0.0001792     -0.0001082
   79         2.95570634       7.38926587       6.27000000         -0.0000482      0.0001398     -0.0003561
   79         7.38926586       5.91141269       0.00000000         -0.0000423     -0.0000245     -0.0000562
   79         5.91141269       7.38926587       2.09000000         -0.0000219     -0.0000241     -0.0000319
   79         7.38926586       5.91141269       4.18000000         -0.0000336     -0.0001141      0.0000277
   79         5.91141269       7.38926587       6.27000000          0.0003834      0.0003526      0.0009315
   79         1.47785317       0.00000000       8.36000000          0.0035434      0.0000356      0.0041140
   79         1.47785317       2.95570635       8.36000000          0.0029667      0.0029199     -0.0039854
   79         1.47785317       5.91141269       8.36000000          0.0029540     -0.0029565     -0.0039746
   79         4.43355951       0.00000000       8.36000000         -0.0035114      0.0000433      0.0041178
   79         4.43355951       2.95570635       8.36000000         -0.0029316      0.0029388     -0.0039834
   79         4.43355951       5.91141269       8.36000000         -0.0029221     -0.0029782     -0.0039858
   79         7.38926586       0.00000000       8.36000000         -0.0000237     -0.0000095      0.0109139
   79         7.38926586       2.95570635       8.36000000         -0.0000466      0.0035395      0.0041322
   79         7.38926586       5.91141269       8.36000000         -0.0000318     -0.0035316      0.0040952
   79         0.00000000       1.47785318      10.45000000         -0.0060790     -0.0061255      0.0123914
   79         0.00000000       4.43355952      10.45000000         -0.0194767      0.0000206      0.0072235
   79         0.00000000       7.38926587      10.45000000         -0.0060773      0.0061024      0.0123927
   79         2.95570634       1.47785318      10.45000000         -0.0000319     -0.0196094      0.0071203
   79         2.95570634       4.43355952      10.45000000          0.0000363      0.0000227     -0.0115438
   79         2.95570634       7.38926587      10.45000000         -0.0000505      0.0195214      0.0071734
   79         5.91141269       1.47785318      10.45000000          0.0061935     -0.0061888      0.0123173
   79         5.91141269       4.43355952      10.45000000          0.0195948     -0.0000710      0.0071108
   79         5.91141269       7.38926587      10.45000000          0.0062136      0.0061807      0.0123196
   79         1.45718644       2.93389038      12.44622226          0.0002196      0.0002898     -0.0007552
   79         1.45636140       5.93317660      12.44606367          0.0002404     -0.0002543     -0.0007759
   79         4.45582241       2.93243747      12.44623947         -0.0003357      0.0004559     -0.0007351
   79         4.45717970       5.93335547      12.44527002         -0.0003838     -0.0003144     -0.0006547
   79         2.95821414       4.43591884      14.39611266         -0.0000724     -0.0000173     -0.0007788
   79         2.95742874       4.46350691      17.05024600          0.0000164     -0.0000747      0.0000675
    1         2.94417615       4.43942413      18.92650888         -0.0000108      0.0000002      0.0003071
    1         2.95101697       4.44558780      19.79615533         -0.0000152      0.0000136     -0.0004407
   79         2.92412829       4.43117478      21.67153259          0.0000902      0.0000041      0.0001023
   79         2.95458387       4.43358962      24.32585498         -0.0000287     -0.0000142      0.0005203
   79         1.45610288       2.93266215      26.27477034          0.0001118      0.0002152      0.0004790
   79         1.45528748       5.93329483      26.27443287          0.0001968     -0.0001182      0.0005495
   79         4.45565026       2.93291491      26.27428138         -0.0001722      0.0003169      0.0005061
   79         4.45560186       5.93345983      26.27504918         -0.0001861     -0.0002575      0.0004103
   79         0.00000000       1.47785318      28.27000000         -0.0059726     -0.0060156     -0.0155035
   79         0.00000000       4.43355952      28.27000000         -0.0191609      0.0000104     -0.0090640
   79         0.00000000       7.38926587      28.27000000         -0.0059606      0.0059740     -0.0154999
   79         2.95570634       1.47785318      28.27000000         -0.0000040     -0.0192771     -0.0089808
   79         2.95570634       4.43355952      28.27000000         -0.0000409      0.0000058      0.0109595
   79         2.95570634       7.38926587      28.27000000         -0.0000980      0.0191769     -0.0090607
   79         5.91141269       1.47785318      28.27000000          0.0060169     -0.0060254     -0.0154696
   79         5.91141269       4.43355952      28.27000000          0.0192029     -0.0000279     -0.0090570
   79         5.91141269       7.38926587      28.27000000          0.0060495      0.0060121     -0.0154538
   79         1.47785317       0.00000000      30.36000000          0.0042143      0.0000263     -0.0015076
   79         0.00000000       1.47785318      32.45000000          0.0002868      0.0002355      0.0010117
   79         1.47785317       0.00000000      34.54000000         -0.0000025      0.0000307     -0.0001341
   79         0.00000000       1.47785318      36.63000000          0.0000241      0.0000093     -0.0000867
   79         4.43355951       0.00000000      30.36000000         -0.0042022      0.0000448     -0.0015463
   79         2.95570634       1.47785318      32.45000000         -0.0000301      0.0002950     -0.0000489
   79         4.43355951       0.00000000      34.54000000          0.0000452      0.0000431     -0.0001387
   79         2.95570634       1.47785318      36.63000000         -0.0000276     -0.0000107     -0.0000954
   79         7.38926586       0.00000000      30.36000000          0.0000049      0.0000158     -0.0059475
   79         5.91141269       1.47785318      32.45000000         -0.0002578      0.0002489      0.0010397
   79         7.38926586       0.00000000      34.54000000         -0.0000302      0.0000314     -0.0001059
   79         5.91141269       1.47785318      36.63000000          0.0000014     -0.0000103     -0.0000905
   79         1.47785317       2.95570635      30.36000000          0.0031585      0.0031038      0.0052431
   79         0.00000000       4.43355952      32.45000000          0.0003282      0.0000406     -0.0000609
   79         1.47785317       2.95570635      34.54000000          0.0000064     -0.0000191     -0.0001299
   79         0.00000000       4.43355952      36.63000000          0.0000288      0.0000289     -0.0001042
   79         4.43355951       2.95570635      30.36000000         -0.0031029      0.0031130      0.0052430
   79         2.95570634       4.43355952      32.45000000         -0.0000260      0.0000124     -0.0013109
   79         4.43355951       2.95570635      34.54000000          0.0000341     -0.0000214     -0.0001159
   79         2.95570634       4.43355952      36.63000000         -0.0000412      0.0000411     -0.0000914
   79         7.38926586       2.95570635      30.36000000         -0.0000645      0.0042094     -0.0015253
   79         5.91141269       4.43355952      32.45000000         -0.0002991      0.0000289     -0.0000445
   79         7.38926586       2.95570635      34.54000000         -0.0000346     -0.0000212     -0.0001438
   79         5.91141269       4.43355952      36.63000000          0.0000118      0.0000276     -0.0000963
   79         1.47785317       5.91141269      30.36000000          0.0031399     -0.0031322      0.0052348
   79         0.00000000       7.38926587      32.45000000          0.0002738     -0.0002754      0.0010339
   79         1.47785317       5.91141269      34.54000000         -0.0000028      0.0000024     -0.0001273
   79         0.00000000       7.38926587      36.63000000          0.0000435     -0.0000320     -0.0000851
   79         4.43355951       5.91141269      30.36000000         -0.0030838     -0.0031518      0.0052457
   79         2.95570634       7.38926587      32.45000000         -0.0000492     -0.0003178     -0.0000475
   79         4.43355951       5.91141269      34.54000000          0.0000360     -0.0000134     -0.0001376
   79         2.95570634       7.38926587      36.63000000         -0.0000368     -0.0000221     -0.0001087
   79         7.38926586       5.91141269      30.36000000         -0.0000549     -0.0042206     -0.0015233
   79         5.91141269       7.38926587      32.45000000         -0.0002329     -0.0002755      0.0010220
   79         7.38926586       5.91141269      34.54000000         -0.0000338     -0.0000032     -0.0001210
   79         5.91141269       7.38926587      36.63000000         -0.0000137     -0.0000159     -0.0000889
 CRYSTAL
 PRIMCOORD    2
  113  1
   79         1.47785317       0.00000000       0.00000000          0.0000166      0.0000350     -0.0000562
   79         0.00000000       1.47785318       2.09000000          0.0000323      0.0000174     -0.0000348
   79         1.47785317       0.00000000       4.18000000          0.0001069      0.0000321      0.0000282
   79         0.00000000       1.47785318       6.27000000         -0.0003515     -0.0003893      0.0009392
   79         4.43355951       0.00000000       0.00000000          0.0000178      0.0000175     -0.0000559
   79         2.95570634       1.47785318       2.09000000         -0.0000276     -0.0000029     -0.0000081
   79         4.43355951       0.00000000       4.18000000         -0.0000649      0.0000439      0.0000305
   79         2.95570634       1.47785318       6.27000000         -0.0000254     -0.0001983     -0.0003572
   79         7.38926586       0.00000000       0.00000000         -0.0000559      0.0000350     -0.0000594
   79         5.91141269       1.47785318       2.09000000         -0.0000069     -0.0000022     -0.0000308
   79         7.38926586       0.00000000       4.18000000         -0.0000297      0.0000315      0.0000086
   79         5.91141269       1.47785318       6.27000000          0.0003767     -0.0003750      0.0009303
   79         1.47785317       2.95570635       0.00000000         -0.0000134     -0.0000285     -0.0000526
   79         0.00000000       4.43355952       2.09000000          0.0000367      0.0000288      0.0000006
   79         1.47785317       2.95570635       4.18000000          0.0001701      0.0001441     -0.0001176
   79         0.00000000       4.43355952       6.27000000         -0.0001679      0.0000405     -0.0003444
   79         4.43355951       2.95570635       0.00000000          0.0000308     -0.0000276     -0.0000525
   79         2.95570634       4.43355952       2.09000000         -0.0000412      0.0000409      0.0000049
   79         4.43355951       2.95570635       4.18000000         -0.0001303      0.0001419     -0.0001347
   79         2.95570634       4.43355952       6.27000000         -0.0000180      0.0000115     -0.0003079
   79         7.38926586       2.95570635       0.00000000         -0.0000109     -0.0000100     -0.0000558
   79         5.91141269       4.43355952       2.09000000          0.0000038      0.0000274     -0.0000075
   79         7.38926586       2.95570635       4.18000000         -0.0000340      0.0000887      0.0000369
   79         5.91141269       4.43355952       6.27000000          0.0001887      0.0000209     -0.0003420
   79         1.47785317       5.91141269       0.00000000          0.0000039     -0.0000182     -0.0000525
   79         0.00000000       7.38926587       2.09000000          0.0000516     -0.0000401     -0.0000361
   79         1.47785317       5.91141269       4.18000000          0.0001604     -0.0001621     -0.0001249
   79         0.00000000       7.38926587       6.27000000         -0.0003434      0.0003501      0.0009306
   79         4.43355951       5.91141269       0.00000000          0.0000327      0.0000092     -0.0000525
   79         2.95570634       7.38926587       2.09000000         -0.0000369     -0.0000301      0.0000054
   79         4.43355951       5.91141269       4.18000000         -0.0001278     -0.0001774     -0.0001165
   79         2.95570634       7.38926587       6.27000000         -0.0000480      0.0001767     -0.0003372
   79         7.38926586       5.91141269       0.00000000         -0.0000423     -0.0000244     -0.0000560
   79         5.91141269       7.38926587       2.09000000         -0.0000219     -0.0000241     -0.0000322
   79         7.38926586       5.91141269       4.18000000         -0.0000333     -0.0001130      0.0000162
   79         5.91141269       7.38926587       6.27000000          0.0003832      0.0003561      0.0009450
   79         1.47785317       0.00000000       8.36000000          0.0035604      0.0000313      0.0040549
   79         1.47785317       2.95570635       8.36000000          0.0029886      0.0029509     -0.0042569
   79         1.47785317       5.91141269       8.36000000          0.0029891     -0.0029951     -0.0042380
   79         4.43355951       0.00000000       8.36000000         -0.0035465      0.0000396      0.0040939
   79         4.43355951       2.95570635       8.36000000         -0.0029533      0.0029472     -0.0042405
   79         4.43355951       5.91141269       8.36000000         -0.0029390     -0.0029896     -0.0042349
   79         7.38926586       0.00000000       8.36000000          0.0000088     -0.0000103      0.0109157
   79         7.38926586       2.95570635       8.36000000         -0.0000338      0.0035712      0.0040814
   79         7.38926586       5.91141269       8.36000000         -0.0000387     -0.0035752      0.0040702
   79         0.00000000       1.47785318      10.45000000         -0.0068628     -0.0069135      0.0115609
   79         0.00000000       4.43355952      10.45000000         -0.0225396      0.0000305      0.0043463
   79         0.00000000       7.38926587      10.45000000         -0.0069338      0.0069427      0.0115007
   79         2.95570634       1.47785318      10.45000000          0.0001060     -0.0223790      0.0046035
   79         2.95570634       4.43355952      10.45000000         -0.0001514      0.0001437     -0.0201155
   79         2.95570634       7.38926587      10.45000000          0.0001248      0.0224307      0.0044902
   79         5.91141269       1.47785318      10.45000000          0.0066442     -0.0066896      0.0117810
   79         5.91141269       4.43355952      10.45000000          0.0224783      0.0001805      0.0044629
   79         5.91141269       7.38926587      10.45000000          0.0066527      0.0066343      0.0118212
   79         1.46470333       2.94380921      12.42037341         -0.0032275     -0.0032977      0.0041559
   79         1.46458996       5.92447311      12.41950807         -0.0032860      0.0031947      0.0043353
   79         4.44433183       2.94804386      12.42107938          0.0036027     -0.0041975      0.0038035
   79         4.44404332       5.92259500      12.42286270          0.0037626      0.0039736      0.0034250
   79         2.95573485       4.43532666      14.36945492         -0.0003671      0.0000668      0.0110894
   79         2.95799115       4.46094868      17.05255834         -0.0000059     -0.0001346     -0.0085211
    1         2.94380707       4.43943224      18.93701922         -0.0000985     -0.0000824     -0.0093450
    1         2.95049799       4.44605417      19.78107142          0.0000598      0.0000736      0.0106955
   79         2.92721644       4.43131430      21.67503390          0.0001185      0.0000072      0.0039529
   79         2.95360164       4.43310347      24.34366198         -0.0002971      0.0000137     -0.0065201
   79         1.45992813       2.94002816      26.29116615         -0.0018492     -0.0020975     -0.0025625
   79         1.46202355       5.92924852      26.29324016         -0.0020392      0.0018568     -0.0030366
   79         4.44975672       2.94375976      26.29160518          0.0020206     -0.0028275     -0.0025765
   79         4.44923240       5.92464575      26.28909466          0.0022779      0.0027828     -0.0021158
   79         0.00000000       1.47785318      28.27000000         -0.0064458     -0.0065042     -0.0149055
   79         0.00000000       4.43355952      28.27000000         -0.0210941      0.0000433     -0.0071036
   79         0.00000000       7.38926587      28.27000000         -0.0065899      0.0065811     -0.0147680
   79         2.95570634       1.47785318      28.27000000          0.0000349     -0.0209098     -0.0073939
   79         2.95570634       4.43355952      28.27000000         -0.0001804      0.0000154      0.0165385
   79         2.95570634       7.38926587      28.27000000          0.0002657      0.0210303     -0.0072356
   79         5.91141269       1.47785318      28.27000000          0.0063519     -0.0064237     -0.0149857
   79         5.91141269       4.43355952      28.27000000          0.0212160      0.0001661     -0.0070390
   79         5.91141269       7.38926587      28.27000000          0.0062920      0.0062934     -0.0150853
   79         1.47785317       0.00000000      30.36000000          0.0042113      0.0000371     -0.0015095
   79         0.00000000       1.47785318      32.45000000          0.0002877      0.0002355      0.0010040
   79         1.47785317       0.00000000      34.54000000         -0.0000026      0.0000307     -0.0001337
   79         0.00000000       1.47785318      36.63000000          0.0000240      0.0000092     -0.0000864
   79         4.43355951       0.00000000      30.36000000         -0.0042189      0.0000225     -0.0015762
   79         2.95570634       1.47785318      32.45000000         -0.0000316      0.0002951     -0.0000661
   79         4.43355951       0.00000000      34.54000000          0.0000453      0.0000432     -0.0001383
   79         2.95570634       1.47785318      36.63000000         -0.0000276     -0.0000108     -0.0000950
   79         7.38926586       0.00000000      30.36000000          0.0000248      0.0000113     -0.0060005
   79         5.91141269       1.47785318      32.45000000         -0.0002573      0.0002498      0.0010377
   79         7.38926586       0.00000000      34.54000000         -0.0000303      0.0000315     -0.0001057
   79         5.91141269       1.47785318      36.63000000          0.0000015     -0.0000104     -0.0000902
   79         1.47785317       2.95570635      30.36000000          0.0031882      0.0031423      0.0053002
   79         0.00000000       4.43355952      32.45000000          0.0003291      0.0000403     -0.0000854
   79         1.47785317       2.95570635      34.54000000          0.0000061     -0.0000195     -0.0001289
   79         0.00000000       4.43355952      36.63000000          0.0000287      0.0000289     -0.0001037
   79         4.43355951       2.95570635      30.36000000         -0.0031415      0.0031415      0.0052896
   79         2.95570634       4.43355952      32.45000000         -0.0000267      0.0000124     -0.0013748
   79         4.43355951       2.95570635      34.54000000          0.0000344     -0.0000219     -0.0001150
   79         2.95570634       4.43355952      36.63000000         -0.0000412      0.0000411     -0.0000909
   79         7.38926586       2.95570635      30.36000000         -0.0000536      0.0042369     -0.0015371
   79         5.91141269       4.43355952      32.45000000         -0.0002992      0.0000280     -0.0000694
   79         7.38926586       2.95570635      34.54000000         -0.0000347     -0.0000215     -0.0001433
   79         5.91141269       4.43355952      36.63000000          0.0000118      0.0000276     -0.0000959
   79         1.47785317       5.91141269      30.36000000          0.0031746     -0.0031904      0.0052927
   79         0.00000000       7.38926587      32.45000000          0.0002748     -0.0002750      0.0010248
   79         1.47785317       5.91141269      34.54000000         -0.0000031      0.0000028     -0.0001262
   79         0.00000000       7.38926587      36.63000000          0.0000435     -0.0000319     -0.0000848
   79         4.43355951       5.91141269      30.36000000         -0.0031144     -0.0031682      0.0052944
   79         2.95570634       7.38926587      32.45000000         -0.0000498     -0.0003176     -0.0000697
   79         4.43355951       5.91141269      34.54000000          0.0000363     -0.0000130     -0.0001365
   79         2.95570634       7.38926587      36.63000000         -0.0000368     -0.0000220     -0.0001083
   79         7.38926586       5.91141269      30.36000000         -0.0000560     -0.0042547     -0.0015504
   79         5.91141269       7.38926587      32.45000000         -0.0002332     -0.0002754      0.0010231
   79         7.38926586       5.91141269      34.54000000         -0.0000338     -0.0000030     -0.0001204
   79         5.91141269       7.38926587      36.63000000         -0.0000136     -0.0000159     -0.0000886
 CRYSTAL
 PRIMCOORD    3
  113  1
   79         1.47785317       0.00000000       0.00000000          0.0000166      0.0000350     -0.0000562
   79         0.00000000       1.47785318       2.09000000          0.0000322      0.0000174     -0.0000347
   79         1.47785317       0.00000000       4.18000000          0.0001081      0.0000316      0.0000390
   79         0.00000000       1.47785318       6.27000000         -0.0003522     -0.0003904      0.0009173
   79         4.43355951       0.00000000       0.00000000          0.0000178      0.0000175     -0.0000559
   79         2.95570634       1.47785318       2.09000000         -0.0000276     -0.0000029     -0.0000079
   79         4.43355951       0.00000000       4.18000000         -0.0000659      0.0000443      0.0000421
   79         2.95570634       1.47785318       6.27000000         -0.0000287     -0.0001689     -0.0003817
   79         7.38926586       0.00000000       0.00000000         -0.0000559      0.0000350     -0.0000594
   79         5.91141269       1.47785318       2.09000000         -0.0000069     -0.0000022     -0.0000306
   79         7.38926586       0.00000000       4.18000000         -0.0000298      0.0000316      0.0000050
   79         5.91141269       1.47785318       6.27000000          0.0003797     -0.0003750      0.0009019
   79         1.47785317       2.95570635       0.00000000         -0.0000134     -0.0000285     -0.0000526
   79         0.00000000       4.43355952       2.09000000          0.0000367      0.0000288      0.0000007
   79         1.47785317       2.95570635       4.18000000          0.0001716      0.0001456     -0.0001118
   79         0.00000000       4.43355952       6.27000000         -0.0001342      0.0000351     -0.0003636
   79         4.43355951       2.95570635       0.00000000          0.0000308     -0.0000276     -0.0000525
   79         2.95570634       4.43355952       2.09000000         -0.0000412      0.0000409      0.0000051
   79         4.43355951       2.95570635       4.18000000         -0.0001313      0.0001430     -0.0001257
   79         2.95570634       4.43355952       6.27000000         -0.0000260      0.0000159     -0.0003922
   79         7.38926586       2.95570635       0.00000000         -0.0000109     -0.0000100     -0.0000558
   79         5.91141269       4.43355952       2.09000000          0.0000038      0.0000274     -0.0000072
   79         7.38926586       2.95570635       4.18000000         -0.0000343      0.0000896      0.0000480
   79         5.91141269       4.43355952       6.27000000          0.0001634      0.0000245     -0.0003680
   79         1.47785317       5.91141269       0.00000000          0.0000039     -0.0000183     -0.0000526
   79         0.00000000       7.38926587       2.09000000          0.0000516     -0.0000401     -0.0000359
   79         1.47785317       5.91141269       4.18000000          0.0001621     -0.0001633     -0.0001202
   79         0.00000000       7.38926587       6.27000000         -0.0003439      0.0003571      0.0009009
   79         4.43355951       5.91141269       0.00000000          0.0000327      0.0000091     -0.0000526
   79         2.95570634       7.38926587       2.09000000         -0.0000369     -0.0000301      0.0000056
   79         4.43355951       5.91141269       4.18000000         -0.0001290     -0.0001790     -0.0001103
   79         2.95570634       7.38926587       6.27000000         -0.0000481      0.0001430     -0.0003597
   79         7.38926586       5.91141269       0.00000000         -0.0000423     -0.0000245     -0.0000561
   79         5.91141269       7.38926587       2.09000000         -0.0000219     -0.0000241     -0.0000319
   79         7.38926586       5.91141269       4.18000000         -0.0000336     -0.0001140      0.0000252
   79         5.91141269       7.38926587       6.27000000          0.0003833      0.0003528      0.0009280
   79         1.47785317       0.00000000       8.36000000          0.0035453      0.0000352      0.0041152
   79         1.47785317       2.95570635       8.36000000          0.0029691      0.0029232     -0.0040060
   79         1.47785317       5.91141269       8.36000000          0.0029576     -0.0029604     -0.0039946
   79         4.43355951       0.00000000       8.36000000         -0.0035149      0.0000429      0.0041223
   79         4.43355951       2.95570635       8.36000000         -0.0029339      0.0029399     -0.0040030
   79         4.43355951       5.91141269       8.36000000         -0.0029238     -0.0029795     -0.0040047
   79         7.38926586       0.00000000       8.36000000         -0.0000205     -0.0000095      0.0109189
   79         7.38926586       2.95570635       8.36000000         -0.0000453      0.0035427      0.0041342
   79         7.38926586       5.91141269       8.36000000         -0.0000324     -0.0035361      0.0040998
   79         0.00000000       1.47785318      10.45000000         -0.0061555     -0.0062024      0.0123089
   79         0.00000000       4.43355952      10.45000000         -0.0197685      0.0000214      0.0069457
   79         0.00000000       7.38926587      10.45000000         -0.0061607      0.0061844      0.0123043