ATOMS
H             0.00000000      0.00000000     -0.00998254            -0.00164551      0.70710487     -0.00001550
H             0.00000000      0.00000000      0.73998166             0.00164551     -0.70710487      0.00001550
