ATOMS
H             0.00000000      0.00000000     -0.00998254            -0.00000029      0.20467848     -0.67683582
H             0.00000000      0.00000000      0.73998166            -0.00000029      0.20467848     -0.67683582
