ATOMS
H             3.25353201      5.72009504     18.92650888            -0.70657680     -0.02682495      0.00544504
H             3.25943360      5.72541268     19.67644731             0.70657680      0.02682495     -0.00544504
