ATOMS
H             3.25353201      5.72009504     18.92650888            -0.02686135      0.70658074     -0.00470326
H             3.25943360      5.72541268     19.67644731             0.02686135     -0.70658074      0.00470326
