ATOMS
H             3.25353201      5.72009504     18.92650888             0.00006949     -0.57687181     -0.40892409
H             3.25943360      5.72541268     19.67644731             0.00006949     -0.57687181     -0.40892409
