 DBCSR| CPU Multiplication driver                                           XSMM
 DBCSR| Multrec recursion limit                                              512
 DBCSR| Multiplication stack size                                           1000
 DBCSR| Maximum elements for images                                    UNLIMITED
 DBCSR| Multiplicative factor virtual images                                   1
 DBCSR| Use multiplication densification                                       T
 DBCSR| Multiplication size stacks                                             3
 DBCSR| Use memory pool for CPU allocation                                     F
 DBCSR| Number of 3D layers                                               SINGLE
 DBCSR| Use MPI memory allocation                                              F
 DBCSR| Use RMA algorithm                                                      F
 DBCSR| Use Communication thread                                               T
 DBCSR| Communication thread load                                             87
 DBCSR| MPI: My node id                                                        0
 DBCSR| MPI: Number of nodes                                                 512
 DBCSR| OMP: Current number of threads                                         1
 DBCSR| OMP: Max number of threads                                             1
 DBCSR| Split modifier for TAS multiplication algorithm                  1.0E+00


  **** **** ******  **  PROGRAM STARTED AT               2023-04-03 23:13:55.686
 ***** ** ***  *** **   PROGRAM STARTED ON                             nid004858
 **    ****   ******    PROGRAM STARTED BY                                cahart
 ***** **    ** ** **   PROGRAM PROCESS ID                                147932
  **** **  *******  **  PROGRAM STARTED IN /mnt/lustre/a2fs-work2/work/e05/e05/c
                                           ahart/postdoc/transport/AuH2/cp2k-sme
                                           agol/archer_lda/geo_opt/bias/1.7

 CP2K| version string:                 CP2K version 2022.1 (Development Version)
 CP2K| source code revision number:                                  git:17dad85
 CP2K| cp2kflags: omp libint fftw3 libxc elpa parallel mpi3 scalapack xsmm plume
 CP2K|            d2 mkl
 CP2K| is freely available from                            https://www.cp2k.org/
 CP2K| Program compiled at                          Thu 30 Mar 21:01:20 BST 2023
 CP2K| Program compiled on                                                  ln03
 CP2K| Program compiled for                                                local
 CP2K| Data directory path      /work/y07/shared/apps/core/cp2k/cp2k-2022.1/data
 CP2K| Input file name                                                   4_V.inp

 GLOBAL| Force Environment number                                              1
 GLOBAL| Basis set file name                                        BASIS_MOLOPT
 GLOBAL| Potential file name                                      GTH_POTENTIALS
 GLOBAL| MM Potential file name                                     MM_POTENTIAL
 GLOBAL| Coordinate file name                                             em.xyz
 GLOBAL| Method name                                                        CP2K
 GLOBAL| Project name                                                          V
 GLOBAL| Run type                                                        GEO_OPT
 GLOBAL| FFT library                                                       FFTW3
 GLOBAL| Diagonalization library                                            ELPA
 GLOBAL| Minimum number of eigenvectors for ELPA usage                        16
 GLOBAL| Orthonormality check for eigenvectors                          DISABLED
 GLOBAL| Matrix multiplication library                                 ScaLAPACK
 GLOBAL| All-to-all communication in single precision                          F
 GLOBAL| FFTs using library dependent lengths                                  T
 GLOBAL| Grid backend                                                       AUTO
 GLOBAL| Global print level                                               MEDIUM
 GLOBAL| MPI I/O enabled                                                       T
 GLOBAL| Total number of message passing processes                           512
 GLOBAL| Number of threads for this process                                    1
 GLOBAL| This output is from process                                           0
 GLOBAL| Stack size for threads created by OpenMP (OMP_STACKSIZE)        default
 GLOBAL| CPU model name                          AMD EPYC 7742 64-Core Processor
 GLOBAL| CPUID                                                              1002

 MEMORY| system memory details [Kb]
 MEMORY|                        rank 0           min           max       average
 MEMORY| MemTotal            263528088     263528084     263528088     263528087
 MEMORY| MemFree             236674016     236674016     239699024     238886525
 MEMORY| Buffers                 32000         23644         32000         26758
 MEMORY| Cached                3154016        572564       3154016       1241813
 MEMORY| Slab                  1948388       1601576       1948388       1691813
 MEMORY| SReclaimable           123436        105476        123436        111593
 MEMORY| MemLikelyFree       239983468     239983468     240409544     240266689


 *** Fundamental physical constants (SI units) ***

 *** Literature: B. J. Mohr and B. N. Taylor,
 ***             CODATA recommended values of the fundamental physical
 ***             constants: 2006, Web Version 5.1
 ***             http://physics.nist.gov/constants

 Speed of light in vacuum [m/s]                             2.99792458000000E+08
 Magnetic constant or permeability of vacuum [N/A**2]       1.25663706143592E-06
 Electric constant or permittivity of vacuum [F/m]          8.85418781762039E-12
 Planck constant (h) [J*s]                                  6.62606896000000E-34
 Planck constant (h-bar) [J*s]                              1.05457162825177E-34
 Elementary charge [C]                                      1.60217648700000E-19
 Electron mass [kg]                                         9.10938215000000E-31
 Electron g factor [ ]                                     -2.00231930436220E+00
 Proton mass [kg]                                           1.67262163700000E-27
 Fine-structure constant                                    7.29735253760000E-03
 Rydberg constant [1/m]                                     1.09737315685270E+07
 Avogadro constant [1/mol]                                  6.02214179000000E+23
 Boltzmann constant [J/K]                                   1.38065040000000E-23
 Atomic mass unit [kg]                                      1.66053878200000E-27
 Bohr radius [m]                                            5.29177208590000E-11

 *** Conversion factors ***

 [u] -> [a.u.]                                              1.82288848426455E+03
 [Angstrom] -> [Bohr] = [a.u.]                              1.88972613288564E+00
 [a.u.] = [Bohr] -> [Angstrom]                              5.29177208590000E-01
 [a.u.] -> [s]                                              2.41888432650478E-17
 [a.u.] -> [fs]                                             2.41888432650478E-02
 [a.u.] -> [J]                                              4.35974393937059E-18
 [a.u.] -> [N]                                              8.23872205491840E-08
 [a.u.] -> [K]                                              3.15774647902944E+05
 [a.u.] -> [kJ/mol]                                         2.62549961709828E+03
 [a.u.] -> [kcal/mol]                                       6.27509468713739E+02
 [a.u.] -> [Pa]                                             2.94210107994716E+13
 [a.u.] -> [bar]                                            2.94210107994716E+08
 [a.u.] -> [atm]                                            2.90362800883016E+08
 [a.u.] -> [eV]                                             2.72113838565563E+01
 [a.u.] -> [Hz]                                             6.57968392072181E+15
 [a.u.] -> [1/cm] (wave numbers)                            2.19474631370540E+05
 [a.u./Bohr**2] -> [1/cm]                                   5.14048714338585E+03
 

 CELL_TOP| Volume [angstrom^3]:                                      3044.391638
 CELL_TOP| Vector a [angstrom     8.867     0.000     0.000   |a| =     8.867120
 CELL_TOP| Vector b [angstrom     0.000     8.867     0.000   |b| =     8.867120
 CELL_TOP| Vector c [angstrom     0.000     0.000    38.720   |c| =    38.720000
 CELL_TOP| Angle (b,c), alpha [degree]:                                90.000000
 CELL_TOP| Angle (a,c), beta  [degree]:                                90.000000
 CELL_TOP| Angle (a,b), gamma [degree]:                                90.000000
 CELL_TOP| Numerically orthorhombic:                                         YES
 CELL_TOP| Periodicity                                                       XYZ

 GENERATE|  Preliminary Number of Bonds generated:                             0
 GENERATE|  Achieved consistency in connectivity generation.

 CELL| Volume [angstrom^3]:                                          3044.391638
 CELL| Vector a [angstrom]:       8.867     0.000     0.000   |a| =     8.867120
 CELL| Vector b [angstrom]:       0.000     8.867     0.000   |b| =     8.867120
 CELL| Vector c [angstrom]:       0.000     0.000    38.720   |c| =    38.720000
 CELL| Angle (b,c), alpha [degree]:                                    90.000000
 CELL| Angle (a,c), beta  [degree]:                                    90.000000
 CELL| Angle (a,b), gamma [degree]:                                    90.000000
 CELL| Numerically orthorhombic:                                             YES
 CELL| Periodicity                                                           XYZ

 CELL_REF| Volume [angstrom^3]:                                      3044.391638
 CELL_REF| Vector a [angstrom     8.867     0.000     0.000   |a| =     8.867120
 CELL_REF| Vector b [angstrom     0.000     8.867     0.000   |b| =     8.867120
 CELL_REF| Vector c [angstrom     0.000     0.000    38.720   |c| =    38.720000
 CELL_REF| Angle (b,c), alpha [degree]:                                90.000000
 CELL_REF| Angle (a,c), beta  [degree]:                                90.000000
 CELL_REF| Angle (a,b), gamma [degree]:                                90.000000
 CELL_REF| Numerically orthorhombic:                                         YES
 CELL_REF| Periodicity                                                       XYZ

 *** WARNING in cryssym.F:165 :: Symmetry library SPGLIB not available ***


 *******************************************************************************
                                    Kpoints
 *******************************************************************************
 BRILLOUIN| K-point scheme                                        Monkhorst-Pack
 BRILLOUIN| K-Point grid                                             3    3    1
 BRILLOUIN| Accuracy in Symmetry determination                      0.100000E-07
 BRILLOUIN| K-Point point group symmetrization                               OFF
 BRILLOUIN| Wavefunction type                                            COMPLEX
 BRILLOUIN| Use full k-point grid     
 BRILLOUIN| List of Kpoints [2 Pi/Bohr]                                        9
 BRILLOUIN| Number           Weight            X              Y              Z
 BRILLOUIN|     1           0.11111       -0.33333       -0.33333        0.00000
 BRILLOUIN|     2           0.11111       -0.33333        0.00000        0.00000
 BRILLOUIN|     3           0.11111       -0.33333        0.33333        0.00000
 BRILLOUIN|     4           0.11111        0.00000       -0.33333        0.00000
 BRILLOUIN|     5           0.11111        0.00000        0.00000        0.00000
 BRILLOUIN|     6           0.11111        0.00000        0.33333        0.00000
 BRILLOUIN|     7           0.11111        0.33333       -0.33333        0.00000
 BRILLOUIN|     8           0.11111        0.33333        0.00000        0.00000
 BRILLOUIN|     9           0.11111        0.33333        0.33333        0.00000
 *******************************************************************************

 *******************************************************************************
 *******************************************************************************
 **                                                                           **
 **     #####                         ##              ##                      **
 **    ##   ##            ##          ##              ##                      **
 **   ##     ##                       ##            ######                    **
 **   ##     ##  ##   ##  ##   #####  ##  ##   ####   ##    #####    #####    **
 **   ##     ##  ##   ##  ##  ##      ## ##   ##      ##   ##   ##  ##   ##   **
 **   ##  ## ##  ##   ##  ##  ##      ####     ###    ##   ######   ######    **
 **    ##  ###   ##   ##  ##  ##      ## ##      ##   ##   ##       ##        **
 **     #######   #####   ##   #####  ##  ##  ####    ##    #####   ##        **
 **           ##                                                    ##        **
 **                                                                           **
 **                                                ... make the atoms dance   **
 **                                                                           **
 **            Copyright (C) by CP2K developers group (2000-2022)             **
 **                      J. Chem. Phys. 152, 194103 (2020)                    **
 **                                                                           **
 *******************************************************************************

 DFT| Spin restricted Kohn-Sham (RKS) calculation                            RKS
 DFT| Multiplicity                                                             2
 DFT| Number of spin states                                                    1
 DFT| Charge                                                                   0
 DFT| Self-interaction correction (SIC)                                       NO
 DFT| Cutoffs: density                                              1.000000E-10
 DFT|          gradient                                             1.000000E-10
 DFT|          tau                                                  1.000000E-10
 DFT|          cutoff_smoothing_range                               0.000000E+00
 DFT| XC density smoothing                                                  NONE
 DFT| XC derivatives                                                          PW

 FUNCTIONAL| PBE:
 FUNCTIONAL| J.P.Perdew, K.Burke, M.Ernzerhof, Phys. Rev. Letter, vol. 77, n 18,
 FUNCTIONAL|  pp. 3865-3868, (1996){spin unpolarized}                           


 QS| Method:                                                                 GPW
 QS| Density plane wave grid type                        NON-SPHERICAL FULLSPACE
 QS| Number of grid levels:                                                    4
 QS| Density cutoff [a.u.]:                                                300.0
 QS| Multi grid cutoff [a.u.]: 1) grid level                               300.0
 QS|                           2) grid level                               100.0
 QS|                           3) grid level                                33.3
 QS|                           4) grid level                                11.1
 QS| Grid level progression factor:                                          3.0
 QS| Relative density cutoff [a.u.]:                                        30.0
 QS| Interaction thresholds: eps_pgf_orb:                                1.0E-05
 QS|                         eps_filter_matrix:                          0.0E+00
 QS|                         eps_core_charge:                            1.0E-12
 QS|                         eps_rho_gspace:                             1.0E-10
 QS|                         eps_rho_rspace:                             1.0E-10
 QS|                         eps_gvg_rspace:                             1.0E-05
 QS|                         eps_ppl:                                    1.0E-02
 QS|                         eps_ppnl:                                   1.0E-07


 ATOMIC KIND INFORMATION

  1. Atomic kind: Au                                    Number of atoms:     111

     Orbital Basis Set                                         SZV-MOLOPT-SR-GTH

       Number of orbital shell sets:                                           1
       Number of orbital shells:                                               3
       Number of primitive Cartesian functions:                                5
       Number of Cartesian basis functions:                                   10
       Number of spherical basis functions:                                    9
       Norm type:                                                              2

       Normalised Cartesian orbitals:

                        Set   Shell   Orbital            Exponent    Coefficient

                          1       1    2s                2.950008       0.074626
                                                         1.563057      -0.007898
                                                         0.666664      -0.297688
                                                         0.251083       0.136809
                                                         0.081714       0.088198

                          1       2    3px               2.950008       0.148824
                                                         1.563057       0.025430
                                                         0.666664      -0.123003
                                                         0.251083       0.033648
                                                         0.081714       0.059008
                          1       2    3py               2.950008       0.148824
                                                         1.563057       0.025430
                                                         0.666664      -0.123003
                                                         0.251083       0.033648
                                                         0.081714       0.059008
                          1       2    3pz               2.950008       0.148824
                                                         1.563057       0.025430
                                                         0.666664      -0.123003
                                                         0.251083       0.033648
                                                         0.081714       0.059008

                          1       3    4dx2              2.950008      -0.139595
                                                         1.563057       1.319655
                                                         0.666664       0.377081
                                                         0.251083       0.046872
                                                         0.081714       0.001393
                          1       3    4dxy              2.950008      -0.241786
                                                         1.563057       2.285709
                                                         0.666664       0.653124
                                                         0.251083       0.081185
                                                         0.081714       0.002412
                          1       3    4dxz              2.950008      -0.241786
                                                         1.563057       2.285709
                                                         0.666664       0.653124
                                                         0.251083       0.081185
                                                         0.081714       0.002412
                          1       3    4dy2              2.950008      -0.139595
                                                         1.563057       1.319655
                                                         0.666664       0.377081
                                                         0.251083       0.046872
                                                         0.081714       0.001393
                          1       3    4dyz              2.950008      -0.241786
                                                         1.563057       2.285709
                                                         0.666664       0.653124
                                                         0.251083       0.081185
                                                         0.081714       0.002412
                          1       3    4dz2              2.950008      -0.139595
                                                         1.563057       1.319655
                                                         0.666664       0.377081
                                                         0.251083       0.046872
                                                         0.081714       0.001393

       Atomic covalent radius [Angstrom]:                                  1.340

       Atomic van der Waals radius [Angstrom]:                             1.660

     GTH Potential information for                                   GTH-PBE-q11

       Description:                       Goedecker-Teter-Hutter pseudopotential
                                           Goedecker et al., PRB 54, 1703 (1996)
                                          Hartwigsen et al., PRB 58, 3641 (1998)
                                                      Krack, TCA 114, 145 (2005)

       Gaussian exponent of the core charge distribution:               1.436369
       Electronic configuration (s p d ...):                           1   0  10

       Parameters of the local part of the GTH pseudopotential:

                          rloc        C1          C2          C3          C4
                        0.590000   10.517179

       Parameters of the non-local part of the GTH pseudopotential:

                   l      r(l)      h(i,j,l)

                   0    0.543847    5.786811   -2.250680
                                   -2.250680    2.905615
                   1    0.609173    4.284049   -4.071285
                                   -4.071285    4.817210
                   2    0.437309   -7.403281    3.010193
                                    3.010193   -3.413238

  2. Atomic kind: H                                     Number of atoms:       2

     Orbital Basis Set                                        DZVP-MOLOPT-SR-GTH

       Number of orbital shell sets:                                           1
       Number of orbital shells:                                               3
       Number of primitive Cartesian functions:                                5
       Number of Cartesian basis functions:                                    5
       Number of spherical basis functions:                                    5
       Norm type:                                                              2

       Normalised Cartesian orbitals:

                        Set   Shell   Orbital            Exponent    Coefficient

                          1       1    2s               10.068468      -0.133023
                                                         2.680223      -0.177618
                                                         0.791502      -0.258419
                                                         0.239116      -0.107525
                                                         0.082193      -0.014019

                          1       2    3s               10.068468       0.344673
                                                         2.680223       1.819821
                                                         0.791502      -0.999069
                                                         0.239116       0.017430
                                                         0.082193       0.082660

                          1       3    3px              10.068468       0.155326
                                                         2.680223       0.367157
                                                         0.791502       0.311480
                                                         0.239116       0.080105
                                                         0.082193       0.033440
                          1       3    3py              10.068468       0.155326
                                                         2.680223       0.367157
                                                         0.791502       0.311480
                                                         0.239116       0.080105
                                                         0.082193       0.033440
                          1       3    3pz              10.068468       0.155326
                                                         2.680223       0.367157
                                                         0.791502       0.311480
                                                         0.239116       0.080105
                                                         0.082193       0.033440

       Atomic covalent radius [Angstrom]:                                  0.320

       Atomic van der Waals radius [Angstrom]:                             1.090

     GTH Potential information for                                    GTH-PBE-q1

       Description:                       Goedecker-Teter-Hutter pseudopotential
                                           Goedecker et al., PRB 54, 1703 (1996)
                                          Hartwigsen et al., PRB 58, 3641 (1998)
                                                      Krack, TCA 114, 145 (2005)

       Gaussian exponent of the core charge distribution:              12.500000
       Electronic configuration (s p d ...):                                   1

       Parameters of the local part of the GTH pseudopotential:

                          rloc        C1          C2          C3          C4
                        0.200000   -4.178900    0.724463


 MOLECULE KIND INFORMATION


 All atoms are their own molecule, skipping detailed information


 TOTAL NUMBERS AND MAXIMUM NUMBERS

  Total number of            - Atomic kinds:                                   2
                             - Atoms:                                        113
                             - Shell sets:                                   113
                             - Shells:                                       339
                             - Primitive Cartesian functions:                565
                             - Cartesian basis functions:                   1120
                             - Spherical basis functions:                   1009

  Maximum angular momentum of- Orbital basis functions:                        2
                             - Local part of the GTH pseudopotential:          2
                             - Non-local part of the GTH pseudopotential:      4


 MODULE QUICKSTEP: ATOMIC COORDINATES IN ANGSTROM

   Atom Kind Element         X             Y             Z       Z(eff)     Mass
      1    1 Au   79      1.787000      1.281000      0.000000  11.0000 196.9666
      2    1 Au   79      0.309000      2.759000      2.090000  11.0000 196.9666
      3    1 Au   79      1.787000      1.281000      4.180000  11.0000 196.9666
      4    1 Au   79      0.309000      2.759000      6.270000  11.0000 196.9666
      5    1 Au   79      4.743000      1.281000      0.000000  11.0000 196.9666
      6    1 Au   79      3.265000      2.759000      2.090000  11.0000 196.9666
      7    1 Au   79      4.743000      1.281000      4.180000  11.0000 196.9666
      8    1 Au   79      3.265000      2.759000      6.270000  11.0000 196.9666
      9    1 Au   79      7.699000      1.281000      0.000000  11.0000 196.9666
     10    1 Au   79      6.221000      2.759000      2.090000  11.0000 196.9666
     11    1 Au   79      7.699000      1.281000      4.180000  11.0000 196.9666
     12    1 Au   79      6.221000      2.759000      6.270000  11.0000 196.9666
     13    1 Au   79      1.787000      4.236000      0.000000  11.0000 196.9666
     14    1 Au   79      0.309000      5.714000      2.090000  11.0000 196.9666
     15    1 Au   79      1.787000      4.236000      4.180000  11.0000 196.9666
     16    1 Au   79      0.309000      5.714000      6.270000  11.0000 196.9666
     17    1 Au   79      4.743000      4.236000      0.000000  11.0000 196.9666
     18    1 Au   79      3.265000      5.714000      2.090000  11.0000 196.9666
     19    1 Au   79      4.743000      4.236000      4.180000  11.0000 196.9666
     20    1 Au   79      3.265000      5.714000      6.270000  11.0000 196.9666
     21    1 Au   79      7.699000      4.236000      0.000000  11.0000 196.9666
     22    1 Au   79      6.221000      5.714000      2.090000  11.0000 196.9666
     23    1 Au   79      7.699000      4.236000      4.180000  11.0000 196.9666
     24    1 Au   79      6.221000      5.714000      6.270000  11.0000 196.9666
     25    1 Au   79      1.787000      7.192000      0.000000  11.0000 196.9666
     26    1 Au   79      0.309000      8.670000      2.090000  11.0000 196.9666
     27    1 Au   79      1.787000      7.192000      4.180000  11.0000 196.9666
     28    1 Au   79      0.309000      8.670000      6.270000  11.0000 196.9666
     29    1 Au   79      4.743000      7.192000      0.000000  11.0000 196.9666
     30    1 Au   79      3.265000      8.670000      2.090000  11.0000 196.9666
     31    1 Au   79      4.743000      7.192000      4.180000  11.0000 196.9666
     32    1 Au   79      3.265000      8.670000      6.270000  11.0000 196.9666
     33    1 Au   79      7.699000      7.192000      0.000000  11.0000 196.9666
     34    1 Au   79      6.221000      8.670000      2.090000  11.0000 196.9666
     35    1 Au   79      7.699000      7.192000      4.180000  11.0000 196.9666
     36    1 Au   79      6.221000      8.670000      6.270000  11.0000 196.9666
     37    1 Au   79      1.787000      1.281000      8.360000  11.0000 196.9666
     38    1 Au   79      1.787000      4.236000      8.360000  11.0000 196.9666
     39    1 Au   79      1.787000      7.192000      8.360000  11.0000 196.9666
     40    1 Au   79      4.743000      1.281000      8.360000  11.0000 196.9666
     41    1 Au   79      4.743000      4.236000      8.360000  11.0000 196.9666
     42    1 Au   79      4.743000      7.192000      8.360000  11.0000 196.9666
     43    1 Au   79      7.699000      1.281000      8.360000  11.0000 196.9666
     44    1 Au   79      7.699000      4.236000      8.360000  11.0000 196.9666
     45    1 Au   79      7.699000      7.192000      8.360000  11.0000 196.9666
     46    1 Au   79      0.309000      2.759000     10.450000  11.0000 196.9666
     47    1 Au   79      0.309000      5.714000     10.450000  11.0000 196.9666
     48    1 Au   79      0.309000      8.670000     10.450000  11.0000 196.9666
     49    1 Au   79      3.265000      2.759000     10.450000  11.0000 196.9666
     50    1 Au   79      3.265000      5.714000     10.450000  11.0000 196.9666
     51    1 Au   79      3.265000      8.670000     10.450000  11.0000 196.9666
     52    1 Au   79      6.221000      2.759000     10.450000  11.0000 196.9666
     53    1 Au   79      6.221000      5.714000     10.450000  11.0000 196.9666
     54    1 Au   79      6.221000      8.670000     10.450000  11.0000 196.9666
     55    1 Au   79      1.767000      4.215000     12.446000  11.0000 196.9666
     56    1 Au   79      1.766000      7.214000     12.446000  11.0000 196.9666
     57    1 Au   79      4.765000      4.213000     12.446000  11.0000 196.9666
     58    1 Au   79      4.767000      7.214000     12.445000  11.0000 196.9666
     59    1 Au   79      3.268000      5.717000     14.396000  11.0000 196.9666
     60    1 Au   79      3.267000      5.744000     17.050000  11.0000 196.9666
     61    2 H     1      3.254000      5.720000     18.927000   1.0000   1.0079
     62    2 H     1      3.260000      5.726000     19.796000   1.0000   1.0079
     63    1 Au   79      3.233000      5.712000     21.672000  11.0000 196.9666
     64    1 Au   79      3.264000      5.714000     24.326000  11.0000 196.9666
     65    1 Au   79      1.765000      4.213000     26.275000  11.0000 196.9666
     66    1 Au   79      1.765000      7.214000     26.274000  11.0000 196.9666
     67    1 Au   79      4.765000      4.214000     26.274000  11.0000 196.9666
     68    1 Au   79      4.765000      7.214000     26.275000  11.0000 196.9666
     69    1 Au   79      0.309000      2.759000     28.270000  11.0000 196.9666
     70    1 Au   79      0.309000      5.714000     28.270000  11.0000 196.9666
     71    1 Au   79      0.309000      8.670000     28.270000  11.0000 196.9666
     72    1 Au   79      3.265000      2.759000     28.270000  11.0000 196.9666
     73    1 Au   79      3.265000      5.714000     28.270000  11.0000 196.9666
     74    1 Au   79      3.265000      8.670000     28.270000  11.0000 196.9666
     75    1 Au   79      6.221000      2.759000     28.270000  11.0000 196.9666
     76    1 Au   79      6.221000      5.714000     28.270000  11.0000 196.9666
     77    1 Au   79      6.221000      8.670000     28.270000  11.0000 196.9666
     78    1 Au   79      1.787000      1.281000     30.360000  11.0000 196.9666
     79    1 Au   79      0.309000      2.759000     32.450000  11.0000 196.9666
     80    1 Au   79      1.787000      1.281000     34.540000  11.0000 196.9666
     81    1 Au   79      0.309000      2.759000     36.630000  11.0000 196.9666
     82    1 Au   79      4.743000      1.281000     30.360000  11.0000 196.9666
     83    1 Au   79      3.265000      2.759000     32.450000  11.0000 196.9666
     84    1 Au   79      4.743000      1.281000     34.540000  11.0000 196.9666
     85    1 Au   79      3.265000      2.759000     36.630000  11.0000 196.9666
     86    1 Au   79      7.699000      1.281000     30.360000  11.0000 196.9666
     87    1 Au   79      6.221000      2.759000     32.450000  11.0000 196.9666
     88    1 Au   79      7.699000      1.281000     34.540000  11.0000 196.9666
     89    1 Au   79      6.221000      2.759000     36.630000  11.0000 196.9666
     90    1 Au   79      1.787000      4.236000     30.360000  11.0000 196.9666
     91    1 Au   79      0.309000      5.714000     32.450000  11.0000 196.9666
     92    1 Au   79      1.787000      4.236000     34.540000  11.0000 196.9666
     93    1 Au   79      0.309000      5.714000     36.630000  11.0000 196.9666
     94    1 Au   79      4.743000      4.236000     30.360000  11.0000 196.9666
     95    1 Au   79      3.265000      5.714000     32.450000  11.0000 196.9666
     96    1 Au   79      4.743000      4.236000     34.540000  11.0000 196.9666
     97    1 Au   79      3.265000      5.714000     36.630000  11.0000 196.9666
     98    1 Au   79      7.699000      4.236000     30.360000  11.0000 196.9666
     99    1 Au   79      6.221000      5.714000     32.450000  11.0000 196.9666
    100    1 Au   79      7.699000      4.236000     34.540000  11.0000 196.9666
    101    1 Au   79      6.221000      5.714000     36.630000  11.0000 196.9666
    102    1 Au   79      1.787000      7.192000     30.360000  11.0000 196.9666
    103    1 Au   79      0.309000      8.670000     32.450000  11.0000 196.9666
    104    1 Au   79      1.787000      7.192000     34.540000  11.0000 196.9666
    105    1 Au   79      0.309000      8.670000     36.630000  11.0000 196.9666
    106    1 Au   79      4.743000      7.192000     30.360000  11.0000 196.9666
    107    1 Au   79      3.265000      8.670000     32.450000  11.0000 196.9666
    108    1 Au   79      4.743000      7.192000     34.540000  11.0000 196.9666
    109    1 Au   79      3.265000      8.670000     36.630000  11.0000 196.9666
    110    1 Au   79      7.699000      7.192000     30.360000  11.0000 196.9666
    111    1 Au   79      6.221000      8.670000     32.450000  11.0000 196.9666
    112    1 Au   79      7.699000      7.192000     34.540000  11.0000 196.9666
    113    1 Au   79      6.221000      8.670000     36.630000  11.0000 196.9666



 SCF PARAMETERS         Density guess:                                   RESTART
                        --------------------------------------------------------
                        max_scf:                                             500
                        max_scf_history:                                       0
                        max_diis:                                              4
                        --------------------------------------------------------
                        eps_scf:                                        1.00E-08
                        eps_scf_history:                                0.00E+00
                        eps_diis:                                       1.00E-01
                        eps_eigval:                                     1.00E-05
                        --------------------------------------------------------
                        level_shift [a.u.]:                             0.000000
                        added MOs                                       100    0
                        --------------------------------------------------------
                        Mixing method:                            BROYDEN_MIXING
                                                charge density mixing in g-space
                        --------------------------------------------------------
                        Smear method:                                FERMI_DIRAC
                        Electronic temperature [K]:                        300.0
                        Electronic temperature [a.u.]:                  9.50E-04
                        Accuracy threshold:                             1.00E-10
                        --------------------------------------------------------
                        No outer SCF

 PW_GRID| Information for grid number                                          1
 PW_GRID| Grid distributed over                                   512 processors
 PW_GRID| Real space group dimensions                                    16   32
 PW_GRID| the grid is blocked:                                               YES
 PW_GRID| Cutoff [a.u.]                                                    300.0
 PW_GRID| spherical cutoff:                                                   NO
 PW_GRID|   Bounds   1            -66      65                Points:         132
 PW_GRID|   Bounds   2            -66      65                Points:         132
 PW_GRID|   Bounds   3           -288     287                Points:         576
 PW_GRID| Volume element (a.u.^3)  0.2047E-02     Volume (a.u.^3)     20544.5734
 PW_GRID| Grid span                                                    FULLSPACE
 PW_GRID|   Distribution                         Average         Max         Min
 PW_GRID|   G-Vectors                            19602.0       21384       19008
 PW_GRID|   G-Rays                                 148.5         162         144
 PW_GRID|   Real Space Points                    19602.0       21384       19008

 PW_GRID| Information for grid number                                          2
 PW_GRID| Number of the reference grid                                         1
 PW_GRID| Grid distributed over                                   512 processors
 PW_GRID| Real space group dimensions                                    16   32
 PW_GRID| the grid is blocked:                                                NO
 PW_GRID| Cutoff [a.u.]                                                    100.0
 PW_GRID| spherical cutoff:                                                   NO
 PW_GRID|   Bounds   1            -37      37                Points:          75
 PW_GRID|   Bounds   2            -37      37                Points:          75
 PW_GRID|   Bounds   3           -165     164                Points:         330
 PW_GRID| Volume element (a.u.^3)  0.1107E-01     Volume (a.u.^3)     20544.5734
 PW_GRID| Grid span                                                    FULLSPACE
 PW_GRID|   Distribution                         Average         Max         Min
 PW_GRID|   G-Vectors                             3625.5       12150           0
 PW_GRID|   G-Rays                                  48.3         162           0
 PW_GRID|   Real Space Points                     3625.5        4950        2640

 PW_GRID| Information for grid number                                          3
 PW_GRID| Number of the reference grid                                         1
 PW_GRID| Grid distributed over                                   512 processors
 PW_GRID| Real space group dimensions                                    16   32
 PW_GRID| the grid is blocked:                                                NO
 PW_GRID| Cutoff [a.u.]                                                     33.3
 PW_GRID| spherical cutoff:                                                   NO
 PW_GRID|   Bounds   1            -22      21                Points:          44
 PW_GRID|   Bounds   2            -22      21                Points:          44
 PW_GRID|   Bounds   3            -96      95                Points:         192
 PW_GRID| Volume element (a.u.^3)  0.5527E-01     Volume (a.u.^3)     20544.5734
 PW_GRID| Grid span                                                    FULLSPACE
 PW_GRID|   Distribution                         Average         Max         Min
 PW_GRID|   G-Vectors                              726.0        7128           0
 PW_GRID|   G-Rays                                  16.5         162           0
 PW_GRID|   Real Space Points                      726.0        1152         384

 PW_GRID| Information for grid number                                          4
 PW_GRID| Number of the reference grid                                         1
 PW_GRID| Grid distributed over                                   512 processors
 PW_GRID| Real space group dimensions                                    16   32
 PW_GRID| the grid is blocked:                                                NO
 PW_GRID| Cutoff [a.u.]                                                     11.1
 PW_GRID| spherical cutoff:                                                   NO
 PW_GRID|   Bounds   1            -12      12                Points:          25
 PW_GRID|   Bounds   2            -12      12                Points:          25
 PW_GRID|   Bounds   3            -55      54                Points:         110
 PW_GRID| Volume element (a.u.^3)  0.2988         Volume (a.u.^3)     20544.5734
 PW_GRID| Grid span                                                    FULLSPACE
 PW_GRID|   Distribution                         Average         Max         Min
 PW_GRID|   G-Vectors                              134.3        3600           0
 PW_GRID|   G-Rays                                   5.4         144           0
 PW_GRID|   Real Space Points                      134.3         220           0

 POISSON| Solver                                                        PERIODIC
 POISSON| Periodicity                                                        XYZ

 RS_GRID| Information for grid number                                          1
 RS_GRID|   Bounds   1            -66      65                Points:         132
 RS_GRID|   Bounds   2            -66      65                Points:         132
 RS_GRID|   Bounds   3           -288     287                Points:         576
 RS_GRID| Real space distribution over                                  8 groups
 RS_GRID| Real space distribution along direction                              2
 RS_GRID| Border size                                                         35
 RS_GRID| Real space distribution over                                 64 groups
 RS_GRID| Real space distribution along direction                              3
 RS_GRID| Border size                                                         35
 RS_GRID|   Distribution                         Average         Max         Min
 RS_GRID|   Planes                                  86.5          87          86
 RS_GRID|   Distribution                         Average         Max         Min
 RS_GRID|   Planes                                  79.0          79          79

 RS_GRID| Information for grid number                                          2
 RS_GRID|   Bounds   1            -37      37                Points:          75
 RS_GRID|   Bounds   2            -37      37                Points:          75
 RS_GRID|   Bounds   3           -165     164                Points:         330
 RS_GRID| Real space distribution over                                  8 groups
 RS_GRID| Real space distribution along direction                              2
 RS_GRID| Border size                                                         24
 RS_GRID| Real space distribution over                                 64 groups
 RS_GRID| Real space distribution along direction                              3
 RS_GRID| Border size                                                         24
 RS_GRID|   Distribution                         Average         Max         Min
 RS_GRID|   Planes                                  57.4          58          57
 RS_GRID|   Distribution                         Average         Max         Min
 RS_GRID|   Planes                                  53.2          54          53

 RS_GRID| Information for grid number                                          3
 RS_GRID|   Bounds   1            -22      21                Points:          44
 RS_GRID|   Bounds   2            -22      21                Points:          44
 RS_GRID|   Bounds   3            -96      95                Points:         192
 RS_GRID| Real space fully replicated
 RS_GRID| Group size                                                           1

 RS_GRID| Information for grid number                                          4
 RS_GRID|   Bounds   1            -12      12                Points:          25
 RS_GRID|   Bounds   2            -12      12                Points:          25
 RS_GRID|   Bounds   3            -55      54                Points:         110
 RS_GRID| Real space fully replicated
 RS_GRID| Group size                                                           1

 KPOINTS| Number of kpoint groups                                              1
 KPOINTS| Size of each kpoint group                                          512
 KPOINTS| Number of kpoints per group                                          9

 BFGS| Use rational function optimization for step estimation:                NO
 BFGS| Use model Hessian for initial guess:                                  YES
 BFGS| Restart Hessian:                                                       NO
 BFGS| Trust radius:                                                       0.472

 *******************************************************************************
 ***                     STARTING GEOMETRY OPTIMIZATION                      ***
 ***                                   BFGS                                  ***
 *******************************************************************************

 Number of electrons:                                                       1223
 Number of occupied orbitals:                                                612
 Number of molecular orbitals:                                               712

 Number of orbital functions:                                               1009
 Number of independent orbital functions:                                   1009

 Extrapolation method: initial_guess


 SCF WAVEFUNCTION OPTIMIZATION

  Step     Update method      Time    Convergence         Total energy    Change
  ------------------------------------------------------------------------------
 SMEAGOL DEBUG| Number of electrons in the unit cell =      1223.0000000003
     1 NoMix/SMGL  0.30E+00  196.7     1.68886089     -3690.6583110547 -3.69E+03
 SMEAGOL DEBUG| Number of electrons in the unit cell =      1222.5815831553
     2 Broy./SMGL  0.30E+00   83.7    10.48674709     -3689.2326455165  1.43E+00
 SMEAGOL DEBUG| Number of electrons in the unit cell =      1220.8515215868
     3 Broy./SMGL  0.30E+00   85.2    10.48604156     -3805.1300516825 -1.16E+02
 SMEAGOL DEBUG| Number of electrons in the unit cell =      1222.0949636084
     4 Broy./SMGL  0.30E+00   82.0     0.55137971     -3695.8163608490  1.09E+02
 SMEAGOL DEBUG| Number of electrons in the unit cell =      1223.1119398839
     5 Broy./SMGL  0.30E+00   84.9     0.13168918     -3682.3231734660  1.35E+01
 SMEAGOL DEBUG| Number of electrons in the unit cell =      1222.6111418916
     6 Broy./SMGL  0.30E+00   83.1     0.05298679     -3687.9286774856 -5.61E+00
 SMEAGOL DEBUG| Number of electrons in the unit cell =      1222.7372330624
     7 Broy./SMGL  0.30E+00   84.1     0.03178251     -3686.3394201432  1.59E+00
 SMEAGOL DEBUG| Number of electrons in the unit cell =      1222.9620193198
     8 Broy./SMGL  0.30E+00   89.8     0.05099648     -3687.2457335268 -9.06E-01
 SMEAGOL DEBUG| Number of electrons in the unit cell =      1223.0646592759
     9 Broy./SMGL  0.30E+00   85.0     0.02140454     -3688.2471253984 -1.00E+00
 SMEAGOL DEBUG| Number of electrons in the unit cell =      1223.0940058441
    10 Broy./SMGL  0.30E+00   94.3     0.02105796     -3689.0607662061 -8.14E-01
 SMEAGOL DEBUG| Number of electrons in the unit cell =      1223.1084889904
    11 Broy./SMGL  0.30E+00   90.2     0.00897642     -3689.0917317068 -3.10E-02
 SMEAGOL DEBUG| Number of electrons in the unit cell =      1223.2673649101
    12 Broy./SMGL  0.30E+00   92.8     0.05868276     -3688.8769865338  2.15E-01
 SMEAGOL DEBUG| Number of electrons in the unit cell =      1223.1316691906
    13 Broy./SMGL  0.30E+00   94.6     0.02464720     -3691.3693476854 -2.49E+00
 SMEAGOL DEBUG| Number of electrons in the unit cell =      1223.1039392236
    14 Broy./SMGL  0.30E+00   96.6     0.01282596     -3690.4365911485  9.33E-01
 SMEAGOL DEBUG| Number of electrons in the unit cell =      1223.0385593145
    15 Broy./SMGL  0.30E+00  104.7     0.01203884     -3690.7188017455 -2.82E-01
 SMEAGOL DEBUG| Number of electrons in the unit cell =      1222.9924904556
    16 Broy./SMGL  0.30E+00  115.8     0.01284956     -3690.7003868520  1.84E-02
 SMEAGOL DEBUG| Number of electrons in the unit cell =      1222.9730282200
    17 Broy./SMGL  0.30E+00   93.4     0.01284019     -3690.6492091187  5.12E-02
 SMEAGOL DEBUG| Number of electrons in the unit cell =      1222.9703586164
    18 Broy./SMGL  0.30E+00  123.9     0.01186815     -3690.6015526232  4.77E-02
 SMEAGOL DEBUG| Number of electrons in the unit cell =      1222.9639811409
    19 Broy./SMGL  0.30E+00  137.0     0.01191462     -3690.6179150345 -1.64E-02
 SMEAGOL DEBUG| Number of electrons in the unit cell =      1222.9587411435
    20 Broy./SMGL  0.30E+00  155.4     0.00755781     -3690.6055500445  1.24E-02
 SMEAGOL DEBUG| Number of electrons in the unit cell =      1222.9600053474
    21 Broy./SMGL  0.30E+00  130.9     0.00754680     -3690.5771416720  2.84E-02
 SMEAGOL DEBUG| Number of electrons in the unit cell =      1222.9581081659
    22 Broy./SMGL  0.30E+00  130.9     0.00269848     -3690.5942655306 -1.71E-02
 SMEAGOL DEBUG| Number of electrons in the unit cell =      1222.9577095753
    23 Broy./SMGL  0.30E+00  104.4     0.00174148     -3690.5773355374  1.69E-02
 SMEAGOL DEBUG| Number of electrons in the unit cell =      1222.9577100046
    24 Broy./SMGL  0.30E+00  101.7     0.00192749     -3690.5905312554 -1.32E-02
 SMEAGOL DEBUG| Number of electrons in the unit cell =      1222.9570954483
    25 Broy./SMGL  0.30E+00   90.6     0.00174233     -3690.5833361076  7.20E-03
 SMEAGOL DEBUG| Number of electrons in the unit cell =      1222.9577813553
    26 Broy./SMGL  0.30E+00   91.7     0.00270073     -3690.5879154159 -4.58E-03
 SMEAGOL DEBUG| Number of electrons in the unit cell =      1222.9583197654
    27 Broy./SMGL  0.30E+00   97.1     0.00270055     -3690.5873488223  5.67E-04
 SMEAGOL DEBUG| Number of electrons in the unit cell =      1222.9586870526
    28 Broy./SMGL  0.30E+00   84.4     0.00270067     -3690.5865884420  7.60E-04
 SMEAGOL DEBUG| Number of electrons in the unit cell =      1222.9590571434
    29 Broy./SMGL  0.30E+00   93.6     0.00270047     -3690.5856300657  9.58E-04
 SMEAGOL DEBUG| Number of electrons in the unit cell =      1222.9592370277
    30 Broy./SMGL  0.30E+00   85.6     0.00174199     -3690.5849556461  6.74E-04
 SMEAGOL DEBUG| Number of electrons in the unit cell =      1222.9592933284
    31 Broy./SMGL  0.30E+00   90.1     0.00145864     -3690.5859089140 -9.53E-04
 SMEAGOL DEBUG| Number of electrons in the unit cell =      1222.9593251072
    32 Broy./SMGL  0.30E+00   86.1     0.00145870     -3690.5859448454 -3.59E-05
 SMEAGOL DEBUG| Number of electrons in the unit cell =      1222.9593554951
    33 Broy./SMGL  0.30E+00   86.7     0.00145871     -3690.5854572913  4.88E-04
 SMEAGOL DEBUG| Number of electrons in the unit cell =      1222.9594112861
    34 Broy./SMGL  0.30E+00   92.8     0.00039066     -3690.5859120253 -4.55E-04
 SMEAGOL DEBUG| Number of electrons in the unit cell =      1222.9594309508
    35 Broy./SMGL  0.30E+00   89.7     0.00145864     -3690.5860378637 -1.26E-04
 SMEAGOL DEBUG| Number of electrons in the unit cell =      1222.9594521693
    36 Broy./SMGL  0.30E+00   90.0     0.00001494     -3690.5864616466 -4.24E-04
 SMEAGOL DEBUG| Number of electrons in the unit cell =      1222.9594331653
    37 Broy./SMGL  0.30E+00   87.8     0.00167042     -3690.5860347736  4.27E-04
 SMEAGOL DEBUG| Number of electrons in the unit cell =      1222.9594054755
    38 Broy./SMGL  0.30E+00   91.8     0.00167056     -3690.5862800443 -2.45E-04
 SMEAGOL DEBUG| Number of electrons in the unit cell =      1222.9593891065
    39 Broy./SMGL  0.30E+00   85.0     0.00167056     -3690.5863583117 -7.83E-05
 SMEAGOL DEBUG| Number of electrons in the unit cell =      1222.9593623874
    40 Broy./SMGL  0.30E+00   85.0     0.00167053     -3690.5862712646  8.70E-05
 SMEAGOL DEBUG| Number of electrons in the unit cell =      1222.9593541409
    41 Broy./SMGL  0.30E+00   88.5     0.00000123     -3690.5862947691 -2.35E-05
 SMEAGOL DEBUG| Number of electrons in the unit cell =      1222.9593367742
    42 Broy./SMGL  0.30E+00   85.4     0.00000074     -3690.5862688304  2.59E-05
 SMEAGOL DEBUG| Number of electrons in the unit cell =      1222.9593291708
    43 Broy./SMGL  0.30E+00   88.9     0.00000170     -3690.5862623928  6.44E-06
 SMEAGOL DEBUG| Number of electrons in the unit cell =      1222.9593229168
    44 Broy./SMGL  0.30E+00   83.2     0.00000085     -3690.5861995769  6.28E-05
 SMEAGOL DEBUG| Number of electrons in the unit cell =      1222.9593221042
    45 Broy./SMGL  0.30E+00   83.4     0.00000034     -3690.5862323777 -3.28E-05
 SMEAGOL DEBUG| Number of electrons in the unit cell =      1222.9593235879
    46 Broy./SMGL  0.30E+00   85.2     0.00000019     -3690.5862383978 -6.02E-06
 SMEAGOL DEBUG| Number of electrons in the unit cell =      1222.9593235577
    47 Broy./SMGL  0.30E+00   83.6     0.00000016     -3690.5862347700  3.63E-06
 SMEAGOL DEBUG| Number of electrons in the unit cell =      1222.9593235807
    48 Broy./SMGL  0.30E+00   87.6     0.00000008     -3690.5862367254 -1.96E-06
 SMEAGOL DEBUG| Number of electrons in the unit cell =      1222.9593236637
    49 Broy./SMGL  0.30E+00   83.7     0.00000003     -3690.5862350495  1.68E-06
 SMEAGOL DEBUG| Number of electrons in the unit cell =      1222.9593238554
    50 Broy./SMGL  0.30E+00   85.3     0.00000002     -3690.5862337248  1.32E-06
 SMEAGOL DEBUG| Number of electrons in the unit cell =      1222.9593238109
    51 Broy./SMGL  0.30E+00   85.2     0.00000003     -3690.5862348530 -1.13E-06
 SMEAGOL DEBUG| Number of electrons in the unit cell =      1222.9593238216
    52 Broy./SMGL  0.30E+00   83.9     0.00000002     -3690.5862355341 -6.81E-07
 SMEAGOL DEBUG| Number of electrons in the unit cell =      1222.9593238161
    53 Broy./SMGL  0.30E+00   84.6     0.00000002     -3690.5862350900  4.44E-07
 SMEAGOL DEBUG| Number of electrons in the unit cell =      1222.9593237532
    54 Broy./SMGL  0.30E+00   84.9     6.9821E-09     -3690.5862344665  6.23E-07

  *** SCF run converged in    54 steps ***


  Electronic density on regular grids:      -1222.9593237532        0.0406762468
  Core density on regular grids:             1222.9999997993       -0.0000002007
  Total charge density on r-space grids:        0.0406760461
  Total charge density g-space grids:           0.0406760461

  Overlap energy of the core charge distribution:               0.00000048998631
  Self energy of the core charge distribution:              -6424.54153828207382
  Core Hamiltonian energy:                                   2052.80768885650059
  Hartree energy:                                            1264.59812879207357
  Exchange-correlation energy:                               -583.45051432296111
  Electronic entropic energy:                                   0.00000000000000
  Fermi energy:                                                 0.00000000000000

  Total energy:                                             -3690.58623446647380

 The electron density is written in cube file format to the file:

 V-ELECTRON_DENSITY-1_0.cube

 !-----------------------------------------------------------------------------!
                     Mulliken Population Analysis

 #  Atom  Element  Kind  Atomic population                           Net charge
       1     Au       1         11.000099                             -0.000099
       2     Au       1         10.999273                              0.000727
       3     Au       1         10.987637                              0.012363
       4     Au       1         10.987235                              0.012765
       5     Au       1         11.000161                             -0.000161
       6     Au       1         10.999497                              0.000503
       7     Au       1         10.987683                              0.012317
       8     Au       1         10.980765                              0.019235
       9     Au       1         10.999915                              0.000085
      10     Au       1         10.999458                              0.000542
      11     Au       1         10.989266                              0.010734
      12     Au       1         10.987423                              0.012577
      13     Au       1         10.999859                              0.000141
      14     Au       1         10.999450                              0.000550
      15     Au       1         10.987536                              0.012464
      16     Au       1         10.980727                              0.019273
      17     Au       1         10.999920                              0.000080
      18     Au       1         10.999780                              0.000220
      19     Au       1         10.987602                              0.012398
      20     Au       1         10.975854                              0.024146
      21     Au       1         10.999675                              0.000325
      22     Au       1         10.999634                              0.000366
      23     Au       1         10.987207                              0.012793
      24     Au       1         10.980915                              0.019085
      25     Au       1         11.000144                             -0.000144
      26     Au       1         10.999579                              0.000421
      27     Au       1         10.987820                              0.012180
      28     Au       1         10.987552                              0.012448
      29     Au       1         11.000205                             -0.000205
      30     Au       1         10.999802                              0.000198
      31     Au       1         10.987885                              0.012115
      32     Au       1         10.981151                              0.018849
      33     Au       1         10.999960                              0.000040
      34     Au       1         10.999763                              0.000237
      35     Au       1         10.987456                              0.012544
      36     Au       1         10.987759                              0.012241
      37     Au       1         10.987440                              0.012560
      38     Au       1         10.947489                              0.052511
      39     Au       1         10.947952                              0.052048
      40     Au       1         10.987694                              0.012306
      41     Au       1         10.947724                              0.052276
      42     Au       1         10.948176                              0.051824
      43     Au       1         11.017657                             -0.017657
      44     Au       1         10.986943                              0.013057
      45     Au       1         10.987456                              0.012544
      46     Au       1         11.085072                             -0.085072
      47     Au       1         11.029817                             -0.029817
      48     Au       1         11.085285                             -0.085285
      49     Au       1         11.029833                             -0.029833
      50     Au       1         10.882899                              0.117101
      51     Au       1         11.030289                             -0.030289
      52     Au       1         11.085178                             -0.085178
      53     Au       1         11.029790                             -0.029790
      54     Au       1         11.085286                             -0.085286
      55     Au       1         11.016170                             -0.016170
      56     Au       1         11.015437                             -0.015437
      57     Au       1         11.015881                             -0.015881
      58     Au       1         11.015171                             -0.015171
      59     Au       1         11.118029                             -0.118029
      60     Au       1         11.055473                             -0.055473
      61     H        2          0.951785                              0.048215
      62     H        2          0.959239                              0.040761
      63     Au       1         11.071528                             -0.071528
      64     Au       1         11.174143                             -0.174143
      65     Au       1         11.003558                             -0.003558
      66     Au       1         11.003608                             -0.003608
      67     Au       1         11.003967                             -0.003967
      68     Au       1         11.004003                             -0.004003
      69     Au       1         11.028634                             -0.028634
      70     Au       1         10.987556                              0.012444
      71     Au       1         11.028998                             -0.028998
      72     Au       1         10.987835                              0.012165
      73     Au       1         10.871150                              0.128850
      74     Au       1         10.988198                              0.011802
      75     Au       1         11.028955                             -0.028955
      76     Au       1         10.987895                              0.012105
      77     Au       1         11.029109                             -0.029109
      78     Au       1         10.999981                              0.000019
      79     Au       1         10.986849                              0.013151
      80     Au       1         10.999962                              0.000038
      81     Au       1         10.999681                              0.000319
      82     Au       1         11.000063                             -0.000063
      83     Au       1         10.987305                              0.012695
      84     Au       1         11.000027                             -0.000027
      85     Au       1         10.999927                              0.000073
      86     Au       1         11.023598                             -0.023598
      87     Au       1         10.986935                              0.013065
      88     Au       1         10.999926                              0.000074
      89     Au       1         10.999865                              0.000135
      90     Au       1         10.965835                              0.034165
      91     Au       1         10.987255                              0.012745
      92     Au       1         10.999670                              0.000330
      93     Au       1         10.999880                              0.000120
      94     Au       1         10.965842                              0.034158
      95     Au       1         10.991992                              0.008008
      96     Au       1         10.999732                              0.000268
      97     Au       1         11.000127                             -0.000127
      98     Au       1         10.999562                              0.000438
      99     Au       1         10.987421                              0.012579
     100     Au       1         10.999538                              0.000462
     101     Au       1         11.000063                             -0.000063
     102     Au       1         10.966145                              0.033855
     103     Au       1         10.987148                              0.012852
     104     Au       1         10.999956                              0.000044
     105     Au       1         10.999984                              0.000016
     106     Au       1         10.966163                              0.033837
     107     Au       1         10.987602                              0.012398
     108     Au       1         11.000018                             -0.000018
     109     Au       1         11.000230                             -0.000230
     110     Au       1         10.999875                              0.000125
     111     Au       1         10.987230                              0.012770
     112     Au       1         10.999825                              0.000175
     113     Au       1         11.000167                             -0.000167
 # Total charge                           1222.959324                  0.040676

 !-----------------------------------------------------------------------------!

 !-----------------------------------------------------------------------------!
                           Hirshfeld Charges

  #Atom  Element  Kind  Ref Charge     Population                    Net charge
      1       Au     1      11.000         11.000                        -0.000
      2       Au     1      11.000         11.000                         0.000
      3       Au     1      11.000         10.999                         0.001
      4       Au     1      11.000         10.991                         0.009
      5       Au     1      11.000         11.000                        -0.000
      6       Au     1      11.000         11.000                         0.000
      7       Au     1      11.000         10.999                         0.001
      8       Au     1      11.000         10.995                         0.005
      9       Au     1      11.000         11.000                         0.000
     10       Au     1      11.000         11.000                         0.000
     11       Au     1      11.000         11.000                         0.000
     12       Au     1      11.000         10.991                         0.009
     13       Au     1      11.000         11.000                         0.000
     14       Au     1      11.000         11.000                         0.000
     15       Au     1      11.000         10.999                         0.001
     16       Au     1      11.000         10.995                         0.005
     17       Au     1      11.000         11.000                         0.000
     18       Au     1      11.000         11.000                        -0.000
     19       Au     1      11.000         10.999                         0.001
     20       Au     1      11.000         10.992                         0.008
     21       Au     1      11.000         11.000                         0.000
     22       Au     1      11.000         11.000                        -0.000
     23       Au     1      11.000         10.999                         0.001
     24       Au     1      11.000         10.995                         0.005
     25       Au     1      11.000         11.000                        -0.000
     26       Au     1      11.000         11.000                         0.000
     27       Au     1      11.000         10.999                         0.001
     28       Au     1      11.000         10.991                         0.009
     29       Au     1      11.000         11.000                        -0.000
     30       Au     1      11.000         11.000                        -0.000
     31       Au     1      11.000         10.999                         0.001
     32       Au     1      11.000         10.995                         0.005
     33       Au     1      11.000         11.000                         0.000
     34       Au     1      11.000         11.000                        -0.000
     35       Au     1      11.000         10.999                         0.001
     36       Au     1      11.000         10.991                         0.009
     37       Au     1      11.000         10.993                         0.007
     38       Au     1      11.000         10.997                         0.003
     39       Au     1      11.000         10.998                         0.002
     40       Au     1      11.000         10.993                         0.007
     41       Au     1      11.000         10.998                         0.002
     42       Au     1      11.000         10.998                         0.002
     43       Au     1      11.000         10.994                         0.006
     44       Au     1      11.000         10.993                         0.007
     45       Au     1      11.000         10.993                         0.007
     46       Au     1      11.000         11.035                        -0.035
     47       Au     1      11.000         11.010                        -0.010
     48       Au     1      11.000         11.035                        -0.035
     49       Au     1      11.000         11.010                        -0.010
     50       Au     1      11.000         10.976                         0.024
     51       Au     1      11.000         11.010                        -0.010
     52       Au     1      11.000         11.035                        -0.035
     53       Au     1      11.000         11.010                        -0.010
     54       Au     1      11.000         11.035                        -0.035
     55       Au     1      11.000         10.986                         0.014
     56       Au     1      11.000         10.985                         0.015
     57       Au     1      11.000         10.986                         0.014
     58       Au     1      11.000         10.985                         0.015
     59       Au     1      11.000         11.020                        -0.020
     60       Au     1      11.000         10.981                         0.019
     61       H      2       1.000          1.042                        -0.042
     62       H      2       1.000          1.051                        -0.051
     63       Au     1      11.000         10.987                         0.013
     64       Au     1      11.000         11.056                        -0.056
     65       Au     1      11.000         10.971                         0.029
     66       Au     1      11.000         10.971                         0.029
     67       Au     1      11.000         10.971                         0.029
     68       Au     1      11.000         10.971                         0.029
     69       Au     1      11.000         11.031                        -0.031
     70       Au     1      11.000         11.012                        -0.012
     71       Au     1      11.000         11.031                        -0.031
     72       Au     1      11.000         11.012                        -0.012
     73       Au     1      11.000         10.975                         0.025
     74       Au     1      11.000         11.012                        -0.012
     75       Au     1      11.000         11.031                        -0.031
     76       Au     1      11.000         11.012                        -0.012
     77       Au     1      11.000         11.031                        -0.031
     78       Au     1      11.000         10.980                         0.020
     79       Au     1      11.000         10.998                         0.002
     80       Au     1      11.000         11.000                        -0.000
     81       Au     1      11.000         11.000                         0.000
     82       Au     1      11.000         10.979                         0.021
     83       Au     1      11.000         10.998                         0.002
     84       Au     1      11.000         11.000                        -0.000
     85       Au     1      11.000         11.000                         0.000
     86       Au     1      11.000         10.982                         0.018
     87       Au     1      11.000         10.998                         0.002
     88       Au     1      11.000         11.000                         0.000
     89       Au     1      11.000         11.000                         0.000
     90       Au     1      11.000         10.982                         0.018
     91       Au     1      11.000         10.998                         0.002
     92       Au     1      11.000         11.000                         0.000
     93       Au     1      11.000         11.000                         0.000
     94       Au     1      11.000         10.982                         0.018
     95       Au     1      11.000         10.999                         0.001
     96       Au     1      11.000         11.000                         0.000
     97       Au     1      11.000         11.000                        -0.000
     98       Au     1      11.000         10.979                         0.021
     99       Au     1      11.000         10.998                         0.002
    100       Au     1      11.000         11.000                         0.000
    101       Au     1      11.000         11.000                        -0.000
    102       Au     1      11.000         10.982                         0.018
    103       Au     1      11.000         10.998                         0.002
    104       Au     1      11.000         11.000                        -0.000
    105       Au     1      11.000         11.000                         0.000
    106       Au     1      11.000         10.982                         0.018
    107       Au     1      11.000         10.998                         0.002
    108       Au     1      11.000         11.000                        -0.000
    109       Au     1      11.000         11.000                        -0.000
    110       Au     1      11.000         10.979                         0.021
    111       Au     1      11.000         10.998                         0.002
    112       Au     1      11.000         11.000                         0.000
    113       Au     1      11.000         11.000                        -0.000

  Total Charge                                                            0.041
 !-----------------------------------------------------------------------------!
 Calculating transmission coefficient
 SMEAGOL DEBUG| Number of electrons in the unit cell =      1222.9593238729

 ENERGY| Total FORCE_EVAL ( QS ) energy [a.u.]:            -3690.586234950163089

 ATOMIC FORCES in [a.u.]

 # Atom   Kind   Element          X              Y              Z
      1      1      Au          0.00000000     0.00000000     0.00000000
      2      1      Au          0.00000000     0.00000000     0.00000000
      3      1      Au          0.00000000     0.00000000     0.00000000
      4      1      Au          0.00000000     0.00000000     0.00000000
      5      1      Au          0.00000000     0.00000000     0.00000000
      6      1      Au          0.00000000     0.00000000     0.00000000
      7      1      Au          0.00000000     0.00000000     0.00000000
      8      1      Au          0.00000000     0.00000000     0.00000000
      9      1      Au          0.00000000     0.00000000     0.00000000
     10      1      Au          0.00000000     0.00000000     0.00000000
     11      1      Au          0.00000000     0.00000000     0.00000000
     12      1      Au          0.00000000     0.00000000     0.00000000
     13      1      Au          0.00000000     0.00000000     0.00000000
     14      1      Au          0.00000000     0.00000000     0.00000000
     15      1      Au          0.00000000     0.00000000     0.00000000
     16      1      Au          0.00000000     0.00000000     0.00000000
     17      1      Au          0.00000000     0.00000000     0.00000000
     18      1      Au          0.00000000     0.00000000     0.00000000
     19      1      Au          0.00000000     0.00000000     0.00000000
     20      1      Au          0.00000000     0.00000000     0.00000000
     21      1      Au          0.00000000     0.00000000     0.00000000
     22      1      Au          0.00000000     0.00000000     0.00000000
     23      1      Au          0.00000000     0.00000000     0.00000000
     24      1      Au          0.00000000     0.00000000     0.00000000
     25      1      Au          0.00000000     0.00000000     0.00000000
     26      1      Au          0.00000000     0.00000000     0.00000000
     27      1      Au          0.00000000     0.00000000     0.00000000
     28      1      Au          0.00000000     0.00000000     0.00000000
     29      1      Au          0.00000000     0.00000000     0.00000000
     30      1      Au          0.00000000     0.00000000     0.00000000
     31      1      Au          0.00000000     0.00000000     0.00000000
     32      1      Au          0.00000000     0.00000000     0.00000000
     33      1      Au          0.00000000     0.00000000     0.00000000
     34      1      Au          0.00000000     0.00000000     0.00000000
     35      1      Au          0.00000000     0.00000000     0.00000000
     36      1      Au          0.00000000     0.00000000     0.00000000
     37      1      Au          0.00000000     0.00000000     0.00000000
     38      1      Au          0.00000000     0.00000000     0.00000000
     39      1      Au          0.00000000     0.00000000     0.00000000
     40      1      Au          0.00000000     0.00000000     0.00000000
[...]
     63       Au     1      11.000         10.987                         0.013
     64       Au     1      11.000         11.068                        -0.068
     65       Au     1      11.000         10.970                         0.030
     66       Au     1      11.000         10.970                         0.030
     67       Au     1      11.000         10.970                         0.030
     68       Au     1      11.000         10.970                         0.030
     69       Au     1      11.000         11.031                        -0.031
     70       Au     1      11.000         11.012                        -0.012
     71       Au     1      11.000         11.031                        -0.031
     72       Au     1      11.000         11.012                        -0.012
     73       Au     1      11.000         10.974                         0.026
     74       Au     1      11.000         11.012                        -0.012
     75       Au     1      11.000         11.031                        -0.031
     76       Au     1      11.000         11.012                        -0.012
     77       Au     1      11.000         11.031                        -0.031
     78       Au     1      11.000         10.979                         0.021
     79       Au     1      11.000         10.998                         0.002
     80       Au     1      11.000         11.000                        -0.000
     81       Au     1      11.000         11.000                         0.000
     82       Au     1      11.000         10.979                         0.021
     83       Au     1      11.000         10.998                         0.002
     84       Au     1      11.000         11.000                        -0.000
     85       Au     1      11.000         11.000                         0.000
     86       Au     1      11.000         10.982                         0.018
     87       Au     1      11.000         10.998                         0.002
     88       Au     1      11.000         11.000                         0.000
     89       Au     1      11.000         11.000                         0.000
     90       Au     1      11.000         10.982                         0.018
     91       Au     1      11.000         10.998                         0.002
     92       Au     1      11.000         11.000                         0.000
     93       Au     1      11.000         11.000                         0.000
     94       Au     1      11.000         10.982                         0.018
     95       Au     1      11.000         10.999                         0.001
     96       Au     1      11.000         11.000                         0.000
     97       Au     1      11.000         11.000                        -0.000
     98       Au     1      11.000         10.979                         0.021
     99       Au     1      11.000         10.998                         0.002
    100       Au     1      11.000         11.000                         0.000
    101       Au     1      11.000         11.000                        -0.000
    102       Au     1      11.000         10.982                         0.018
    103       Au     1      11.000         10.998                         0.002
    104       Au     1      11.000         11.000                        -0.000
    105       Au     1      11.000         11.000                         0.000
    106       Au     1      11.000         10.982                         0.018
    107       Au     1      11.000         10.998                         0.002
    108       Au     1      11.000         11.000                        -0.000
    109       Au     1      11.000         11.000                        -0.000
    110       Au     1      11.000         10.979                         0.021
    111       Au     1      11.000         10.998                         0.002
    112       Au     1      11.000         11.000                         0.000
    113       Au     1      11.000         11.000                        -0.000

  Total Charge                                                            0.041
 !-----------------------------------------------------------------------------!
 Calculating transmission coefficient
 SMEAGOL DEBUG| Number of electrons in the unit cell =      1222.9590947848

 ENERGY| Total FORCE_EVAL ( QS ) energy [a.u.]:            -3690.583563977104859

 ATOMIC FORCES in [a.u.]

 # Atom   Kind   Element          X              Y              Z
      1      1      Au          0.00000000     0.00000000     0.00000000
      2      1      Au          0.00000000     0.00000000     0.00000000
      3      1      Au          0.00000000     0.00000000     0.00000000
      4      1      Au          0.00000000     0.00000000     0.00000000
      5      1      Au          0.00000000     0.00000000     0.00000000
      6      1      Au          0.00000000     0.00000000     0.00000000
      7      1      Au          0.00000000     0.00000000     0.00000000
      8      1      Au          0.00000000     0.00000000     0.00000000
      9      1      Au          0.00000000     0.00000000     0.00000000
     10      1      Au          0.00000000     0.00000000     0.00000000
     11      1      Au          0.00000000     0.00000000     0.00000000
     12      1      Au          0.00000000     0.00000000     0.00000000
     13      1      Au          0.00000000     0.00000000     0.00000000
     14      1      Au          0.00000000     0.00000000     0.00000000
     15      1      Au          0.00000000     0.00000000     0.00000000
     16      1      Au          0.00000000     0.00000000     0.00000000
     17      1      Au          0.00000000     0.00000000     0.00000000
     18      1      Au          0.00000000     0.00000000     0.00000000
     19      1      Au          0.00000000     0.00000000     0.00000000
     20      1      Au          0.00000000     0.00000000     0.00000000
     21      1      Au          0.00000000     0.00000000     0.00000000
     22      1      Au          0.00000000     0.00000000     0.00000000
     23      1      Au          0.00000000     0.00000000     0.00000000
     24      1      Au          0.00000000     0.00000000     0.00000000
     25      1      Au          0.00000000     0.00000000     0.00000000
     26      1      Au          0.00000000     0.00000000     0.00000000
     27      1      Au          0.00000000     0.00000000     0.00000000
     28      1      Au          0.00000000     0.00000000     0.00000000
     29      1      Au          0.00000000     0.00000000     0.00000000
     30      1      Au          0.00000000     0.00000000     0.00000000
     31      1      Au          0.00000000     0.00000000     0.00000000
     32      1      Au          0.00000000     0.00000000     0.00000000
     33      1      Au          0.00000000     0.00000000     0.00000000
     34      1      Au          0.00000000     0.00000000     0.00000000
     35      1      Au          0.00000000     0.00000000     0.00000000
     36      1      Au          0.00000000     0.00000000     0.00000000
     37      1      Au          0.00000000     0.00000000     0.00000000
     38      1      Au          0.00000000     0.00000000     0.00000000
     39      1      Au          0.00000000     0.00000000     0.00000000
     40      1      Au          0.00000000     0.00000000     0.00000000
     41      1      Au          0.00000000     0.00000000     0.00000000
     42      1      Au          0.00000000     0.00000000     0.00000000
     43      1      Au          0.00000000     0.00000000     0.00000000
     44      1      Au          0.00000000     0.00000000     0.00000000
     45      1      Au          0.00000000     0.00000000     0.00000000
     46      1      Au          0.00000000     0.00000000     0.00000000
     47      1      Au          0.00000000     0.00000000     0.00000000
     48      1      Au          0.00000000     0.00000000     0.00000000
     49      1      Au          0.00000000     0.00000000     0.00000000
     50      1      Au          0.00000000     0.00000000     0.00000000
     51      1      Au          0.00000000     0.00000000     0.00000000
     52      1      Au          0.00000000     0.00000000     0.00000000
     53      1      Au          0.00000000     0.00000000     0.00000000
     54      1      Au          0.00000000     0.00000000     0.00000000
     55      1      Au          0.00000000     0.00000000     0.00000000
     56      1      Au          0.00000000     0.00000000     0.00000000
     57      1      Au          0.00000000     0.00000000     0.00000000
     58      1      Au          0.00000000     0.00000000     0.00000000
     59      1      Au         -0.00008293    -0.00021387    -0.00098742
     60      1      Au          0.00020702     0.00062407    -0.00025029
     61      2      H          -0.00003215    -0.00020683    -0.00255383
     62      2      H           0.00010134     0.00016310     0.00220032
     63      1      Au         -0.00013141    -0.00013147    -0.00047126
     64      1      Au         -0.00022868    -0.00007045     0.00162791
     65      1      Au          0.00000000     0.00000000     0.00000000
     66      1      Au          0.00000000     0.00000000     0.00000000
     67      1      Au          0.00000000     0.00000000     0.00000000
     68      1      Au          0.00000000     0.00000000     0.00000000
     69      1      Au          0.00000000     0.00000000     0.00000000
     70      1      Au          0.00000000     0.00000000     0.00000000
     71      1      Au          0.00000000     0.00000000     0.00000000
     72      1      Au          0.00000000     0.00000000     0.00000000
     73      1      Au          0.00000000     0.00000000     0.00000000
     74      1      Au          0.00000000     0.00000000     0.00000000
     75      1      Au          0.00000000     0.00000000     0.00000000
     76      1      Au          0.00000000     0.00000000     0.00000000
     77      1      Au          0.00000000     0.00000000     0.00000000
     78      1      Au          0.00000000     0.00000000     0.00000000
     79      1      Au          0.00000000     0.00000000     0.00000000
     80      1      Au          0.00000000     0.00000000     0.00000000
     81      1      Au          0.00000000     0.00000000     0.00000000
     82      1      Au          0.00000000     0.00000000     0.00000000
     83      1      Au          0.00000000     0.00000000     0.00000000
     84      1      Au          0.00000000     0.00000000     0.00000000
     85      1      Au          0.00000000     0.00000000     0.00000000
     86      1      Au          0.00000000     0.00000000     0.00000000
     87      1      Au          0.00000000     0.00000000     0.00000000
     88      1      Au          0.00000000     0.00000000     0.00000000
     89      1      Au          0.00000000     0.00000000     0.00000000
     90      1      Au          0.00000000     0.00000000     0.00000000
     91      1      Au          0.00000000     0.00000000     0.00000000
     92      1      Au          0.00000000     0.00000000     0.00000000
     93      1      Au          0.00000000     0.00000000     0.00000000
     94      1      Au          0.00000000     0.00000000     0.00000000
     95      1      Au          0.00000000     0.00000000     0.00000000
     96      1      Au          0.00000000     0.00000000     0.00000000
     97      1      Au          0.00000000     0.00000000     0.00000000
     98      1      Au          0.00000000     0.00000000     0.00000000
     99      1      Au          0.00000000     0.00000000     0.00000000
    100      1      Au          0.00000000     0.00000000     0.00000000
    101      1      Au          0.00000000     0.00000000     0.00000000
    102      1      Au          0.00000000     0.00000000     0.00000000
    103      1      Au          0.00000000     0.00000000     0.00000000
    104      1      Au          0.00000000     0.00000000     0.00000000
    105      1      Au          0.00000000     0.00000000     0.00000000
    106      1      Au          0.00000000     0.00000000     0.00000000
    107      1      Au          0.00000000     0.00000000     0.00000000
    108      1      Au          0.00000000     0.00000000     0.00000000
    109      1      Au          0.00000000     0.00000000     0.00000000
    110      1      Au          0.00000000     0.00000000     0.00000000
    111      1      Au          0.00000000     0.00000000     0.00000000
    112      1      Au          0.00000000     0.00000000     0.00000000
    113      1      Au          0.00000000     0.00000000     0.00000000
 SUM OF ATOMIC FORCES          -0.00016681     0.00016455    -0.00043457     0.00049371

 --------  Informations at step =    14 ------------
  Optimization Method        =                 BFGS
  Total Energy               =     -3690.5835639771
  Real energy change         =         0.0009253984
  Predicted change in energy =        -0.0006085708
  Scaling factor             =         0.6568046919
  Step size                  =         0.4290288593
  Trust radius               =         0.4724315332
  Decrease in energy         =                   NO
  Used time                  =             5742.583

  Convergence check :
  Max. step size             =         0.4290288593
  Conv. limit for step size  =         0.0010000000
  Convergence in step size   =                   NO
  RMS step size              =         0.0277503630
  Conv. limit for RMS step   =         0.0010000000
  Convergence in RMS step    =                   NO
  Max. gradient              =         0.0025538297
  Conv. limit for gradients  =         0.0001000000
  Conv. for gradients        =                   NO
  RMS gradient               =         0.0002167794
  Conv. limit for RMS grad.  =         0.0010000000
  Conv. in RMS gradients     =                  YES
 ---------------------------------------------------
 Estimated peak process memory after this step [MiB]                         956

 --------------------------
 OPTIMIZATION STEP:     15
 --------------------------

 Number of electrons:                                                       1223
 Number of occupied orbitals:                                                612
 Number of molecular orbitals:                                               712

 Number of orbital functions:                                               1009
 Number of independent orbital functions:                                   1009

 Extrapolation method: initial_guess


 SCF WAVEFUNCTION OPTIMIZATION

  Step     Update method      Time    Convergence         Total energy    Change
  ------------------------------------------------------------------------------
 SMEAGOL DEBUG| Number of electrons in the unit cell =      1222.9826488148
     1 Broy./SMGL  0.30E+00  102.1     1.68879462     -3690.6589300097 -3.69E+03
 SMEAGOL DEBUG| Number of electrons in the unit cell =      1223.2074990563
     2 Broy./SMGL  0.30E+00  100.1     8.57610821     -3688.0915610341  2.57E+00
 SMEAGOL DEBUG| Number of electrons in the unit cell =      1221.5185371364
     3 Broy./SMGL  0.30E+00   97.3     8.57145058     -3788.8476844280 -1.01E+02
 SMEAGOL DEBUG| Number of electrons in the unit cell =      1222.4747684940
     4 Broy./SMGL  0.30E+00   98.5     0.48171898     -3695.3751034587  9.35E+01
 SMEAGOL DEBUG| Number of electrons in the unit cell =      1223.1503897847
     5 Broy./SMGL  0.30E+00  104.0     0.12973055     -3683.7339040152  1.16E+01
 SMEAGOL DEBUG| Number of electrons in the unit cell =      1222.7847381193
     6 Broy./SMGL  0.30E+00  102.0     0.03816441     -3688.0572007992 -4.32E+00
 SMEAGOL DEBUG| Number of electrons in the unit cell =      1222.9064339121
     7 Broy./SMGL  0.30E+00   97.8     0.02474102     -3687.0531536104  1.00E+00
 SMEAGOL DEBUG| Number of electrons in the unit cell =      1223.0461159281
     8 Broy./SMGL  0.30E+00  101.4     0.01469720     -3687.9931766756 -9.40E-01
 SMEAGOL DEBUG| Number of electrons in the unit cell =      1223.1267690650
     9 Broy./SMGL  0.30E+00   98.1     0.00789460     -3688.6418578478 -6.49E-01
 SMEAGOL DEBUG| Number of electrons in the unit cell =      1223.1348136212
    10 Broy./SMGL  0.30E+00   99.5     0.00952596     -3689.3117560469 -6.70E-01
 SMEAGOL DEBUG| Number of electrons in the unit cell =      1223.1419048782
    11 Broy./SMGL  0.30E+00  101.8     0.00850429     -3689.3080195314  3.74E-03
 SMEAGOL DEBUG| Number of electrons in the unit cell =      1223.1054682092
    12 Broy./SMGL  0.30E+00   99.5     0.04069228     -3689.3028218564  5.20E-03
 SMEAGOL DEBUG| Number of electrons in the unit cell =      1223.0828229041
    13 Broy./SMGL  0.30E+00  100.2     0.01594530     -3690.9182041312 -1.62E+00
 SMEAGOL DEBUG| Number of electrons in the unit cell =      1223.0437991544
    14 Broy./SMGL  0.30E+00  100.8     0.01616284     -3690.6075377000  3.11E-01
 SMEAGOL DEBUG| Number of electrons in the unit cell =      1223.0018648670
    15 Broy./SMGL  0.30E+00   97.6     0.01287390     -3690.7206690038 -1.13E-01
 SMEAGOL DEBUG| Number of electrons in the unit cell =      1222.9750170938
    16 Broy./SMGL  0.30E+00   97.7     0.01289249     -3690.6022713322  1.18E-01
 SMEAGOL DEBUG| Number of electrons in the unit cell =      1222.9683283885
    17 Broy./SMGL  0.30E+00   96.7     0.01288408     -3690.5876797529  1.46E-02
 SMEAGOL DEBUG| Number of electrons in the unit cell =      1222.9665991892
    18 Broy./SMGL  0.30E+00   99.9     0.00350120     -3690.5981730904 -1.05E-02
 SMEAGOL DEBUG| Number of electrons in the unit cell =      1222.9610784655
    19 Broy./SMGL  0.30E+00  123.6     0.00349945     -3690.5943864710  3.79E-03
 SMEAGOL DEBUG| Number of electrons in the unit cell =      1222.9594868786
    20 Broy./SMGL  0.30E+00  106.7     0.00318044     -3690.5848318870  9.55E-03
 SMEAGOL DEBUG| Number of electrons in the unit cell =      1222.9594730491
    21 Broy./SMGL  0.30E+00   99.2     0.00348016     -3690.5810978909  3.73E-03
 SMEAGOL DEBUG| Number of electrons in the unit cell =      1222.9585122854
    22 Broy./SMGL  0.30E+00   95.9     0.00348479     -3690.5925573218 -1.15E-02
 SMEAGOL DEBUG| Number of electrons in the unit cell =      1222.9578349777
    23 Broy./SMGL  0.30E+00  101.1     0.00249884     -3690.5822718710  1.03E-02
 SMEAGOL DEBUG| Number of electrons in the unit cell =      1222.9580767184
    24 Broy./SMGL  0.30E+00  103.3     0.00282089     -3690.5843586427 -2.09E-03
 SMEAGOL DEBUG| Number of electrons in the unit cell =      1222.9574828693
    25 Broy./SMGL  0.30E+00   97.1     0.00282086     -3690.5858136060 -1.45E-03
 SMEAGOL DEBUG| Number of electrons in the unit cell =      1222.9580223307
    26 Broy./SMGL  0.30E+00   97.5     0.00282073     -3690.5832084135  2.61E-03
 SMEAGOL DEBUG| Number of electrons in the unit cell =      1222.9584249583
    27 Broy./SMGL  0.30E+00  103.7     0.00173468     -3690.5826612191  5.47E-04
 SMEAGOL DEBUG| Number of electrons in the unit cell =      1222.9589361846
    28 Broy./SMGL  0.30E+00   99.7     0.00173464     -3690.5834576182 -7.96E-04
 SMEAGOL DEBUG| Number of electrons in the unit cell =      1222.9590745499
    29 Broy./SMGL  0.30E+00  119.4     0.00001457     -3690.5834970005 -3.94E-05
 SMEAGOL DEBUG| Number of electrons in the unit cell =      1222.9591583740
    30 Broy./SMGL  0.30E+00  103.8     0.00173461     -3690.5835453499 -4.83E-05
 SMEAGOL DEBUG| Number of electrons in the unit cell =      1222.9591662445
    31 Broy./SMGL  0.30E+00  108.4     0.00173461     -3690.5834786597  6.67E-05
 SMEAGOL DEBUG| Number of electrons in the unit cell =      1222.9591949121
    32 Broy./SMGL  0.30E+00  101.6     0.00173459     -3690.5835001305 -2.15E-05
 SMEAGOL DEBUG| Number of electrons in the unit cell =      1222.9592027497
