 DBCSR| CPU Multiplication driver                                           XSMM
 DBCSR| Multrec recursion limit                                              512
 DBCSR| Multiplication stack size                                           1000
 DBCSR| Maximum elements for images                                    UNLIMITED
 DBCSR| Multiplicative factor virtual images                                   1
 DBCSR| Use multiplication densification                                       T
 DBCSR| Multiplication size stacks                                             3
 DBCSR| Use memory pool for CPU allocation                                     F
 DBCSR| Number of 3D layers                                               SINGLE
 DBCSR| Use MPI memory allocation                                              F
 DBCSR| Use RMA algorithm                                                      F
 DBCSR| Use Communication thread                                               T
 DBCSR| Communication thread load                                             87
 DBCSR| MPI: My node id                                                        0
 DBCSR| MPI: Number of nodes                                                  96
 DBCSR| OMP: Current number of threads                                         1
 DBCSR| OMP: Max number of threads                                             1
 DBCSR| Split modifier for TAS multiplication algorithm                  1.0E+00


  **** **** ******  **  PROGRAM STARTED AT               2022-10-24 15:11:12.421
 ***** ** ***  *** **   PROGRAM STARTED ON                 cn1068.scarf.rl.ac.uk
 **    ****   ******    PROGRAM STARTED BY                             scarf1157
 ***** **    ** ** **   PROGRAM PROCESS ID                                  5039
  **** **  *******  **  PROGRAM STARTED IN /work4/scd/scarf1157/work/testing/cp2
                                           k-smeagol/bdt/cp2k/bulk/convergence/K
                                           points/Kpoints_8

 CP2K| version string:                 CP2K version 2022.1 (Development Version)
 CP2K| source code revision number:                                  git:8c0411e
 CP2K| cp2kflags: omp libint fftw3 libxc parallel mpi3 scalapack cosma xsmm spgl
 CP2K|            ib sirius libvori libbqb libvdwxc
 CP2K| is freely available from                            https://www.cp2k.org/
 CP2K| Program compiled at                          Thu  6 Oct 11:48:07 BST 2022
 CP2K| Program compiled on                                 cn1065.scarf.rl.ac.uk
 CP2K| Program compiled for                                                local
 CP2K| Data directory path     /home/vol07/scarf1157/code/cp2k/scarf21/cp2k/data
 CP2K| Input file name                                                 input.inp

 GLOBAL| Force Environment number                                              1
 GLOBAL| Basis set file name                                        BASIS_MOLOPT
 GLOBAL| Potential file name                                      GTH_POTENTIALS
 GLOBAL| MM Potential file name                                     MM_POTENTIAL
 GLOBAL| Coordinate file name                                      unit_cell.xyz
 GLOBAL| Method name                                                        CP2K
 GLOBAL| Project name                                                    dft_wfn
 GLOBAL| Run type                                                         ENERGY
 GLOBAL| FFT library                                                       FFTW3
 GLOBAL| Diagonalization library                                       ScaLAPACK
 GLOBAL| DGEMM library                                                      BLAS
 GLOBAL| Orthonormality check for eigenvectors                          DISABLED
 GLOBAL| Matrix multiplication library                                     COSMA
 GLOBAL| All-to-all communication in single precision                          F
 GLOBAL| FFTs using library dependent lengths                                  T
 GLOBAL| Grid backend                                                       AUTO
 GLOBAL| Global print level                                               MEDIUM
 GLOBAL| MPI I/O enabled                                                       T
 GLOBAL| Total number of message passing processes                            96
 GLOBAL| Number of threads for this process                                    1
 GLOBAL| This output is from process                                           0
 GLOBAL| Stack size for threads created by OpenMP (OMP_STACKSIZE)        default
 GLOBAL| CPU model name                         AMD EPYC 7502P 32-Core Processor
 GLOBAL| CPUID                                                              1002
 GLOBAL| Compiled for CPUID                                                    0

 *** HINT in environment.F:884 :: The compiler target flags (generic) used ***
 *** to build this binary cannot exploit all extensions of this CPU model  ***
 *** (x86_avx2). Consider compiler target flags as part of FCFLAGS and     ***
 *** CFLAGS (ARCH file).                                                   ***


 MEMORY| system memory details [Kb]
 MEMORY|                        rank 0           min           max       average
 MEMORY| MemTotal            263897156     263897156     263897156     263897156
 MEMORY| MemFree             220727784     206945832     220727784     212898426
 MEMORY| Buffers                  2560          2560          2564          2561
 MEMORY| Cached               23462588      23462588      40763000      33633700
 MEMORY| Slab                  1352340       1352340       1391564       1369430
 MEMORY| SReclaimable           764544        764544        792192        779218
 MEMORY| MemLikelyFree       244957476     244957476     248492312     247313906


 *** Fundamental physical constants (SI units) ***

 *** Literature: B. J. Mohr and B. N. Taylor,
 ***             CODATA recommended values of the fundamental physical
 ***             constants: 2006, Web Version 5.1
 ***             http://physics.nist.gov/constants

 Speed of light in vacuum [m/s]                             2.99792458000000E+08
 Magnetic constant or permeability of vacuum [N/A**2]       1.25663706143592E-06
 Electric constant or permittivity of vacuum [F/m]          8.85418781762039E-12
 Planck constant (h) [J*s]                                  6.62606896000000E-34
 Planck constant (h-bar) [J*s]                              1.05457162825177E-34
 Elementary charge [C]                                      1.60217648700000E-19
 Electron mass [kg]                                         9.10938215000000E-31
 Electron g factor [ ]                                     -2.00231930436220E+00
 Proton mass [kg]                                           1.67262163700000E-27
 Fine-structure constant                                    7.29735253760000E-03
 Rydberg constant [1/m]                                     1.09737315685270E+07
 Avogadro constant [1/mol]                                  6.02214179000000E+23
 Boltzmann constant [J/K]                                   1.38065040000000E-23
 Atomic mass unit [kg]                                      1.66053878200000E-27
 Bohr radius [m]                                            5.29177208590000E-11

 *** Conversion factors ***

 [u] -> [a.u.]                                              1.82288848426455E+03
 [Angstrom] -> [Bohr] = [a.u.]                              1.88972613288564E+00
 [a.u.] = [Bohr] -> [Angstrom]                              5.29177208590000E-01
 [a.u.] -> [s]                                              2.41888432650478E-17
 [a.u.] -> [fs]                                             2.41888432650478E-02
 [a.u.] -> [J]                                              4.35974393937059E-18
 [a.u.] -> [N]                                              8.23872205491840E-08
 [a.u.] -> [K]                                              3.15774647902944E+05
 [a.u.] -> [kJ/mol]                                         2.62549961709828E+03
 [a.u.] -> [kcal/mol]                                       6.27509468713739E+02
 [a.u.] -> [Pa]                                             2.94210107994716E+13
 [a.u.] -> [bar]                                            2.94210107994716E+08
 [a.u.] -> [atm]                                            2.90362800883016E+08
 [a.u.] -> [eV]                                             2.72113838565563E+01
 [a.u.] -> [Hz]                                             6.57968392072181E+15
 [a.u.] -> [1/cm] (wave numbers)                            2.19474631370540E+05
 [a.u./Bohr**2] -> [1/cm]                                   5.14048714338585E+03
 

 CELL_TOP| Volume [angstrom^3]:                                        72.579029
 CELL_TOP| Vector a [angstrom     4.171     0.000     0.000   |a| =     4.171290
 CELL_TOP| Vector b [angstrom     0.000     4.171     0.000   |b| =     4.171290
 CELL_TOP| Vector c [angstrom     0.000     0.000     4.171   |c| =     4.171290
 CELL_TOP| Angle (b,c), alpha [degree]:                                90.000000
 CELL_TOP| Angle (a,c), beta  [degree]:                                90.000000
 CELL_TOP| Angle (a,b), gamma [degree]:                                90.000000
 CELL_TOP| Numerically orthorhombic:                                         YES
 CELL_TOP| Periodicity                                                       XYZ

 GENERATE|  Preliminary Number of Bonds generated:                             0
 GENERATE|  Achieved consistency in connectivity generation.

 CELL| Volume [angstrom^3]:                                            72.579029
 CELL| Vector a [angstrom]:       4.171     0.000     0.000   |a| =     4.171290
 CELL| Vector b [angstrom]:       0.000     4.171     0.000   |b| =     4.171290
 CELL| Vector c [angstrom]:       0.000     0.000     4.171   |c| =     4.171290
 CELL| Angle (b,c), alpha [degree]:                                    90.000000
 CELL| Angle (a,c), beta  [degree]:                                    90.000000
 CELL| Angle (a,b), gamma [degree]:                                    90.000000
 CELL| Numerically orthorhombic:                                             YES
 CELL| Periodicity                                                           XYZ

 CELL_REF| Volume [angstrom^3]:                                        72.579029
 CELL_REF| Vector a [angstrom     4.171     0.000     0.000   |a| =     4.171290
 CELL_REF| Vector b [angstrom     0.000     4.171     0.000   |b| =     4.171290
 CELL_REF| Vector c [angstrom     0.000     0.000     4.171   |c| =     4.171290
 CELL_REF| Angle (b,c), alpha [degree]:                                90.000000
 CELL_REF| Angle (a,c), beta  [degree]:                                90.000000
 CELL_REF| Angle (a,b), gamma [degree]:                                90.000000
 CELL_REF| Numerically orthorhombic:                                         YES
 CELL_REF| Periodicity                                                       XYZ

 *******************************************************************************
                                    Kpoints
 *******************************************************************************
 BRILLOUIN| K-point scheme                                        Monkhorst-Pack
 BRILLOUIN| K-Point grid                                             8    8    8
 BRILLOUIN| Accuracy in Symmetry determination                      0.100000E-07
 BRILLOUIN| K-Point point group symmetrization                               OFF
 BRILLOUIN| Wavefunction type                                            COMPLEX
 BRILLOUIN| Use full k-point grid     
 BRILLOUIN| List of Kpoints [2 Pi/Bohr]                                      512
 BRILLOUIN| Number           Weight            X              Y              Z
 BRILLOUIN|     1           0.00195       -0.43750       -0.43750       -0.43750
 BRILLOUIN|     2           0.00195       -0.43750       -0.43750       -0.31250
 BRILLOUIN|     3           0.00195       -0.43750       -0.43750       -0.18750
 BRILLOUIN|     4           0.00195       -0.43750       -0.43750       -0.06250
 BRILLOUIN|     5           0.00195       -0.43750       -0.43750        0.06250
 BRILLOUIN|     6           0.00195       -0.43750       -0.43750        0.18750
 BRILLOUIN|     7           0.00195       -0.43750       -0.43750        0.31250
 BRILLOUIN|     8           0.00195       -0.43750       -0.43750        0.43750
 BRILLOUIN|     9           0.00195       -0.43750       -0.31250       -0.43750
 BRILLOUIN|    10           0.00195       -0.43750       -0.31250       -0.31250
 BRILLOUIN|    11           0.00195       -0.43750       -0.31250       -0.18750
 BRILLOUIN|    12           0.00195       -0.43750       -0.31250       -0.06250
 BRILLOUIN|    13           0.00195       -0.43750       -0.31250        0.06250
 BRILLOUIN|    14           0.00195       -0.43750       -0.31250        0.18750
 BRILLOUIN|    15           0.00195       -0.43750       -0.31250        0.31250
 BRILLOUIN|    16           0.00195       -0.43750       -0.31250        0.43750
 BRILLOUIN|    17           0.00195       -0.43750       -0.18750       -0.43750
 BRILLOUIN|    18           0.00195       -0.43750       -0.18750       -0.31250
 BRILLOUIN|    19           0.00195       -0.43750       -0.18750       -0.18750
 BRILLOUIN|    20           0.00195       -0.43750       -0.18750       -0.06250
 BRILLOUIN|    21           0.00195       -0.43750       -0.18750        0.06250
 BRILLOUIN|    22           0.00195       -0.43750       -0.18750        0.18750
 BRILLOUIN|    23           0.00195       -0.43750       -0.18750        0.31250
 BRILLOUIN|    24           0.00195       -0.43750       -0.18750        0.43750
 BRILLOUIN|    25           0.00195       -0.43750       -0.06250       -0.43750
 BRILLOUIN|    26           0.00195       -0.43750       -0.06250       -0.31250
 BRILLOUIN|    27           0.00195       -0.43750       -0.06250       -0.18750
 BRILLOUIN|    28           0.00195       -0.43750       -0.06250       -0.06250
 BRILLOUIN|    29           0.00195       -0.43750       -0.06250        0.06250
 BRILLOUIN|    30           0.00195       -0.43750       -0.06250        0.18750
 BRILLOUIN|    31           0.00195       -0.43750       -0.06250        0.31250
 BRILLOUIN|    32           0.00195       -0.43750       -0.06250        0.43750
 BRILLOUIN|    33           0.00195       -0.43750        0.06250       -0.43750
 BRILLOUIN|    34           0.00195       -0.43750        0.06250       -0.31250
 BRILLOUIN|    35           0.00195       -0.43750        0.06250       -0.18750
 BRILLOUIN|    36           0.00195       -0.43750        0.06250       -0.06250
 BRILLOUIN|    37           0.00195       -0.43750        0.06250        0.06250
 BRILLOUIN|    38           0.00195       -0.43750        0.06250        0.18750
 BRILLOUIN|    39           0.00195       -0.43750        0.06250        0.31250
 BRILLOUIN|    40           0.00195       -0.43750        0.06250        0.43750
 BRILLOUIN|    41           0.00195       -0.43750        0.18750       -0.43750
 BRILLOUIN|    42           0.00195       -0.43750        0.18750       -0.31250
 BRILLOUIN|    43           0.00195       -0.43750        0.18750       -0.18750
 BRILLOUIN|    44           0.00195       -0.43750        0.18750       -0.06250
 BRILLOUIN|    45           0.00195       -0.43750        0.18750        0.06250
 BRILLOUIN|    46           0.00195       -0.43750        0.18750        0.18750
 BRILLOUIN|    47           0.00195       -0.43750        0.18750        0.31250
 BRILLOUIN|    48           0.00195       -0.43750        0.18750        0.43750
 BRILLOUIN|    49           0.00195       -0.43750        0.31250       -0.43750
 BRILLOUIN|    50           0.00195       -0.43750        0.31250       -0.31250
 BRILLOUIN|    51           0.00195       -0.43750        0.31250       -0.18750
 BRILLOUIN|    52           0.00195       -0.43750        0.31250       -0.06250
 BRILLOUIN|    53           0.00195       -0.43750        0.31250        0.06250
 BRILLOUIN|    54           0.00195       -0.43750        0.31250        0.18750
 BRILLOUIN|    55           0.00195       -0.43750        0.31250        0.31250
 BRILLOUIN|    56           0.00195       -0.43750        0.31250        0.43750
 BRILLOUIN|    57           0.00195       -0.43750        0.43750       -0.43750
 BRILLOUIN|    58           0.00195       -0.43750        0.43750       -0.31250
 BRILLOUIN|    59           0.00195       -0.43750        0.43750       -0.18750
 BRILLOUIN|    60           0.00195       -0.43750        0.43750       -0.06250
 BRILLOUIN|    61           0.00195       -0.43750        0.43750        0.06250
 BRILLOUIN|    62           0.00195       -0.43750        0.43750        0.18750
 BRILLOUIN|    63           0.00195       -0.43750        0.43750        0.31250
 BRILLOUIN|    64           0.00195       -0.43750        0.43750        0.43750
 BRILLOUIN|    65           0.00195       -0.31250       -0.43750       -0.43750
 BRILLOUIN|    66           0.00195       -0.31250       -0.43750       -0.31250
 BRILLOUIN|    67           0.00195       -0.31250       -0.43750       -0.18750
 BRILLOUIN|    68           0.00195       -0.31250       -0.43750       -0.06250
 BRILLOUIN|    69           0.00195       -0.31250       -0.43750        0.06250
 BRILLOUIN|    70           0.00195       -0.31250       -0.43750        0.18750
 BRILLOUIN|    71           0.00195       -0.31250       -0.43750        0.31250
 BRILLOUIN|    72           0.00195       -0.31250       -0.43750        0.43750
 BRILLOUIN|    73           0.00195       -0.31250       -0.31250       -0.43750
 BRILLOUIN|    74           0.00195       -0.31250       -0.31250       -0.31250
 BRILLOUIN|    75           0.00195       -0.31250       -0.31250       -0.18750
 BRILLOUIN|    76           0.00195       -0.31250       -0.31250       -0.06250
 BRILLOUIN|    77           0.00195       -0.31250       -0.31250        0.06250
 BRILLOUIN|    78           0.00195       -0.31250       -0.31250        0.18750
 BRILLOUIN|    79           0.00195       -0.31250       -0.31250        0.31250
 BRILLOUIN|    80           0.00195       -0.31250       -0.31250        0.43750
 BRILLOUIN|    81           0.00195       -0.31250       -0.18750       -0.43750
 BRILLOUIN|    82           0.00195       -0.31250       -0.18750       -0.31250
 BRILLOUIN|    83           0.00195       -0.31250       -0.18750       -0.18750
 BRILLOUIN|    84           0.00195       -0.31250       -0.18750       -0.06250
 BRILLOUIN|    85           0.00195       -0.31250       -0.18750        0.06250
 BRILLOUIN|    86           0.00195       -0.31250       -0.18750        0.18750
 BRILLOUIN|    87           0.00195       -0.31250       -0.18750        0.31250
 BRILLOUIN|    88           0.00195       -0.31250       -0.18750        0.43750
 BRILLOUIN|    89           0.00195       -0.31250       -0.06250       -0.43750
 BRILLOUIN|    90           0.00195       -0.31250       -0.06250       -0.31250
 BRILLOUIN|    91           0.00195       -0.31250       -0.06250       -0.18750
 BRILLOUIN|    92           0.00195       -0.31250       -0.06250       -0.06250
 BRILLOUIN|    93           0.00195       -0.31250       -0.06250        0.06250
 BRILLOUIN|    94           0.00195       -0.31250       -0.06250        0.18750
 BRILLOUIN|    95           0.00195       -0.31250       -0.06250        0.31250
 BRILLOUIN|    96           0.00195       -0.31250       -0.06250        0.43750
 BRILLOUIN|    97           0.00195       -0.31250        0.06250       -0.43750
 BRILLOUIN|    98           0.00195       -0.31250        0.06250       -0.31250
 BRILLOUIN|    99           0.00195       -0.31250        0.06250       -0.18750
 BRILLOUIN|   100           0.00195       -0.31250        0.06250       -0.06250
 BRILLOUIN|   101           0.00195       -0.31250        0.06250        0.06250
 BRILLOUIN|   102           0.00195       -0.31250        0.06250        0.18750
 BRILLOUIN|   103           0.00195       -0.31250        0.06250        0.31250
 BRILLOUIN|   104           0.00195       -0.31250        0.06250        0.43750
 BRILLOUIN|   105           0.00195       -0.31250        0.18750       -0.43750
 BRILLOUIN|   106           0.00195       -0.31250        0.18750       -0.31250
 BRILLOUIN|   107           0.00195       -0.31250        0.18750       -0.18750
 BRILLOUIN|   108           0.00195       -0.31250        0.18750       -0.06250
 BRILLOUIN|   109           0.00195       -0.31250        0.18750        0.06250
 BRILLOUIN|   110           0.00195       -0.31250        0.18750        0.18750
 BRILLOUIN|   111           0.00195       -0.31250        0.18750        0.31250
 BRILLOUIN|   112           0.00195       -0.31250        0.18750        0.43750
 BRILLOUIN|   113           0.00195       -0.31250        0.31250       -0.43750
 BRILLOUIN|   114           0.00195       -0.31250        0.31250       -0.31250
 BRILLOUIN|   115           0.00195       -0.31250        0.31250       -0.18750
 BRILLOUIN|   116           0.00195       -0.31250        0.31250       -0.06250
 BRILLOUIN|   117           0.00195       -0.31250        0.31250        0.06250
 BRILLOUIN|   118           0.00195       -0.31250        0.31250        0.18750
 BRILLOUIN|   119           0.00195       -0.31250        0.31250        0.31250
 BRILLOUIN|   120           0.00195       -0.31250        0.31250        0.43750
 BRILLOUIN|   121           0.00195       -0.31250        0.43750       -0.43750
 BRILLOUIN|   122           0.00195       -0.31250        0.43750       -0.31250
 BRILLOUIN|   123           0.00195       -0.31250        0.43750       -0.18750
 BRILLOUIN|   124           0.00195       -0.31250        0.43750       -0.06250
 BRILLOUIN|   125           0.00195       -0.31250        0.43750        0.06250
 BRILLOUIN|   126           0.00195       -0.31250        0.43750        0.18750
 BRILLOUIN|   127           0.00195       -0.31250        0.43750        0.31250
 BRILLOUIN|   128           0.00195       -0.31250        0.43750        0.43750
 BRILLOUIN|   129           0.00195       -0.18750       -0.43750       -0.43750
 BRILLOUIN|   130           0.00195       -0.18750       -0.43750       -0.31250
 BRILLOUIN|   131           0.00195       -0.18750       -0.43750       -0.18750
 BRILLOUIN|   132           0.00195       -0.18750       -0.43750       -0.06250
 BRILLOUIN|   133           0.00195       -0.18750       -0.43750        0.06250
 BRILLOUIN|   134           0.00195       -0.18750       -0.43750        0.18750
 BRILLOUIN|   135           0.00195       -0.18750       -0.43750        0.31250
 BRILLOUIN|   136           0.00195       -0.18750       -0.43750        0.43750
 BRILLOUIN|   137           0.00195       -0.18750       -0.31250       -0.43750
 BRILLOUIN|   138           0.00195       -0.18750       -0.31250       -0.31250
 BRILLOUIN|   139           0.00195       -0.18750       -0.31250       -0.18750
 BRILLOUIN|   140           0.00195       -0.18750       -0.31250       -0.06250
 BRILLOUIN|   141           0.00195       -0.18750       -0.31250        0.06250
 BRILLOUIN|   142           0.00195       -0.18750       -0.31250        0.18750
 BRILLOUIN|   143           0.00195       -0.18750       -0.31250        0.31250
 BRILLOUIN|   144           0.00195       -0.18750       -0.31250        0.43750
 BRILLOUIN|   145           0.00195       -0.18750       -0.18750       -0.43750
 BRILLOUIN|   146           0.00195       -0.18750       -0.18750       -0.31250
 BRILLOUIN|   147           0.00195       -0.18750       -0.18750       -0.18750
 BRILLOUIN|   148           0.00195       -0.18750       -0.18750       -0.06250
 BRILLOUIN|   149           0.00195       -0.18750       -0.18750        0.06250
 BRILLOUIN|   150           0.00195       -0.18750       -0.18750        0.18750
 BRILLOUIN|   151           0.00195       -0.18750       -0.18750        0.31250
 BRILLOUIN|   152           0.00195       -0.18750       -0.18750        0.43750
 BRILLOUIN|   153           0.00195       -0.18750       -0.06250       -0.43750
 BRILLOUIN|   154           0.00195       -0.18750       -0.06250       -0.31250
 BRILLOUIN|   155           0.00195       -0.18750       -0.06250       -0.18750
 BRILLOUIN|   156           0.00195       -0.18750       -0.06250       -0.06250
 BRILLOUIN|   157           0.00195       -0.18750       -0.06250        0.06250
 BRILLOUIN|   158           0.00195       -0.18750       -0.06250        0.18750
 BRILLOUIN|   159           0.00195       -0.18750       -0.06250        0.31250
 BRILLOUIN|   160           0.00195       -0.18750       -0.06250        0.43750
 BRILLOUIN|   161           0.00195       -0.18750        0.06250       -0.43750
 BRILLOUIN|   162           0.00195       -0.18750        0.06250       -0.31250
 BRILLOUIN|   163           0.00195       -0.18750        0.06250       -0.18750
 BRILLOUIN|   164           0.00195       -0.18750        0.06250       -0.06250
 BRILLOUIN|   165           0.00195       -0.18750        0.06250        0.06250
 BRILLOUIN|   166           0.00195       -0.18750        0.06250        0.18750
 BRILLOUIN|   167           0.00195       -0.18750        0.06250        0.31250
 BRILLOUIN|   168           0.00195       -0.18750        0.06250        0.43750
 BRILLOUIN|   169           0.00195       -0.18750        0.18750       -0.43750
 BRILLOUIN|   170           0.00195       -0.18750        0.18750       -0.31250
 BRILLOUIN|   171           0.00195       -0.18750        0.18750       -0.18750
 BRILLOUIN|   172           0.00195       -0.18750        0.18750       -0.06250
 BRILLOUIN|   173           0.00195       -0.18750        0.18750        0.06250
 BRILLOUIN|   174           0.00195       -0.18750        0.18750        0.18750
 BRILLOUIN|   175           0.00195       -0.18750        0.18750        0.31250
 BRILLOUIN|   176           0.00195       -0.18750        0.18750        0.43750
 BRILLOUIN|   177           0.00195       -0.18750        0.31250       -0.43750
 BRILLOUIN|   178           0.00195       -0.18750        0.31250       -0.31250
 BRILLOUIN|   179           0.00195       -0.18750        0.31250       -0.18750
 BRILLOUIN|   180           0.00195       -0.18750        0.31250       -0.06250
 BRILLOUIN|   181           0.00195       -0.18750        0.31250        0.06250
 BRILLOUIN|   182           0.00195       -0.18750        0.31250        0.18750
 BRILLOUIN|   183           0.00195       -0.18750        0.31250        0.31250
 BRILLOUIN|   184           0.00195       -0.18750        0.31250        0.43750
 BRILLOUIN|   185           0.00195       -0.18750        0.43750       -0.43750
 BRILLOUIN|   186           0.00195       -0.18750        0.43750       -0.31250
 BRILLOUIN|   187           0.00195       -0.18750        0.43750       -0.18750
 BRILLOUIN|   188           0.00195       -0.18750        0.43750       -0.06250
 BRILLOUIN|   189           0.00195       -0.18750        0.43750        0.06250
 BRILLOUIN|   190           0.00195       -0.18750        0.43750        0.18750
 BRILLOUIN|   191           0.00195       -0.18750        0.43750        0.31250
 BRILLOUIN|   192           0.00195       -0.18750        0.43750        0.43750
 BRILLOUIN|   193           0.00195       -0.06250       -0.43750       -0.43750
 BRILLOUIN|   194           0.00195       -0.06250       -0.43750       -0.31250
 BRILLOUIN|   195           0.00195       -0.06250       -0.43750       -0.18750
 BRILLOUIN|   196           0.00195       -0.06250       -0.43750       -0.06250
 BRILLOUIN|   197           0.00195       -0.06250       -0.43750        0.06250
 BRILLOUIN|   198           0.00195       -0.06250       -0.43750        0.18750
 BRILLOUIN|   199           0.00195       -0.06250       -0.43750        0.31250
 BRILLOUIN|   200           0.00195       -0.06250       -0.43750        0.43750
 BRILLOUIN|   201           0.00195       -0.06250       -0.31250       -0.43750
 BRILLOUIN|   202           0.00195       -0.06250       -0.31250       -0.31250
 BRILLOUIN|   203           0.00195       -0.06250       -0.31250       -0.18750
 BRILLOUIN|   204           0.00195       -0.06250       -0.31250       -0.06250
 BRILLOUIN|   205           0.00195       -0.06250       -0.31250        0.06250
 BRILLOUIN|   206           0.00195       -0.06250       -0.31250        0.18750
 BRILLOUIN|   207           0.00195       -0.06250       -0.31250        0.31250
 BRILLOUIN|   208           0.00195       -0.06250       -0.31250        0.43750
 BRILLOUIN|   209           0.00195       -0.06250       -0.18750       -0.43750
 BRILLOUIN|   210           0.00195       -0.06250       -0.18750       -0.31250
 BRILLOUIN|   211           0.00195       -0.06250       -0.18750       -0.18750
 BRILLOUIN|   212           0.00195       -0.06250       -0.18750       -0.06250
 BRILLOUIN|   213           0.00195       -0.06250       -0.18750        0.06250
 BRILLOUIN|   214           0.00195       -0.06250       -0.18750        0.18750
 BRILLOUIN|   215           0.00195       -0.06250       -0.18750        0.31250
 BRILLOUIN|   216           0.00195       -0.06250       -0.18750        0.43750
 BRILLOUIN|   217           0.00195       -0.06250       -0.06250       -0.43750
 BRILLOUIN|   218           0.00195       -0.06250       -0.06250       -0.31250
 BRILLOUIN|   219           0.00195       -0.06250       -0.06250       -0.18750
 BRILLOUIN|   220           0.00195       -0.06250       -0.06250       -0.06250
 BRILLOUIN|   221           0.00195       -0.06250       -0.06250        0.06250
 BRILLOUIN|   222           0.00195       -0.06250       -0.06250        0.18750
 BRILLOUIN|   223           0.00195       -0.06250       -0.06250        0.31250
 BRILLOUIN|   224           0.00195       -0.06250       -0.06250        0.43750
 BRILLOUIN|   225           0.00195       -0.06250        0.06250       -0.43750
 BRILLOUIN|   226           0.00195       -0.06250        0.06250       -0.31250
 BRILLOUIN|   227           0.00195       -0.06250        0.06250       -0.18750
 BRILLOUIN|   228           0.00195       -0.06250        0.06250       -0.06250
 BRILLOUIN|   229           0.00195       -0.06250        0.06250        0.06250
 BRILLOUIN|   230           0.00195       -0.06250        0.06250        0.18750
 BRILLOUIN|   231           0.00195       -0.06250        0.06250        0.31250
 BRILLOUIN|   232           0.00195       -0.06250        0.06250        0.43750
 BRILLOUIN|   233           0.00195       -0.06250        0.18750       -0.43750
 BRILLOUIN|   234           0.00195       -0.06250        0.18750       -0.31250
 BRILLOUIN|   235           0.00195       -0.06250        0.18750       -0.18750
 BRILLOUIN|   236           0.00195       -0.06250        0.18750       -0.06250
 BRILLOUIN|   237           0.00195       -0.06250        0.18750        0.06250
 BRILLOUIN|   238           0.00195       -0.06250        0.18750        0.18750
 BRILLOUIN|   239           0.00195       -0.06250        0.18750        0.31250
 BRILLOUIN|   240           0.00195       -0.06250        0.18750        0.43750
 BRILLOUIN|   241           0.00195       -0.06250        0.31250       -0.43750
 BRILLOUIN|   242           0.00195       -0.06250        0.31250       -0.31250
 BRILLOUIN|   243           0.00195       -0.06250        0.31250       -0.18750
 BRILLOUIN|   244           0.00195       -0.06250        0.31250       -0.06250
 BRILLOUIN|   245           0.00195       -0.06250        0.31250        0.06250
 BRILLOUIN|   246           0.00195       -0.06250        0.31250        0.18750
 BRILLOUIN|   247           0.00195       -0.06250        0.31250        0.31250
 BRILLOUIN|   248           0.00195       -0.06250        0.31250        0.43750
 BRILLOUIN|   249           0.00195       -0.06250        0.43750       -0.43750
 BRILLOUIN|   250           0.00195       -0.06250        0.43750       -0.31250
 BRILLOUIN|   251           0.00195       -0.06250        0.43750       -0.18750
 BRILLOUIN|   252           0.00195       -0.06250        0.43750       -0.06250
 BRILLOUIN|   253           0.00195       -0.06250        0.43750        0.06250
 BRILLOUIN|   254           0.00195       -0.06250        0.43750        0.18750
 BRILLOUIN|   255           0.00195       -0.06250        0.43750        0.31250
 BRILLOUIN|   256           0.00195       -0.06250        0.43750        0.43750
 BRILLOUIN|   257           0.00195        0.06250       -0.43750       -0.43750
 BRILLOUIN|   258           0.00195        0.06250       -0.43750       -0.31250
 BRILLOUIN|   259           0.00195        0.06250       -0.43750       -0.18750
 BRILLOUIN|   260           0.00195        0.06250       -0.43750       -0.06250
 BRILLOUIN|   261           0.00195        0.06250       -0.43750        0.06250
 BRILLOUIN|   262           0.00195        0.06250       -0.43750        0.18750
 BRILLOUIN|   263           0.00195        0.06250       -0.43750        0.31250
 BRILLOUIN|   264           0.00195        0.06250       -0.43750        0.43750
 BRILLOUIN|   265           0.00195        0.06250       -0.31250       -0.43750
 BRILLOUIN|   266           0.00195        0.06250       -0.31250       -0.31250
 BRILLOUIN|   267           0.00195        0.06250       -0.31250       -0.18750
 BRILLOUIN|   268           0.00195        0.06250       -0.31250       -0.06250
 BRILLOUIN|   269           0.00195        0.06250       -0.31250        0.06250
 BRILLOUIN|   270           0.00195        0.06250       -0.31250        0.18750
 BRILLOUIN|   271           0.00195        0.06250       -0.31250        0.31250
 BRILLOUIN|   272           0.00195        0.06250       -0.31250        0.43750
 BRILLOUIN|   273           0.00195        0.06250       -0.18750       -0.43750
 BRILLOUIN|   274           0.00195        0.06250       -0.18750       -0.31250
 BRILLOUIN|   275           0.00195        0.06250       -0.18750       -0.18750
 BRILLOUIN|   276           0.00195        0.06250       -0.18750       -0.06250
 BRILLOUIN|   277           0.00195        0.06250       -0.18750        0.06250
 BRILLOUIN|   278           0.00195        0.06250       -0.18750        0.18750
 BRILLOUIN|   279           0.00195        0.06250       -0.18750        0.31250
 BRILLOUIN|   280           0.00195        0.06250       -0.18750        0.43750
 BRILLOUIN|   281           0.00195        0.06250       -0.06250       -0.43750
 BRILLOUIN|   282           0.00195        0.06250       -0.06250       -0.31250
 BRILLOUIN|   283           0.00195        0.06250       -0.06250       -0.18750
 BRILLOUIN|   284           0.00195        0.06250       -0.06250       -0.06250
 BRILLOUIN|   285           0.00195        0.06250       -0.06250        0.06250
 BRILLOUIN|   286           0.00195        0.06250       -0.06250        0.18750
 BRILLOUIN|   287           0.00195        0.06250       -0.06250        0.31250
 BRILLOUIN|   288           0.00195        0.06250       -0.06250        0.43750
 BRILLOUIN|   289           0.00195        0.06250        0.06250       -0.43750
 BRILLOUIN|   290           0.00195        0.06250        0.06250       -0.31250
 BRILLOUIN|   291           0.00195        0.06250        0.06250       -0.18750
 BRILLOUIN|   292           0.00195        0.06250        0.06250       -0.06250
 BRILLOUIN|   293           0.00195        0.06250        0.06250        0.06250
 BRILLOUIN|   294           0.00195        0.06250        0.06250        0.18750
 BRILLOUIN|   295           0.00195        0.06250        0.06250        0.31250
 BRILLOUIN|   296           0.00195        0.06250        0.06250        0.43750
 BRILLOUIN|   297           0.00195        0.06250        0.18750       -0.43750
 BRILLOUIN|   298           0.00195        0.06250        0.18750       -0.31250
 BRILLOUIN|   299           0.00195        0.06250        0.18750       -0.18750
 BRILLOUIN|   300           0.00195        0.06250        0.18750       -0.06250
 BRILLOUIN|   301           0.00195        0.06250        0.18750        0.06250
 BRILLOUIN|   302           0.00195        0.06250        0.18750        0.18750
 BRILLOUIN|   303           0.00195        0.06250        0.18750        0.31250
 BRILLOUIN|   304           0.00195        0.06250        0.18750        0.43750
 BRILLOUIN|   305           0.00195        0.06250        0.31250       -0.43750
 BRILLOUIN|   306           0.00195        0.06250        0.31250       -0.31250
 BRILLOUIN|   307           0.00195        0.06250        0.31250       -0.18750
 BRILLOUIN|   308           0.00195        0.06250        0.31250       -0.06250
 BRILLOUIN|   309           0.00195        0.06250        0.31250        0.06250
 BRILLOUIN|   310           0.00195        0.06250        0.31250        0.18750
 BRILLOUIN|   311           0.00195        0.06250        0.31250        0.31250
 BRILLOUIN|   312           0.00195        0.06250        0.31250        0.43750
 BRILLOUIN|   313           0.00195        0.06250        0.43750       -0.43750
 BRILLOUIN|   314           0.00195        0.06250        0.43750       -0.31250
 BRILLOUIN|   315           0.00195        0.06250        0.43750       -0.18750
 BRILLOUIN|   316           0.00195        0.06250        0.43750       -0.06250
 BRILLOUIN|   317           0.00195        0.06250        0.43750        0.06250
 BRILLOUIN|   318           0.00195        0.06250        0.43750        0.18750
 BRILLOUIN|   319           0.00195        0.06250        0.43750        0.31250
 BRILLOUIN|   320           0.00195        0.06250        0.43750        0.43750
 BRILLOUIN|   321           0.00195        0.18750       -0.43750       -0.43750
 BRILLOUIN|   322           0.00195        0.18750       -0.43750       -0.31250
 BRILLOUIN|   323           0.00195        0.18750       -0.43750       -0.18750
 BRILLOUIN|   324           0.00195        0.18750       -0.43750       -0.06250
 BRILLOUIN|   325           0.00195        0.18750       -0.43750        0.06250
 BRILLOUIN|   326           0.00195        0.18750       -0.43750        0.18750
 BRILLOUIN|   327           0.00195        0.18750       -0.43750        0.31250
 BRILLOUIN|   328           0.00195        0.18750       -0.43750        0.43750
 BRILLOUIN|   329           0.00195        0.18750       -0.31250       -0.43750
 BRILLOUIN|   330           0.00195        0.18750       -0.31250       -0.31250
 BRILLOUIN|   331           0.00195        0.18750       -0.31250       -0.18750
 BRILLOUIN|   332           0.00195        0.18750       -0.31250       -0.06250
 BRILLOUIN|   333           0.00195        0.18750       -0.31250        0.06250
 BRILLOUIN|   334           0.00195        0.18750       -0.31250        0.18750
 BRILLOUIN|   335           0.00195        0.18750       -0.31250        0.31250
 BRILLOUIN|   336           0.00195        0.18750       -0.31250        0.43750
 BRILLOUIN|   337           0.00195        0.18750       -0.18750       -0.43750
 BRILLOUIN|   338           0.00195        0.18750       -0.18750       -0.31250
 BRILLOUIN|   339           0.00195        0.18750       -0.18750       -0.18750
 BRILLOUIN|   340           0.00195        0.18750       -0.18750       -0.06250
 BRILLOUIN|   341           0.00195        0.18750       -0.18750        0.06250
 BRILLOUIN|   342           0.00195        0.18750       -0.18750        0.18750
 BRILLOUIN|   343           0.00195        0.18750       -0.18750        0.31250
 BRILLOUIN|   344           0.00195        0.18750       -0.18750        0.43750
 BRILLOUIN|   345           0.00195        0.18750       -0.06250       -0.43750
 BRILLOUIN|   346           0.00195        0.18750       -0.06250       -0.31250
 BRILLOUIN|   347           0.00195        0.18750       -0.06250       -0.18750
 BRILLOUIN|   348           0.00195        0.18750       -0.06250       -0.06250
 BRILLOUIN|   349           0.00195        0.18750       -0.06250        0.06250
 BRILLOUIN|   350           0.00195        0.18750       -0.06250        0.18750
 BRILLOUIN|   351           0.00195        0.18750       -0.06250        0.31250
 BRILLOUIN|   352           0.00195        0.18750       -0.06250        0.43750
 BRILLOUIN|   353           0.00195        0.18750        0.06250       -0.43750
 BRILLOUIN|   354           0.00195        0.18750        0.06250       -0.31250
 BRILLOUIN|   355           0.00195        0.18750        0.06250       -0.18750
 BRILLOUIN|   356           0.00195        0.18750        0.06250       -0.06250
 BRILLOUIN|   357           0.00195        0.18750        0.06250        0.06250
 BRILLOUIN|   358           0.00195        0.18750        0.06250        0.18750
 BRILLOUIN|   359           0.00195        0.18750        0.06250        0.31250
 BRILLOUIN|   360           0.00195        0.18750        0.06250        0.43750
 BRILLOUIN|   361           0.00195        0.18750        0.18750       -0.43750
 BRILLOUIN|   362           0.00195        0.18750        0.18750       -0.31250
 BRILLOUIN|   363           0.00195        0.18750        0.18750       -0.18750
 BRILLOUIN|   364           0.00195        0.18750        0.18750       -0.06250
 BRILLOUIN|   365           0.00195        0.18750        0.18750        0.06250
 BRILLOUIN|   366           0.00195        0.18750        0.18750        0.18750
 BRILLOUIN|   367           0.00195        0.18750        0.18750        0.31250
 BRILLOUIN|   368           0.00195        0.18750        0.18750        0.43750
 BRILLOUIN|   369           0.00195        0.18750        0.31250       -0.43750
 BRILLOUIN|   370           0.00195        0.18750        0.31250       -0.31250
 BRILLOUIN|   371           0.00195        0.18750        0.31250       -0.18750
 BRILLOUIN|   372           0.00195        0.18750        0.31250       -0.06250
 BRILLOUIN|   373           0.00195        0.18750        0.31250        0.06250
 BRILLOUIN|   374           0.00195        0.18750        0.31250        0.18750
 BRILLOUIN|   375           0.00195        0.18750        0.31250        0.31250
 BRILLOUIN|   376           0.00195        0.18750        0.31250        0.43750
 BRILLOUIN|   377           0.00195        0.18750        0.43750       -0.43750
 BRILLOUIN|   378           0.00195        0.18750        0.43750       -0.31250
 BRILLOUIN|   379           0.00195        0.18750        0.43750       -0.18750
 BRILLOUIN|   380           0.00195        0.18750        0.43750       -0.06250
 BRILLOUIN|   381           0.00195        0.18750        0.43750        0.06250
 BRILLOUIN|   382           0.00195        0.18750        0.43750        0.18750
 BRILLOUIN|   383           0.00195        0.18750        0.43750        0.31250
 BRILLOUIN|   384           0.00195        0.18750        0.43750        0.43750
 BRILLOUIN|   385           0.00195        0.31250       -0.43750       -0.43750
 BRILLOUIN|   386           0.00195        0.31250       -0.43750       -0.31250
 BRILLOUIN|   387           0.00195        0.31250       -0.43750       -0.18750
 BRILLOUIN|   388           0.00195        0.31250       -0.43750       -0.06250
 BRILLOUIN|   389           0.00195        0.31250       -0.43750        0.06250
 BRILLOUIN|   390           0.00195        0.31250       -0.43750        0.18750
 BRILLOUIN|   391           0.00195        0.31250       -0.43750        0.31250
 BRILLOUIN|   392           0.00195        0.31250       -0.43750        0.43750
 BRILLOUIN|   393           0.00195        0.31250       -0.31250       -0.43750
 BRILLOUIN|   394           0.00195        0.31250       -0.31250       -0.31250
 BRILLOUIN|   395           0.00195        0.31250       -0.31250       -0.18750
 BRILLOUIN|   396           0.00195        0.31250       -0.31250       -0.06250
 BRILLOUIN|   397           0.00195        0.31250       -0.31250        0.06250
 BRILLOUIN|   398           0.00195        0.31250       -0.31250        0.18750
 BRILLOUIN|   399           0.00195        0.31250       -0.31250        0.31250
 BRILLOUIN|   400           0.00195        0.31250       -0.31250        0.43750
 BRILLOUIN|   401           0.00195        0.31250       -0.18750       -0.43750
 BRILLOUIN|   402           0.00195        0.31250       -0.18750       -0.31250
 BRILLOUIN|   403           0.00195        0.31250       -0.18750       -0.18750
 BRILLOUIN|   404           0.00195        0.31250       -0.18750       -0.06250
 BRILLOUIN|   405           0.00195        0.31250       -0.18750        0.06250
 BRILLOUIN|   406           0.00195        0.31250       -0.18750        0.18750
 BRILLOUIN|   407           0.00195        0.31250       -0.18750        0.31250
 BRILLOUIN|   408           0.00195        0.31250       -0.18750        0.43750
 BRILLOUIN|   409           0.00195        0.31250       -0.06250       -0.43750
 BRILLOUIN|   410           0.00195        0.31250       -0.06250       -0.31250
 BRILLOUIN|   411           0.00195        0.31250       -0.06250       -0.18750
 BRILLOUIN|   412           0.00195        0.31250       -0.06250       -0.06250
 BRILLOUIN|   413           0.00195        0.31250       -0.06250        0.06250
 BRILLOUIN|   414           0.00195        0.31250       -0.06250        0.18750
 BRILLOUIN|   415           0.00195        0.31250       -0.06250        0.31250
 BRILLOUIN|   416           0.00195        0.31250       -0.06250        0.43750
 BRILLOUIN|   417           0.00195        0.31250        0.06250       -0.43750
 BRILLOUIN|   418           0.00195        0.31250        0.06250       -0.31250
 BRILLOUIN|   419           0.00195        0.31250        0.06250       -0.18750
 BRILLOUIN|   420           0.00195        0.31250        0.06250       -0.06250
 BRILLOUIN|   421           0.00195        0.31250        0.06250        0.06250
 BRILLOUIN|   422           0.00195        0.31250        0.06250        0.18750
 BRILLOUIN|   423           0.00195        0.31250        0.06250        0.31250
 BRILLOUIN|   424           0.00195        0.31250        0.06250        0.43750
 BRILLOUIN|   425           0.00195        0.31250        0.18750       -0.43750
 BRILLOUIN|   426           0.00195        0.31250        0.18750       -0.31250
 BRILLOUIN|   427           0.00195        0.31250        0.18750       -0.18750
 BRILLOUIN|   428           0.00195        0.31250        0.18750       -0.06250
 BRILLOUIN|   429           0.00195        0.31250        0.18750        0.06250
 BRILLOUIN|   430           0.00195        0.31250        0.18750        0.18750
 BRILLOUIN|   431           0.00195        0.31250        0.18750        0.31250
 BRILLOUIN|   432           0.00195        0.31250        0.18750        0.43750
 BRILLOUIN|   433           0.00195        0.31250        0.31250       -0.43750
 BRILLOUIN|   434           0.00195        0.31250        0.31250       -0.31250
 BRILLOUIN|   435           0.00195        0.31250        0.31250       -0.18750
 BRILLOUIN|   436           0.00195        0.31250        0.31250       -0.06250
 BRILLOUIN|   437           0.00195        0.31250        0.31250        0.06250
 BRILLOUIN|   438           0.00195        0.31250        0.31250        0.18750
 BRILLOUIN|   439           0.00195        0.31250        0.31250        0.31250
 BRILLOUIN|   440           0.00195        0.31250        0.31250        0.43750
 BRILLOUIN|   441           0.00195        0.31250        0.43750       -0.43750
 BRILLOUIN|   442           0.00195        0.31250        0.43750       -0.31250
 BRILLOUIN|   443           0.00195        0.31250        0.43750       -0.18750
 BRILLOUIN|   444           0.00195        0.31250        0.43750       -0.06250
 BRILLOUIN|   445           0.00195        0.31250        0.43750        0.06250
 BRILLOUIN|   446           0.00195        0.31250        0.43750        0.18750
 BRILLOUIN|   447           0.00195        0.31250        0.43750        0.31250
 BRILLOUIN|   448           0.00195        0.31250        0.43750        0.43750
 BRILLOUIN|   449           0.00195        0.43750       -0.43750       -0.43750
 BRILLOUIN|   450           0.00195        0.43750       -0.43750       -0.31250
 BRILLOUIN|   451           0.00195        0.43750       -0.43750       -0.18750
 BRILLOUIN|   452           0.00195        0.43750       -0.43750       -0.06250
 BRILLOUIN|   453           0.00195        0.43750       -0.43750        0.06250
 BRILLOUIN|   454           0.00195        0.43750       -0.43750        0.18750
 BRILLOUIN|   455           0.00195        0.43750       -0.43750        0.31250
 BRILLOUIN|   456           0.00195        0.43750       -0.43750        0.43750
 BRILLOUIN|   457           0.00195        0.43750       -0.31250       -0.43750
 BRILLOUIN|   458           0.00195        0.43750       -0.31250       -0.31250
 BRILLOUIN|   459           0.00195        0.43750       -0.31250       -0.18750
 BRILLOUIN|   460           0.00195        0.43750       -0.31250       -0.06250
 BRILLOUIN|   461           0.00195        0.43750       -0.31250        0.06250
 BRILLOUIN|   462           0.00195        0.43750       -0.31250        0.18750
 BRILLOUIN|   463           0.00195        0.43750       -0.31250        0.31250
 BRILLOUIN|   464           0.00195        0.43750       -0.31250        0.43750
 BRILLOUIN|   465           0.00195        0.43750       -0.18750       -0.43750
 BRILLOUIN|   466           0.00195        0.43750       -0.18750       -0.31250
 BRILLOUIN|   467           0.00195        0.43750       -0.18750       -0.18750
 BRILLOUIN|   468           0.00195        0.43750       -0.18750       -0.06250
 BRILLOUIN|   469           0.00195        0.43750       -0.18750        0.06250
 BRILLOUIN|   470           0.00195        0.43750       -0.18750        0.18750
 BRILLOUIN|   471           0.00195        0.43750       -0.18750        0.31250
 BRILLOUIN|   472           0.00195        0.43750       -0.18750        0.43750
 BRILLOUIN|   473           0.00195        0.43750       -0.06250       -0.43750
 BRILLOUIN|   474           0.00195        0.43750       -0.06250       -0.31250
 BRILLOUIN|   475           0.00195        0.43750       -0.06250       -0.18750
 BRILLOUIN|   476           0.00195        0.43750       -0.06250       -0.06250
 BRILLOUIN|   477           0.00195        0.43750       -0.06250        0.06250
 BRILLOUIN|   478           0.00195        0.43750       -0.06250        0.18750
 BRILLOUIN|   479           0.00195        0.43750       -0.06250        0.31250
 BRILLOUIN|   480           0.00195        0.43750       -0.06250        0.43750
 BRILLOUIN|   481           0.00195        0.43750        0.06250       -0.43750
 BRILLOUIN|   482           0.00195        0.43750        0.06250       -0.31250
 BRILLOUIN|   483           0.00195        0.43750        0.06250       -0.18750
 BRILLOUIN|   484           0.00195        0.43750        0.06250       -0.06250
 BRILLOUIN|   485           0.00195        0.43750        0.06250        0.06250
 BRILLOUIN|   486           0.00195        0.43750        0.06250        0.18750
 BRILLOUIN|   487           0.00195        0.43750        0.06250        0.31250
 BRILLOUIN|   488           0.00195        0.43750        0.06250        0.43750
 BRILLOUIN|   489           0.00195        0.43750        0.18750       -0.43750
 BRILLOUIN|   490           0.00195        0.43750        0.18750       -0.31250
 BRILLOUIN|   491           0.00195        0.43750        0.18750       -0.18750
 BRILLOUIN|   492           0.00195        0.43750        0.18750       -0.06250
 BRILLOUIN|   493           0.00195        0.43750        0.18750        0.06250
 BRILLOUIN|   494           0.00195        0.43750        0.18750        0.18750
 BRILLOUIN|   495           0.00195        0.43750        0.18750        0.31250
 BRILLOUIN|   496           0.00195        0.43750        0.18750        0.43750
 BRILLOUIN|   497           0.00195        0.43750        0.31250       -0.43750
 BRILLOUIN|   498           0.00195        0.43750        0.31250       -0.31250
 BRILLOUIN|   499           0.00195        0.43750        0.31250       -0.18750
 BRILLOUIN|   500           0.00195        0.43750        0.31250       -0.06250
 BRILLOUIN|   501           0.00195        0.43750        0.31250        0.06250
 BRILLOUIN|   502           0.00195        0.43750        0.31250        0.18750
 BRILLOUIN|   503           0.00195        0.43750        0.31250        0.31250
 BRILLOUIN|   504           0.00195        0.43750        0.31250        0.43750
 BRILLOUIN|   505           0.00195        0.43750        0.43750       -0.43750
 BRILLOUIN|   506           0.00195        0.43750        0.43750       -0.31250
 BRILLOUIN|   507           0.00195        0.43750        0.43750       -0.18750
 BRILLOUIN|   508           0.00195        0.43750        0.43750       -0.06250
 BRILLOUIN|   509           0.00195        0.43750        0.43750        0.06250
 BRILLOUIN|   510           0.00195        0.43750        0.43750        0.18750
 BRILLOUIN|   511           0.00195        0.43750        0.43750        0.31250
 BRILLOUIN|   512           0.00195        0.43750        0.43750        0.43750
 *******************************************************************************

 *******************************************************************************
 *******************************************************************************
 **                                                                           **
 **     #####                         ##              ##                      **
 **    ##   ##            ##          ##              ##                      **
 **   ##     ##                       ##            ######                    **
 **   ##     ##  ##   ##  ##   #####  ##  ##   ####   ##    #####    #####    **
 **   ##     ##  ##   ##  ##  ##      ## ##   ##      ##   ##   ##  ##   ##   **
 **   ##  ## ##  ##   ##  ##  ##      ####     ###    ##   ######   ######    **
 **    ##  ###   ##   ##  ##  ##      ## ##      ##   ##   ##       ##        **
 **     #######   #####   ##   #####  ##  ##  ####    ##    #####   ##        **
 **           ##                                                    ##        **
 **                                                                           **
 **                                                ... make the atoms dance   **
 **                                                                           **
 **            Copyright (C) by CP2K developers group (2000-2022)             **
 **                      J. Chem. Phys. 152, 194103 (2020)                    **
 **                                                                           **
 *******************************************************************************

 *** WARNING in qs_environment.F:1468 :: More added MOs requested than     ***
 *** available. The full set of unoccupied MOs will be used. Use           ***
 *** 'ADDED_MOS -1' to always use all available MOs and to get rid of this ***
 *** warning.                                                              ***


 DFT| Spin restricted Kohn-Sham (RKS) calculation                            RKS
 DFT| Multiplicity                                                             1
 DFT| Number of spin states                                                    1
 DFT| Charge                                                                   0
 DFT| Self-interaction correction (SIC)                                       NO
 DFT| Cutoffs: density                                              1.000000E-10
 DFT|          gradient                                             1.000000E-10
 DFT|          tau                                                  1.000000E-10
 DFT|          cutoff_smoothing_range                               0.000000E+00
 DFT| XC density smoothing                                                  NONE
 DFT| XC derivatives                                                          PW

 FUNCTIONAL| PADE:
 FUNCTIONAL| S. Goedecker, M. Teter and J. Hutter, Phys. Rev. B 54, 1703 (1996) 


 QS| Method:                                                                 GPW
 QS| Density plane wave grid type                        NON-SPHERICAL FULLSPACE
 QS| Number of grid levels:                                                    4
 QS| Density cutoff [a.u.]:                                                250.0
 QS| Multi grid cutoff [a.u.]: 1) grid level                               250.0
 QS|                           2) grid level                                83.3
 QS|                           3) grid level                                27.8
 QS|                           4) grid level                                 9.3
 QS| Grid level progression factor:                                          3.0
 QS| Relative density cutoff [a.u.]:                                        30.0
 QS| Interaction thresholds: eps_pgf_orb:                                1.0E-05
 QS|                         eps_filter_matrix:                          0.0E+00
 QS|                         eps_core_charge:                            1.0E-12
 QS|                         eps_rho_gspace:                             1.0E-10
 QS|                         eps_rho_rspace:                             1.0E-10
 QS|                         eps_gvg_rspace:                             1.0E-05
 QS|                         eps_ppl:                                    1.0E-02
 QS|                         eps_ppnl:                                   1.0E-07


 ATOMIC KIND INFORMATION

  1. Atomic kind: Au                                    Number of atoms:       4

     Orbital Basis Set                                         SZV-MOLOPT-SR-GTH

       Number of orbital shell sets:                                           1
       Number of orbital shells:                                               3
       Number of primitive Cartesian functions:                                5
       Number of Cartesian basis functions:                                   10
       Number of spherical basis functions:                                    9
       Norm type:                                                              2

       Normalised Cartesian orbitals:

                        Set   Shell   Orbital            Exponent    Coefficient

                          1       1    2s                2.950008       0.074626
                                                         1.563057      -0.007898
                                                         0.666664      -0.297688
                                                         0.251083       0.136809
                                                         0.081714       0.088198

                          1       2    3px               2.950008       0.148824
                                                         1.563057       0.025430
                                                         0.666664      -0.123003
                                                         0.251083       0.033648
                                                         0.081714       0.059008
                          1       2    3py               2.950008       0.148824
                                                         1.563057       0.025430
                                                         0.666664      -0.123003
                                                         0.251083       0.033648
                                                         0.081714       0.059008
                          1       2    3pz               2.950008       0.148824
                                                         1.563057       0.025430
                                                         0.666664      -0.123003
                                                         0.251083       0.033648
                                                         0.081714       0.059008

                          1       3    4dx2              2.950008      -0.139595
                                                         1.563057       1.319655
                                                         0.666664       0.377081
                                                         0.251083       0.046872
                                                         0.081714       0.001393
                          1       3    4dxy              2.950008      -0.241786
                                                         1.563057       2.285709
                                                         0.666664       0.653124
                                                         0.251083       0.081185
                                                         0.081714       0.002412
                          1       3    4dxz              2.950008      -0.241786
                                                         1.563057       2.285709
                                                         0.666664       0.653124
                                                         0.251083       0.081185
                                                         0.081714       0.002412
                          1       3    4dy2              2.950008      -0.139595
                                                         1.563057       1.319655
                                                         0.666664       0.377081
                                                         0.251083       0.046872
                                                         0.081714       0.001393
                          1       3    4dyz              2.950008      -0.241786
                                                         1.563057       2.285709
                                                         0.666664       0.653124
                                                         0.251083       0.081185
                                                         0.081714       0.002412
                          1       3    4dz2              2.950008      -0.139595
                                                         1.563057       1.319655
                                                         0.666664       0.377081
                                                         0.251083       0.046872
                                                         0.081714       0.001393

       Atomic covalent radius [Angstrom]:                                  1.340

       Atomic van der Waals radius [Angstrom]:                             1.660

     GTH Potential information for                                  GTH-PADE-q11

       Description:                       Goedecker-Teter-Hutter pseudopotential
                                           Goedecker et al., PRB 54, 1703 (1996)
                                          Hartwigsen et al., PRB 58, 3641 (1998)
                                                      Krack, TCA 114, 145 (2005)

       Gaussian exponent of the core charge distribution:               1.436369
       Electronic configuration (s p d ...):                           1   0  10

       Parameters of the local part of the GTH pseudopotential:

                          rloc        C1          C2          C3          C4
                        0.590000   11.604428

       Parameters of the non-local part of the GTH pseudopotential:

                   l      r(l)      h(i,j,l)

                   0    0.521180    2.538614   -1.046137
                                   -1.046137    2.701113
                   1    0.630613    0.394853   -0.869592
                                   -0.869592    2.057831
                   2    0.440706   -4.719070    0.727771
                                    0.727771   -1.650429


 MOLECULE KIND INFORMATION


 All atoms are their own molecule, skipping detailed information


 TOTAL NUMBERS AND MAXIMUM NUMBERS

  Total number of            - Atomic kinds:                                   1
                             - Atoms:                                          4
                             - Shell sets:                                     4
                             - Shells:                                        12
                             - Primitive Cartesian functions:                 20
                             - Cartesian basis functions:                     40
                             - Spherical basis functions:                     36

  Maximum angular momentum of- Orbital basis functions:                        2
                             - Local part of the GTH pseudopotential:          0
                             - Non-local part of the GTH pseudopotential:      4


 MODULE QUICKSTEP: ATOMIC COORDINATES IN ANGSTROM

   Atom Kind Element         X             Y             Z       Z(eff)     Mass
      1    1 Au   79      1.042823      1.042823      1.042823  11.0000 196.9666
      2    1 Au   79      1.042823      3.128467      3.128467  11.0000 196.9666
      3    1 Au   79      3.128467      1.042823      3.128467  11.0000 196.9666
      4    1 Au   79      3.128467      3.128467      1.042823  11.0000 196.9666



 SCF PARAMETERS         Density guess:                                    ATOMIC
                        --------------------------------------------------------
                        max_scf:                                             100
                        max_scf_history:                                       0
                        max_diis:                                              4
                        --------------------------------------------------------
                        eps_scf:                                        1.00E-07
                        eps_scf_history:                                0.00E+00
                        eps_diis:                                       1.00E-01
                        eps_eigval:                                     1.00E-05
                        --------------------------------------------------------
                        level_shift [a.u.]:                             0.000000
                        added MOs                                        14    0
                        --------------------------------------------------------
                        Mixing method:                            BROYDEN_MIXING
                                                charge density mixing in g-space
                        --------------------------------------------------------
                        Smear method:                                FERMI_DIRAC
                        Electronic temperature [K]:                        293.0
                        Electronic temperature [a.u.]:                  9.28E-04
                        Accuracy threshold:                             1.00E-10
                        --------------------------------------------------------
                        No outer SCF

 PW_GRID| Information for grid number                                          1
 PW_GRID| Grid distributed over                                    96 processors
 PW_GRID| Real space group dimensions                                     8   12
 PW_GRID| the grid is blocked:                                               YES
 PW_GRID| Cutoff [a.u.]                                                    250.0
 PW_GRID| spherical cutoff:                                                   NO
 PW_GRID|   Bounds   1            -30      29                Points:          60
 PW_GRID|   Bounds   2            -30      29                Points:          60
 PW_GRID|   Bounds   3            -30      29                Points:          60
 PW_GRID| Volume element (a.u.^3)  0.2268E-02     Volume (a.u.^3)       489.7876
 PW_GRID| Grid span                                                    FULLSPACE
 PW_GRID|   Distribution                         Average         Max         Min
 PW_GRID|   G-Vectors                             2250.0        2400        2100
 PW_GRID|   G-Rays                                  37.5          40          35
 PW_GRID|   Real Space Points                     2250.0        2400        2100

 PW_GRID| Information for grid number                                          2
 PW_GRID| Number of the reference grid                                         1
 PW_GRID| Grid distributed over                                    96 processors
 PW_GRID| Real space group dimensions                                     8   12
 PW_GRID| the grid is blocked:                                                NO
 PW_GRID| Cutoff [a.u.]                                                     83.3
 PW_GRID| spherical cutoff:                                                   NO
 PW_GRID|   Bounds   1            -16      16                Points:          33
 PW_GRID|   Bounds   2            -16      16                Points:          33
 PW_GRID|   Bounds   3            -16      16                Points:          33
 PW_GRID| Volume element (a.u.^3)  0.1363E-01     Volume (a.u.^3)       489.7876
 PW_GRID| Grid span                                                    FULLSPACE
 PW_GRID|   Distribution                         Average         Max         Min
 PW_GRID|   G-Vectors                              374.3        1320           0
 PW_GRID|   G-Rays                                  11.3          40           0
 PW_GRID|   Real Space Points                      374.3         495         264

 PW_GRID| Information for grid number                                          3
 PW_GRID| Number of the reference grid                                         1
 PW_GRID| Grid distributed over                                    96 processors
 PW_GRID| Real space group dimensions                                     8   12
 PW_GRID| the grid is blocked:                                                NO
 PW_GRID| Cutoff [a.u.]                                                     27.8
 PW_GRID| spherical cutoff:                                                   NO
 PW_GRID|   Bounds   1            -10       9                Points:          20
 PW_GRID|   Bounds   2            -10       9                Points:          20
 PW_GRID|   Bounds   3            -10       9                Points:          20
 PW_GRID| Volume element (a.u.^3)  0.6122E-01     Volume (a.u.^3)       489.7876
 PW_GRID| Grid span                                                    FULLSPACE
 PW_GRID|   Distribution                         Average         Max         Min
 PW_GRID|   G-Vectors                               83.3         800           0
 PW_GRID|   G-Rays                                   4.2          40           0
 PW_GRID|   Real Space Points                       83.3         120          40

 PW_GRID| Information for grid number                                          4
 PW_GRID| Number of the reference grid                                         1
 PW_GRID| Grid distributed over                                    96 processors
 PW_GRID| Real space group dimensions                                     8   12
 PW_GRID| the grid is blocked:                                                NO
 PW_GRID| Cutoff [a.u.]                                                      9.3
 PW_GRID| spherical cutoff:                                                   NO
 PW_GRID|   Bounds   1             -5       5                Points:          11
 PW_GRID|   Bounds   2             -5       5                Points:          11
 PW_GRID|   Bounds   3             -5       5                Points:          11
 PW_GRID| Volume element (a.u.^3)  0.3680         Volume (a.u.^3)       489.7876
 PW_GRID| Grid span                                                    FULLSPACE
 PW_GRID|   Distribution                         Average         Max         Min
 PW_GRID|   G-Vectors                               13.9         330           0
 PW_GRID|   G-Rays                                   1.3          30           0
 PW_GRID|   Real Space Points                       13.9          22           0

 POISSON| Solver                                                        PERIODIC
 POISSON| Periodicity                                                        XYZ

 RS_GRID| Information for grid number                                          1
 RS_GRID|   Bounds   1            -30      29                Points:          60
 RS_GRID|   Bounds   2            -30      29                Points:          60
 RS_GRID|   Bounds   3            -30      29                Points:          60
 RS_GRID| Real space fully replicated
 RS_GRID| Group size                                                           1

 RS_GRID| Information for grid number                                          2
 RS_GRID|   Bounds   1            -16      16                Points:          33
 RS_GRID|   Bounds   2            -16      16                Points:          33
 RS_GRID|   Bounds   3            -16      16                Points:          33
 RS_GRID| Real space fully replicated
 RS_GRID| Group size                                                           1

 RS_GRID| Information for grid number                                          3
 RS_GRID|   Bounds   1            -10       9                Points:          20
 RS_GRID|   Bounds   2            -10       9                Points:          20
 RS_GRID|   Bounds   3            -10       9                Points:          20
 RS_GRID| Real space fully replicated
 RS_GRID| Group size                                                           1

 RS_GRID| Information for grid number                                          4
 RS_GRID|   Bounds   1             -5       5                Points:          11
 RS_GRID|   Bounds   2             -5       5                Points:          11
 RS_GRID|   Bounds   3             -5       5                Points:          11
 RS_GRID| Real space fully replicated
 RS_GRID| Group size                                                           1

 KPOINTS| Number of kpoint groups                                              1
 KPOINTS| Size of each kpoint group                                           96
 KPOINTS| Number of kpoints per group                                        512

 Number of electrons:                                                         44
 Number of occupied orbitals:                                                 22
 Number of molecular orbitals:                                                36

 Number of orbital functions:                                                 36
 Number of independent orbital functions:                                     36

 Extrapolation method: initial_guess

 Atomic guess: The first density matrix is obtained in terms of atomic orbitals
               and electronic configurations assigned to each atomic kind

 Guess for atomic kind: Au

 Electronic structure
    Total number of core electrons                                         68.00
    Total number of valence electrons                                      11.00
    Total number of electrons                                              79.00
    Multiplicity                                                   not specified
    S   [  2.00  2.00  2.00  2.00  2.00] 1.00
    P   [  6.00  6.00  6.00  6.00]
    D   [ 10.00 10.00]10.00
    F   [ 14.00]


 *******************************************************************************
                  Iteration          Convergence                     Energy [au]
 *******************************************************************************
                          1         0.00000                     -33.033218197848

 Energy components [Hartree]           Total Energy ::          -33.033218197848
                                        Band Energy ::           -1.147505983145
                                     Kinetic Energy ::           24.744064437587
                                   Potential Energy ::          -57.777282635435
                                      Virial (-V/T) ::            2.334995642336
                                        Core Energy ::          -60.197309615487
                                          XC Energy ::           -5.116883226844
                                     Coulomb Energy ::           32.280974644483
                       Total Pseudopotential Energy ::          -85.042885173964
                       Local Pseudopotential Energy ::          -66.341694915099
                    Nonlocal Pseudopotential Energy ::          -18.701190258865
                                        Confinement ::            1.015111208892

 Orbital energies  State     L     Occupation   Energy[a.u.]          Energy[eV]

                       1     0          1.000      -0.213792           -5.817572

                       1     2         10.000      -0.093371           -2.540765


 Total Electron Density at R=0:                                         0.000035
 Re-scaling the density matrix to get the right number of electrons
                  # Electrons              Trace(P)               Scaling factor
                           44                44.000                        1.000


 SCF WAVEFUNCTION OPTIMIZATION

  Step     Update method      Time    Convergence         Total energy    Change
  ------------------------------------------------------------------------------
     1 NoMix/Diag. 0.30E+00    9.4     0.25103813      -133.2045707912 -1.33E+02
     2 Broy./Diag. 0.30E+00    9.5     0.03442655      -136.1398540652 -2.94E+00
     3 Broy./Diag. 0.30E+00    9.5     0.03803780      -134.0324315464  2.11E+00
     4 Broy./Diag. 0.30E+00    9.6     0.00068914      -133.1548354555  8.78E-01
     5 Broy./Diag. 0.30E+00    9.5     0.00002853      -133.1433676694  1.15E-02
     6 Broy./Diag. 0.30E+00    9.6     0.00002875      -133.1452043463 -1.84E-03
     7 Broy./Diag. 0.30E+00    9.6     0.00000242      -133.1461398284 -9.35E-04
     8 Broy./Diag. 0.30E+00    9.6     0.00000112      -133.1461141665  2.57E-05
     9 Broy./Diag. 0.30E+00    9.6     0.00000007      -133.1460813687  3.28E-05

  *** SCF run converged in     9 steps ***


  Electronic density on regular grids:        -43.9999999991        0.0000000009
  Core density on regular grids:               43.9999999927       -0.0000000073
  Total charge density on r-space grids:       -0.0000000064
  Total charge density g-space grids:          -0.0000000064

  Overlap energy of the core charge distribution:               0.00000001243494
  Self energy of the core charge distribution:               -231.41335460772382
  Core Hamiltonian energy:                                     73.24783191880415
  Hartree energy:                                              45.77025517454359
  Exchange-correlation energy:                                -20.75073234037393
  Electronic entropic energy:                                  -0.00008152645469
  Fermi energy:                                                 0.33244800702010

  Total energy:                                              -133.14608136874486

 The electron density is written in cube file format to the file:

 dft_wfn-ELECTRON_DENSITY-1_0.cube

 !-----------------------------------------------------------------------------!
                     Mulliken Population Analysis

 #  Atom  Element  Kind  Atomic population                           Net charge
       1     Au       1         11.000000                             -0.000000
       2     Au       1         11.000000                             -0.000000
       3     Au       1         11.000000                             -0.000000
       4     Au       1         11.000000                             -0.000000
 # Total charge                             44.000000                 -0.000000

 !-----------------------------------------------------------------------------!

 !-----------------------------------------------------------------------------!
                           Hirshfeld Charges

  #Atom  Element  Kind  Ref Charge     Population                    Net charge
      1       Au     1      11.000         11.000                        -0.000
      2       Au     1      11.000         11.000                        -0.000
      3       Au     1      11.000         11.000                        -0.000
      4       Au     1      11.000         11.000                        -0.000

  Total Charge                                                           -0.000
 !-----------------------------------------------------------------------------!

 ENERGY| Total FORCE_EVAL ( QS ) energy [a.u.]:             -133.146081368744859

 -------------------------------------------------------------------------------
 -                                                                             -
 -                                DBCSR STATISTICS                             -
 -                                                                             -
 -------------------------------------------------------------------------------
 COUNTER                                    TOTAL       BLAS       SMM       ACC
 flops inhomo. stacks                           0       0.0%      0.0%      0.0%
 flops total                         0.000000E+00       0.0%      0.0%      0.0%
 flops max/rank                      0.000000E+00       0.0%      0.0%      0.0%
 matmuls inhomo. stacks                         0       0.0%      0.0%      0.0%
 matmuls total                                  0       0.0%      0.0%      0.0%
 number of processed stacks                     0       0.0%      0.0%      0.0%
 average stack size                                     0.0       0.0       0.0
 marketing flops                     0.000000E+00
 -------------------------------------------------------------------------------
 -                                                                             -
 -                      DBCSR MESSAGE PASSING PERFORMANCE                      -
 -                                                                             -
 -------------------------------------------------------------------------------
 ROUTINE             CALLS      AVE VOLUME [Bytes]
 MP_Bcast                1                     12.
 MP_Allreduce         3386                      8.
 MP_Alltoall        380100                  26446.
 -------------------------------------------------------------------------------

 -------------------------------------------------------------------------------
 -                                                                             -
 -                                DBM STATISTICS                               -
 -                                                                             -
 -------------------------------------------------------------------------------
    M  x    N  x    K                                          COUNT     PERCENT
 -------------------------------------------------------------------------------

 -------------------------------------------------------------------------------
 -                                                                             -
 -                                GRID STATISTICS                              -
 -                                                                             -
 -------------------------------------------------------------------------------
 LP    KERNEL             BACKEND                              COUNT     PERCENT
 4     collocate ortho    REF                                  48120      52.59%
 4     integrate ortho    REF                                  43308      47.33%
 0     collocate general  REF                                     36       0.04%
 0     integrate general  REF                                     32       0.03%
 -------------------------------------------------------------------------------

 MEMORY| Estimated peak process memory [MiB]                                 578

 -------------------------------------------------------------------------------
 ----                             MULTIGRID INFO                            ----
 -------------------------------------------------------------------------------
 count for grid        1:          36368          cutoff [a.u.]          250.00
 count for grid        2:          26108          cutoff [a.u.]           83.33
 count for grid        3:          27692          cutoff [a.u.]           27.78
 count for grid        4:           6804          cutoff [a.u.]            9.26
 total gridlevel count  :          96972

 -------------------------------------------------------------------------------
 -                                                                             -
 -                         MESSAGE PASSING PERFORMANCE                         -
 -                                                                             -
 -------------------------------------------------------------------------------

 ROUTINE             CALLS      AVE VOLUME [Bytes]
 MP_Group                5
 MP_Bcast           165940                   1541.
 MP_Allreduce         2180                    681.
 MP_Sync               118
 MP_Alltoall           154             1262855547.
 MP_ISendRecv         7505                   6572.
 MP_Wait            145859
 MP_ISend           194319                    136.
 MP_IRecv           194387                    136.
 MP_Recv              2057                    864.
 MP_Write_All            1                   4740.
 -------------------------------------------------------------------------------


 -------------------------------------------------------------------------------
 -                                                                             -
 -                           R E F E R E N C E S                               -
 -                                                                             -
 -------------------------------------------------------------------------------
 
 CP2K version 2022.1 (Development Version), the CP2K developers group (2022).
 CP2K is freely available from https://www.cp2k.org/ .

 Kuehne,Thomas D.; Iannuzzi,Marcella; Del Ben,Mauro;
 Rybkin,Vladimir V.; Seewald,Patrick; Stein,Frederick; Laino,Teodoro;
 Khaliullin,Rustam Z.; Schuett,Ole; Schiffmann,Florian; Golze,Dorothea;
 Wilhelm,Jan; Chulkov,Sergey; Bani-Hashemian,Mohammad Hossein;
 Weber,Valery; Borstnik,Urban; Taillefumier,Mathieu;
 Jakobovits,Alice Shoshana; Lazzaro,Alfio; Pabst,Hans; Mueller,Tiziano;
 Schade,Robert; Guidon,Manuel; Andermatt,Samuel; Holmberg,Nico;
 Schenter,Gregory K.; Hehn,Anna; Bussy,Augustin; Belleflamme,Fabian;
 Tabacchi,Gloria; Gloess,Andreas; Lass,Michael; Bethune,Iain;
 Mundy,Christopher J.; Plessl,Christian; Watkins,Matt;
 VandeVondele,Joost; Krack,Matthias; Hutter,Juerg. 
 The Journal of Chemical Physics, 152 (19), (2020). 
 CP2K: An electronic structure and molecular dynamics software package -
 Quickstep: Efficient and accurate electronic structure calculations.
 https://doi.org/10.1063/5.0007045

 Togo, Atsushi; Tanaka, Isao. arXiv, 1808.01590 (2018). 
 Spglib : a software library for crystal symmetry search.
 https://doi.org/xxx

 Schuett, Ole; Messmer, Peter; Hutter, Juerg; VandeVondele, Joost. 
 Electronic Structure Calculations on Graphics Processing Units, John
 Wiley & Sons, Ltd, 173-190 (2016). 
 GPU-Accelerated Sparse Matrix-Matrix Multiplication for
 Linear Scaling Density Functional Theory.
 https://doi.org/10.1002/9781118670712.ch8

 Heinecke, A; Henry, G; Hutchinson, M; Pabst, H. 
 Proceedings of Intl. Supercomputing Conference, 981-991 (2016). 
 LIBXSMM: Accelerating Small Matrix Multiplications
 by Runtime Code Generation.
 https://doi.org/10.1109/SC.2016.83

 Borstnik, U; VandeVondele, J; Weber, V; Hutter, J. 
 PARALLEL COMPUTING, 40 (5-6), 47-58 (2014). 
 Sparse matrix multiplication: The distributed block-compressed sparse
 row library.
 https://doi.org/10.1016/j.parco.2014.03.012

 Hutter, J; Iannuzzi, M; Schiffmann, F; VandeVondele, J. 
 WIREs Comput Mol Sci., 4 (1), 15-25 (2014). 
 CP2K: atomistic simulations of condensed matter systems.
 https://doi.org/10.1002/wcms.1159

 VandeVondele, J; Hutter, J. 
 JOURNAL OF CHEMICAL PHYSICS, 127 (11), 114105 (2007). 
 Gaussian basis sets for accurate calculations on molecular systems in
 gas and condensed phases.
 https://doi.org/10.1063/1.2770708

 Krack, M. 
 THEORETICAL CHEMISTRY ACCOUNTS, 114 (1-3), 145-152 (2005). 
 Pseudopotentials for H to Kr optimized for gradient-corrected
 exchange-correlation functionals.
 https://doi.org/10.1007/s00214-005-0655-y

 VandeVondele, J; Krack, M; Mohamed, F; Parrinello, M; Chassaing, T;
 Hutter, J. COMPUTER PHYSICS COMMUNICATIONS, 167 (2), 103-128 (2005). 
 QUICKSTEP: Fast and accurate density functional calculations using a
 mixed Gaussian and plane waves approach.
 https://doi.org/10.1016/j.cpc.2004.12.014

 Frigo, M; Johnson, SG. 
 PROCEEDINGS OF THE IEEE, 93 (2), 216-231 (2005). 
 The design and implementation of FFTW3.
 https://doi.org/10.1109/JPROC.2004.840301

 Hartwigsen, C; Goedecker, S; Hutter, J. 
 PHYSICAL REVIEW B, 58 (7), 3641-3662 (1998). 
 Relativistic separable dual-space Gaussian pseudopotentials from H to Rn.
 https://doi.org/10.1103/PhysRevB.58.3641

 Lippert, G; Hutter, J; Parrinello, M. 
 MOLECULAR PHYSICS, 92 (3), 477-487 (1997). 
 A hybrid Gaussian and plane wave density functional scheme.
 https://doi.org/10.1080/002689797170220

 Goedecker, S; Teter, M; Hutter, J. 
 PHYSICAL REVIEW B, 54 (3), 1703-1710 (1996). 
 Separable dual-space Gaussian pseudopotentials.
 https://doi.org/10.1103/PhysRevB.54.1703


 -------------------------------------------------------------------------------
 -                                                                             -
 -                                T I M I N G                                  -
 -                                                                             -
 -------------------------------------------------------------------------------
 SUBROUTINE                       CALLS  ASD         SELF TIME        TOTAL TIME
                                MAXIMUM       AVERAGE  MAXIMUM  AVERAGE  MAXIMUM
 CP2K                                 1  1.0    0.112    0.297   87.590   87.593
 qs_energies                          1  2.0    0.001    0.001   87.073   87.074
 scf_env_do_scf                       1  3.0    0.000    0.000   86.454   86.479
 scf_env_do_scf_inner_loop            9  4.0    0.002    0.026   86.454   86.479
 qs_scf_new_mos_kp                    9  5.0    0.000    0.000   85.084   85.114
 do_general_diag_kp                   9  6.0    0.089    0.098   85.084   85.114
 cp_cfm_geeig                      4608  7.0    0.039    0.052   37.568   37.579
 cp_cfm_heevd                      4608  8.0   34.130   34.227   34.130   34.227
 copy_dbcsr_to_fm                 18619  7.0    0.122    0.134   20.316   20.352
 dbcsr_desymmetrize_deep          37051  7.5    0.338    0.419   18.698   18.841
 dbcsr_complete_redistribute      27835  8.3    0.591    0.744   16.553   16.621
 mp_alltoall_d11v                194658  9.4   12.493   12.613   12.493   12.613
 mp_alltoall_i11v                120556  9.1   11.603   11.623   11.603   11.623
 kpoint_density_matrices              9  7.0    0.028    0.030    9.283    9.287
 parallel_gemm_fm                 18432  8.0    0.012    0.013    9.251    9.256
 parallel_gemm_fm_cosma           18432  9.0    9.239    9.244    9.239    9.244
 hybrid_alltoall_any              37051  8.5    0.111    0.123    7.243    7.324
 mp_alltoall_i22                  64886  8.9    5.990    6.319    5.990    6.319
 kpoint_density_transform             9  7.0    0.020    0.021    5.827    5.829
 copy_fm_to_dbcsr                  9216  8.0    0.017    0.020    5.150    5.183
 mp_cart_sub                      37247  9.0    1.946    1.959    1.946    1.959
 rskp_transform                    9216  7.0    0.080    1.918    0.080    1.918
 -------------------------------------------------------------------------------

 The number of warnings for this run is : 1
 
 -------------------------------------------------------------------------------
  **** **** ******  **  PROGRAM ENDED AT                 2022-10-24 15:12:41.725
 ***** ** ***  *** **   PROGRAM RAN ON                     cn1068.scarf.rl.ac.uk
 **    ****   ******    PROGRAM RAN BY                                 scarf1157
 ***** **    ** ** **   PROGRAM PROCESS ID                                  5039
  **** **  *******  **  PROGRAM STOPPED IN /work4/scd/scarf1157/work/testing/cp2
                                           k-smeagol/bdt/cp2k/bulk/convergence/K
                                           points/Kpoints_8
