SIESTA 1.3.7  -- [1.3f1 release] (04 Feb 2004)
Architecture  : 
Compiler flags:  -O3
PARALLEL version

* Running on    4 nodes in parallel
>> Start of run:   7-NOV-2013  18:40:59

                           ***********************       
                           *  WELCOME TO SIESTA  *       
                           ***********************       

reinit: Reading from standard input
************************** Dump of input data file ****************************
#
SystemName                   mol            # Descriptive name of the system
SystemLabel                  mol            # Short name for naming files
NumberOfSpecies              1             # Number of species
NumberOfAtoms                2           # Number of atoms
%block ChemicalSpeciesLabel
 1    1   H
%endblock ChemicalSpeciesLabel
# ps
%block Ps.lmax
  H     3
%endblock Ps.lmax
# Basis
PAO.BasisType                split         # Type of basis ('nones', 'nonodes', 'split')
PAO.SplitNorm  0.15
%block PAO.Basis                           # basis
H     2      0.00
 n=1    0    2   E      2.07      0.50
   5.75  1.5
   1.000   1.000
 n=2    1    1   E      0.89      0.01
   5.500
   1.000
%endblock PAO.Basis
# lattice vectors
LatticeConstant              1.0 Ang
%block LatticeVectors
         8.86712000        0.00000000        0.00000000
         0.00000        8.86712000        0.00000000
         0.00000000        0.00000000       38.72
%endblock LatticeVectors
# coordinates
AtomicCoordinatesFormat      Ang
%block AtomicCoordinatesAndAtomicSpecies
    3.25353201    5.72009504   18.92650888   1  H          1
    3.25943370    5.72541280   19.67648495   1  H          2
%endblock AtomicCoordinatesAndAtomicSpecies
# constrains in relaxation
%block GeometryConstraints
   position 1
%endblock GeometryConstraints
# real space mesh grid
MeshCutoff                   800.0 Ry
%block GridCellSampling
  0.5  0.5   0.0
  0.5  0.0   0.5
  0.0  0.5   0.5
%endblock GridCellSampling
# reciprocal space
%block kgrid_Monkhorst_Pack
  1   0   0    0.0
  0   1   0    0.0
  0   0   1    0.0
%endblock kgrid_Monkhorst_Pack
#ProcessorY                   4
#BlockSize                    100
%block ExternalElectricField
   0.000 0.000 0.1 V/Ang
%endblock ExternalElectricField
# functional
xc.functional                GGA           # 'LDA', 'GGA'
xc.authors                   PBE           # 'CA'='PZ', 'PW92', 'PBE'
# scf
MaxSCFIterations             300
DM.MixingWeight              0.02
DM.Tolerance                 1.0E-4
DM.UseSaveDM                 T
DM.NumberPulay               6             # Pulay convergency accelerator
SolutionMethod               diagon
ElectronicTemperature        300 K         # Default value
# MD options
MD.TypeOfRun                 fc            # Type of dynamics:
MD.VariableCell              false         # if vary cell
MD.NumCGsteps                300             # Number of CG steps for relaxation
MD.MaxCGDispl                0.08 Ang     # Maximum atomic displacement at one step
MD.MaxForceTol               0.01 eV/Ang   # Tolerance in the maximum force min(fx, fy, fz)
MD.MaxStressTol              0.1 Gpa
MD.FCDispl                 0.02 ang
MD.FCIR                    T
MD.FCEigenVectors          T
MD.FCRead                  F
MD.FCAtomRestart           46
MD.FCAxisRestart           1
#Siesta Output Flags
SaveHS                       F           # Hamiltonian and overlap in sparse
SaveRHO                      T
WriteMullikenPop             1
WriteForces                  T
WriteCoorStep                T
SaveElectrostaticPotential   T             # Hartree Potential file
************************** End of input data file *****************************

reinit: -----------------------------------------------------------------------
reinit: System Name: mol                                                        
reinit: -----------------------------------------------------------------------
reinit: System Label: mol                 
reinit: -----------------------------------------------------------------------

initatom: Reading input for the pseudopotentials and atomic orbitals ----------
 Species number:            1  Label: H Atomic number:           1
Ground state valence configuration:   1s01
Reading pseudopotential information in formatted form from H.psf
relmxkb: Read Max KB Ang. Momentum=    3 for species H

<basis_specs>
===============================================================================
H                    Z=   1    Mass=  1.0100        Charge=  0.0000    
Lmxo=1 Lmxkb=3     BasisType=split      Semic=F
L=0  Nsemic=0  Cnfigmx=1
          n=1  nzeta=2  polorb=0
               vcte:    2.0700    
               rinn:   0.50000    
                rcs:    5.7500      1.5000    
            lambdas:    1.0000      1.0000    
L=1  Nsemic=0  Cnfigmx=2
          n=1  nzeta=1  polorb=0
               vcte:   0.89000    
               rinn:   0.10000E-01
                rcs:    5.5000    
            lambdas:    1.0000    
-------------------------------------------------------------------------------
L=0  Nkbl=1  erefs: 0.17977+309
L=1  Nkbl=1  erefs: 0.17977+309
L=2  Nkbl=1  erefs: 0.17977+309
L=3  Nkbl=1  erefs: 0.17977+309
===============================================================================
</basis_specs>

atom: Called for H   (Z =   1)

read_vps: Pseudopotential generation method:
read_vps: ATM3      Troullier-Martins                       

read_vps: Valence configuration (pseudopotential and basis set generation):
1s( 1.00) rc: 1.89
2p( 0.00) rc: 1.80
3d( 0.00) rc: 1.49
4f( 0.00) rc: 1.49
read_vps: Spin-orbit interaction is not included in this calculation
Total valence charge:    1.00000

xc_check: Exchange-correlation functional:
xc_check: GGA Perdew, Burke & Ernzerhof 1996
V l=0 = -2*Zval/r beyond r=  1.8658
V l=1 = -2*Zval/r beyond r=  1.7970
V l=2 = -2*Zval/r beyond r=  1.8196
V l=3 = -2*Zval/r beyond r=  1.8196
All V_l potentials equal beyond r=  1.8658
This should be close to max(r_c) in ps generation
All pots = -2*Zval/r beyond r=  1.8658

VLOCAL1: 99.0% of the norm of Vloc inside     12.470 Ry
VLOCAL1: 99.9% of the norm of Vloc inside     28.418 Ry
atom: Maximum radius for 4*pi*r*r*local-pseudopot. charge    2.16811
atom: Maximum radius for r*vlocal+2*Zval:    1.84256
GHOST: No ghost state for L =  0
GHOST: No ghost state for L =  1
GHOST: No ghost state for L =  2
GHOST: No ghost state for L =  3

KBgen: Kleinman-Bylander projectors: 
   l= 0   rc=  2.011274   el= -0.477200   Ekb= -1.572097   kbcos= -0.493163
   l= 1   rc=  2.141150   el=  0.001076   Ekb= -0.356432   kbcos= -0.050277
   l= 2   rc=  2.195416   el=  0.002010   Ekb= -0.177656   kbcos= -0.007774
   l= 3   rc=  2.251056   el=  0.003122   Ekb= -0.068270   kbcos= -0.002268

KBgen: Total number of  Kleinman-Bylander projectors:   16
atom: -------------------------------------------------------------------------

atom: SANKEY-TYPE ORBITALS:
atom: Selected multiple-zeta basis: split     

SPLIT: Orbitals with angular momentum L= 0

SPLIT: Basis orbitals for state 1s

   izeta = 1
                 lambda =    1.000000
                     rc =    5.752124
                 energy =   -0.469599
                kinetic =    0.919264
    potential(screened) =   -1.388863
       potential(ionic) =   -1.911599

   izeta = 2
                 rmatch =    1.527112
              splitnorm =    0.807394
                 energy =    2.126033
                kinetic =    5.261681
    potential(screened) =   -3.135649
       potential(ionic) =   -3.696632

SPLIT: Orbitals with angular momentum L= 1

SPLIT: Basis orbitals for state 2p

   izeta = 1
                 lambda =    1.000000
                     rc =    5.471469
                 energy =    0.371359
                kinetic =    0.737398
    potential(screened) =   -0.366040
       potential(ionic) =   -0.791603
atom: Total number of Sankey-type orbitals:  5

atm_pop: Valence configuration(local Pseudopot. screening):
 1s( 1.00)                                                            
 2p( 0.00)                                                            
Vna: chval, zval:    1.00000   1.00000

Vna:  Cut-off radius for the neutral-atom potential:   5.752124

atom: _________________________________________________________________________

prinput: Basis input ----------------------------------------------------------

PAO.BasisType split     

%block ChemicalSpeciesLabel
    1    1 H                       # Species index, atomic number, species label
%endblock ChemicalSpeciesLabel

%block PAO.Basis                 # Define Basis set
H           2                    # Species label, number of l-shells
 n=1   0   2                         # n, l, Nzeta 
   5.752      1.527   
   1.000      1.000   
 n=2   1   1                         # n, l, Nzeta 
   5.471   
   1.000   
%endblock PAO.Basis

prinput: ----------------------------------------------------------------------


siesta: ******************** Simulation parameters ****************************
siesta:
siesta: The following are some of the parameters of the simulation.
siesta: A complete list of the parameters used, including defect values,
siesta: can be found in file out.fdf
siesta:
coor:   Atomic-coordinates input format  =     Cartesian coordinates
coor:                                          (in Angstroms)
redata: Number of spin components        =     1
redata: SpinOrbit                        =     0
redata: Long output                      =     F
redata: Number of Atomic Species         =     1
redata: Charge density info will appear in .RHO file
redata: Write Mulliken Pop.              =     Atomic and Orbital charges
redata: Mesh Cutoff                      =   800.0000  Ry
redata: Net charge of the system         =     0.0000 |e|
redata: Max. number of SCF Iter          =   300
redata: One Pulay mixing every           =     6 iterations
redata: Mix DM in first SCF step ?       =     F
redata: Write Pulay info on disk?        =     F
redata: New DM Mixing Weight             =     0.0200
redata: No kicks to SCF
redata: DM Mixing Weight for Kicks       =     0.5000
redata: DM Tolerance for SCF             =     0.000100
redata: Use continuation files for DM    =     T
redata: Neglect nonoverlap interactions  =     F
redata: Method of Calculation            =     Diagonalization
redata: Divide and Conquer               =     F
redata: Electronic Temperature           =     0.0019  Ry
redata: Fix the spin of the system       =     F
redata: Dynamics option                  =     Force Constants Matrix Calculation
redata: Atomic displ for force constants =     0.0378  Bohr
redata: First atom to move               =      1
redata: Last atom to move                =      2
redata: Read previous FC                 =     F
redata: Acoustic sum rule                =     T
redata: Calculate Eigen Vectors          =     T
redata: Calculate Infrared Intensity     =     T
redata: ***********************************************************************

siesta: Atomic coordinates (Bohr) and species
siesta:      6.14829  10.80942  35.76593  1        1
siesta:      6.15944  10.81947  37.18318  1        2

initatomlists: Number of atoms, orbitals, and projectors:      2    10    32

siesta: System type = molecule  
 Nodes, Orbitals           4          10
 blocksizedefault           2

* ProcessorY, Blocksize:    2   2

 Using EM.ParallelOverKNum =           1
 label:           1 H                              1 s      
 label:           2 H                              1 s      
 label:           3 H                              1 py     
 label:           4 H                              1 pz     
 label:           5 H                              1 px     
 label:           6 H                              2 s      
 label:           7 H                              2 s      
 label:           8 H                              2 py     
 label:           9 H                              2 pz     
 label:          10 H                              2 px     
 
* Maximum dynamic memory allocated =     1 MB

siesta:                 ==============================
                        Begin FC step =     0 of    12
                            Undisplaced coordinates
                        ==============================

outcoor: Atomic coordinates (Ang):                          
    3.25353201    5.72009504   18.92650888   1  H          1
    3.25943370    5.72541280   19.67648495   1  H          2

read_ldau The LDA+U method used is from Czyzky PRB 49 14211

iodm: Reading Density Matrix from files

mol.DM                           

InitMesh: MESH =   160 x   160 x   720 =    18432000
InitMesh: Mesh cutoff (required, used) =   800.000   899.863 Ry

efield: External electric field =    0.000000    0.000000    0.003889 Ry/Bohr/e
 
* Maximum dynamic memory allocated =   250 MB

stepf: Fermi-Dirac step function

siesta: Program's energy decomposition (eV):
siesta: Eions   =        26.074526
siesta: Ena     =         4.295649
siesta: Ekin    =        26.390606
siesta: Enl     =       -17.161877
siesta: DEna    =        -1.459674
siesta: DUscf   =         0.252196
siesta: DUext   =        -0.000717
siesta: Exc     =       -17.577954
siesta: eta*DQ  =         0.000000
siesta: Emadel  =         0.000000
siesta: Eharris =       -31.336297
siesta: Eso     =         0.000000
siesta: Etot    =       -31.336297
siesta: FreeEng =       -31.336297

siesta: iscf   Eharris(eV)      E_KS(eV)   FreeEng(eV)     dDmax   Ef(eV)
siesta:    1      -31.3363      -31.3363      -31.3363   0.00001  -4.8936
timer: Routine,Calls,Time,% = IterSCF        1      39.200  92.78
grdsam: Reading %block GridCellSampling
grdsam: Grid-cell sampling, point   0
grdsam: Generating displacements for grid-cell sampling
grdsam: Grid-cell sampling, point   1
grdsam: Grid-cell sampling, point   2
grdsam: Grid-cell sampling, point   3

siesta: E_KS(eV) =              -31.3363

siesta: E_KS - E_eggbox =       -31.3363

siesta: Atomic forces (eV/Ang):
     1   -0.000013   -0.000015    0.000746
     2    0.000020    0.000020   -0.000664
----------------------------------------
 Tot    0.000008    0.000006    0.000082
----------------------------------------
 Max    0.000746
 Res    0.000408    sqrt( Sum f_i^2 / 3N )
----------------------------------------
 Max    0.000664    constrained
 
mulliken: Atomic and Orbital Populations:

Species: H                   
Atom  Qatom  Qorb
               1s      1s      2py     2pz     2px     
   1  1.003   0.906   0.083   0.000   0.013   0.000
   2  0.997   0.899   0.083   0.000   0.015   0.000

mulliken: Qtot =    2.000
 
* Maximum dynamic memory allocated =   250 MB

siesta:                 ==============================
                        Begin FC step =     1 of    12
                            displace atom        1
                            in direction         1
                        by  -0.0378 Bohr =  -0.0200 Ang
                        ==============================

outcoor: Atomic coordinates (Ang):                          
    3.23353201    5.72009504   18.92650888   1  H          1
    3.25943370    5.72541280   19.67648495   1  H          2

siesta: iscf   Eharris(eV)      E_KS(eV)   FreeEng(eV)     dDmax   Ef(eV)
siesta:    1      -31.3363      -31.3363      -31.3363   0.00065  -4.8910
siesta:    2      -31.3363      -31.3363      -31.3363   0.00002  -4.8923
grdsam: Grid-cell sampling, point   0
grdsam: Grid-cell sampling, point   1
grdsam: Grid-cell sampling, point   2
grdsam: Grid-cell sampling, point   3

siesta: E_KS(eV) =              -31.3363

siesta: Atomic forces (eV/Ang):
     1    0.000632    0.000071    0.015612
     2   -0.000589   -0.000086   -0.015535
----------------------------------------
 Tot    0.000043   -0.000015    0.000077
----------------------------------------
 Max    0.015612
 Res    0.008998    sqrt( Sum f_i^2 / 3N )
----------------------------------------
 Max    0.015535    constrained
 
mulliken: Atomic and Orbital Populations:

Species: H                   
Atom  Qatom  Qorb
               1s      1s      2py     2pz     2px     
   1  1.003   0.907   0.083   0.000   0.013   0.000
   2  0.997   0.899   0.083   0.000   0.015   0.000

mulliken: Qtot =    2.000
 
* Maximum dynamic memory allocated =   251 MB

siesta:                 ==============================
                        Begin FC step =     2 of    12
                            displace atom        1
                            in direction         1
                        by   0.0378 Bohr =   0.0200 Ang
                        ==============================

outcoor: Atomic coordinates (Ang):                          
    3.27353201    5.72009504   18.92650888   1  H          1
    3.25943370    5.72541280   19.67648495   1  H          2

siesta: iscf   Eharris(eV)      E_KS(eV)   FreeEng(eV)     dDmax   Ef(eV)
siesta:    1      -31.3363      -31.3363      -31.3363   0.00130  -4.8943
siesta:    2      -31.3363      -31.3363      -31.3363   0.00005  -4.8931
grdsam: Grid-cell sampling, point   0
grdsam: Grid-cell sampling, point   1
grdsam: Grid-cell sampling, point   2
grdsam: Grid-cell sampling, point   3

siesta: E_KS(eV) =              -31.3363

siesta: Atomic forces (eV/Ang):
     1   -0.000083    0.000089    0.004949
     2    0.000118   -0.000009   -0.004878
----------------------------------------
 Tot    0.000034    0.000080    0.000070
----------------------------------------
 Max    0.004949
 Res    0.002838    sqrt( Sum f_i^2 / 3N )
----------------------------------------
 Max    0.004878    constrained
 
mulliken: Atomic and Orbital Populations:

Species: H                   
Atom  Qatom  Qorb
               1s      1s      2py     2pz     2px     
   1  1.003   0.906   0.083   0.000   0.013   0.000
   2  0.997   0.899   0.083   0.000   0.015   0.000

mulliken: Qtot =    2.000
 
* Maximum dynamic memory allocated =   251 MB

siesta:                 ==============================
                        Begin FC step =     3 of    12
                            displace atom        1
                            in direction         2
                        by  -0.0378 Bohr =  -0.0200 Ang
                        ==============================

outcoor: Atomic coordinates (Ang):                          
    3.25353201    5.70009504   18.92650888   1  H          1
    3.25943370    5.72541280   19.67648495   1  H          2

siesta: iscf   Eharris(eV)      E_KS(eV)   FreeEng(eV)     dDmax   Ef(eV)
siesta:    1      -31.3363      -31.3363      -31.3363   0.00065  -4.8912
siesta:    2      -31.3363      -31.3363      -31.3363   0.00002  -4.8923
grdsam: Grid-cell sampling, point   0
grdsam: Grid-cell sampling, point   1
grdsam: Grid-cell sampling, point   2
grdsam: Grid-cell sampling, point   3

siesta: E_KS(eV) =              -31.3363

siesta: Atomic forces (eV/Ang):
     1    0.000084    0.000535    0.015101
     2   -0.000101   -0.000489   -0.015025
----------------------------------------
 Tot   -0.000017    0.000046    0.000076
----------------------------------------
 Max    0.015101
 Res    0.008702    sqrt( Sum f_i^2 / 3N )
----------------------------------------
 Max    0.015025    constrained
 
mulliken: Atomic and Orbital Populations:

Species: H                   
Atom  Qatom  Qorb
               1s      1s      2py     2pz     2px     
   1  1.003   0.907   0.083   0.000   0.013   0.000
   2  0.997   0.899   0.083   0.000   0.015   0.000

mulliken: Qtot =    2.000
 
* Maximum dynamic memory allocated =   251 MB

siesta:                 ==============================
                        Begin FC step =     4 of    12
                            displace atom        1
                            in direction         2
                        by   0.0378 Bohr =   0.0200 Ang
                        ==============================

outcoor: Atomic coordinates (Ang):                          
    3.25353201    5.74009504   18.92650888   1  H          1
    3.25943370    5.72541280   19.67648495   1  H          2

siesta: iscf   Eharris(eV)      E_KS(eV)   FreeEng(eV)     dDmax   Ef(eV)
siesta:    1      -31.3363      -31.3363      -31.3363   0.00130  -4.8942
siesta:    2      -31.3363      -31.3363      -31.3363   0.00005  -4.8931
grdsam: Grid-cell sampling, point   0
grdsam: Grid-cell sampling, point   1
grdsam: Grid-cell sampling, point   2
grdsam: Grid-cell sampling, point   3

siesta: E_KS(eV) =              -31.3363

siesta: Atomic forces (eV/Ang):
     1    0.000095   -0.000085    0.005480
     2   -0.000016    0.000121   -0.005408
----------------------------------------
 Tot    0.000078    0.000035    0.000072
----------------------------------------
 Max    0.005480
 Res    0.003144    sqrt( Sum f_i^2 / 3N )
----------------------------------------
 Max    0.005408    constrained
 
mulliken: Atomic and Orbital Populations:

Species: H                   
Atom  Qatom  Qorb
               1s      1s      2py     2pz     2px     
   1  1.003   0.906   0.083   0.000   0.013   0.000
   2  0.997   0.899   0.083   0.000   0.015   0.000

mulliken: Qtot =    2.000
 
* Maximum dynamic memory allocated =   251 MB

siesta:                 ==============================
                        Begin FC step =     5 of    12
                            displace atom        1
                            in direction         3
                        by  -0.0378 Bohr =  -0.0200 Ang
                        ==============================

outcoor: Atomic coordinates (Ang):                          
    3.25353201    5.72009504   18.90650888   1  H          1
    3.25943370    5.72541280   19.67648495   1  H          2

siesta: iscf   Eharris(eV)      E_KS(eV)   FreeEng(eV)     dDmax   Ef(eV)
siesta:    1      -31.3296      -31.3276      -31.3276   0.00511  -4.7723
siesta:    2      -31.3294      -31.3294      -31.3294   0.00071  -4.8321
siesta:    3      -31.3294      -31.3293      -31.3293   0.00022  -4.8259
siesta:    4      -31.3294      -31.3294      -31.3294   0.00008  -4.8266
grdsam: Grid-cell sampling, point   0
grdsam: Grid-cell sampling, point   1
grdsam: Grid-cell sampling, point   2
grdsam: Grid-cell sampling, point   3

siesta: E_KS(eV) =              -31.3294

siesta: Atomic forces (eV/Ang):
     1    0.005103    0.004822    0.666326
     2   -0.005081   -0.004798   -0.666333
----------------------------------------
 Tot    0.000021    0.000024   -0.000006
----------------------------------------
 Max    0.666333
 Res    0.384727    sqrt( Sum f_i^2 / 3N )
----------------------------------------
 Max    0.666333    constrained
 
mulliken: Atomic and Orbital Populations:

Species: H                   
Atom  Qatom  Qorb
               1s      1s      2py     2pz     2px     
   1  1.003   0.911   0.079   0.000   0.013   0.000
   2  0.997   0.904   0.079   0.000   0.015   0.000

mulliken: Qtot =    2.000
 
* Maximum dynamic memory allocated =   251 MB

siesta:                 ==============================
                        Begin FC step =     6 of    12
                            displace atom        1
                            in direction         3
                        by   0.0378 Bohr =   0.0200 Ang
                        ==============================

outcoor: Atomic coordinates (Ang):                          
    3.25353201    5.72009504   18.94650888   1  H          1
    3.25943370    5.72541280   19.67648495   1  H          2

siesta: iscf   Eharris(eV)      E_KS(eV)   FreeEng(eV)     dDmax   Ef(eV)
siesta:    1      -31.3295      -31.3214      -31.3214   0.01025  -5.0762
siesta:    2      -31.3287      -31.3287      -31.3287   0.00151  -4.9480
siesta:    3      -31.3287      -31.3279      -31.3279   0.00044  -4.9628
siesta:    4      -31.3287      -31.3288      -31.3288   0.00018  -4.9597
siesta:    5      -31.3287      -31.3288      -31.3288   0.00017  -4.9598
siesta:    6      -31.3287      -31.3288      -31.3288   0.00017  -4.9598
siesta:    7      -31.3287      -31.3288      -31.3288   0.00016  -4.9598
siesta:    8      -31.3287      -31.3288      -31.3288   0.00016  -4.9598
siesta:    9      -31.3287      -31.3288      -31.3288   0.00015  -4.9598
siesta:   10      -31.3287      -31.3288      -31.3288   0.00015  -4.9599
siesta:   11      -31.3287      -31.3288      -31.3288   0.00015  -4.9599
siesta:   12      -31.3287      -31.3288      -31.3288   0.00014  -4.9599
siesta:   13      -31.3287      -31.3288      -31.3288   0.00014  -4.9599
siesta:   14      -31.3287      -31.3288      -31.3288   0.00013  -4.9599
siesta:   15      -31.3287      -31.3288      -31.3288   0.00013  -4.9599
siesta:   16      -31.3287      -31.3288      -31.3288   0.00013  -4.9600
siesta:   17      -31.3287      -31.3288      -31.3288   0.00012  -4.9600
siesta:   18      -31.3287      -31.3288      -31.3288   0.00012  -4.9600
siesta:   19      -31.3287      -31.3288      -31.3288   0.00012  -4.9600
siesta:   20      -31.3287      -31.3288      -31.3288   0.00011  -4.9600
siesta:   21      -31.3287      -31.3288      -31.3288   0.00011  -4.9600
siesta:   22      -31.3287      -31.3288      -31.3288   0.00011  -4.9601
siesta:   23      -31.3287      -31.3288      -31.3288   0.00011  -4.9601
siesta:   24      -31.3287      -31.3288      -31.3288   0.00010  -4.9601
siesta:   25      -31.3287      -31.3288      -31.3288   0.00010  -4.9601
siesta:   26      -31.3287      -31.3288      -31.3288   0.00010  -4.9601
grdsam: Grid-cell sampling, point   0
grdsam: Grid-cell sampling, point   1
grdsam: Grid-cell sampling, point   2
grdsam: Grid-cell sampling, point   3

siesta: E_KS(eV) =              -31.3288

siesta: Atomic forces (eV/Ang):
     1   -0.006261   -0.005641   -0.774703
     2    0.006290    0.005670    0.774805
----------------------------------------
 Tot    0.000029    0.000029    0.000102
----------------------------------------
 Max    0.774805
 Res    0.447331    sqrt( Sum f_i^2 / 3N )
----------------------------------------
 Max    0.774805    constrained
 
mulliken: Atomic and Orbital Populations:

Species: H                   
Atom  Qatom  Qorb
               1s      1s      2py     2pz     2px     
   1  1.003   0.902   0.088   0.000   0.014   0.000
   2  0.997   0.894   0.088   0.000   0.015   0.000

mulliken: Qtot =    2.000
 
* Maximum dynamic memory allocated =   251 MB

siesta:                 ==============================
                        Begin FC step =     7 of    12
                            displace atom        2
                            in direction         1
                        by  -0.0378 Bohr =  -0.0200 Ang
                        ==============================

outcoor: Atomic coordinates (Ang):                          
    3.25353201    5.72009504   18.92650888   1  H          1
    3.23943370    5.72541280   19.67648495   1  H          2

siesta: iscf   Eharris(eV)      E_KS(eV)   FreeEng(eV)     dDmax   Ef(eV)
siesta:    1      -31.3365      -31.3344      -31.3344   0.00523  -4.8354
siesta:    2      -31.3363      -31.3363      -31.3363   0.00074  -4.8992
siesta:    3      -31.3363      -31.3361      -31.3361   0.00023  -4.8923
siesta:    4      -31.3363      -31.3363      -31.3363   0.00006  -4.8929
grdsam: Grid-cell sampling, point   0
grdsam: Grid-cell sampling, point   1
grdsam: Grid-cell sampling, point   2
grdsam: Grid-cell sampling, point   3

siesta: E_KS(eV) =              -31.3363

siesta: Atomic forces (eV/Ang):
     1   -0.000381    0.000021    0.006070
     2    0.000360   -0.000074   -0.005986
----------------------------------------
 Tot   -0.000021   -0.000052    0.000084
----------------------------------------
 Max    0.006070
 Res    0.003487    sqrt( Sum f_i^2 / 3N )
----------------------------------------
 Max    0.005986    constrained
 
mulliken: Atomic and Orbital Populations:

Species: H                   
Atom  Qatom  Qorb
               1s      1s      2py     2pz     2px     
   1  1.003   0.906   0.083   0.000   0.013   0.000
   2  0.997   0.899   0.083   0.000   0.015   0.000

mulliken: Qtot =    2.000
 
* Maximum dynamic memory allocated =   251 MB

siesta:                 ==============================
                        Begin FC step =     8 of    12
                            displace atom        2
                            in direction         1
                        by   0.0378 Bohr =   0.0200 Ang
                        ==============================

outcoor: Atomic coordinates (Ang):                          
    3.25353201    5.72009504   18.92650888   1  H          1
    3.27943370    5.72541280   19.67648495   1  H          2

siesta: iscf   Eharris(eV)      E_KS(eV)   FreeEng(eV)     dDmax   Ef(eV)
siesta:    1      -31.3363      -31.3363      -31.3363   0.00130  -4.8910
siesta:    2      -31.3363      -31.3363      -31.3363   0.00005  -4.8923
grdsam: Grid-cell sampling, point   0
grdsam: Grid-cell sampling, point   1
grdsam: Grid-cell sampling, point   2
grdsam: Grid-cell sampling, point   3

siesta: E_KS(eV) =              -31.3363

siesta: Atomic forces (eV/Ang):
     1    0.000509    0.000090    0.015609
     2   -0.000556   -0.000081   -0.015530
----------------------------------------
 Tot   -0.000047    0.000009    0.000079
----------------------------------------
 Max    0.015609
 Res    0.008995    sqrt( Sum f_i^2 / 3N )
----------------------------------------
 Max    0.015530    constrained
 
mulliken: Atomic and Orbital Populations:

Species: H                   
Atom  Qatom  Qorb
               1s      1s      2py     2pz     2px     
   1  1.003   0.907   0.083   0.000   0.013   0.000
   2  0.997   0.899   0.083   0.000   0.015   0.000

mulliken: Qtot =    2.000
 
* Maximum dynamic memory allocated =   251 MB

siesta:                 ==============================
                        Begin FC step =     9 of    12
                            displace atom        2
                            in direction         2
                        by  -0.0378 Bohr =  -0.0200 Ang
                        ==============================

outcoor: Atomic coordinates (Ang):                          
    3.25353201    5.72009504   18.92650888   1  H          1
    3.25943370    5.70541280   19.67648495   1  H          2

siesta: iscf   Eharris(eV)      E_KS(eV)   FreeEng(eV)     dDmax   Ef(eV)
siesta:    1      -31.3363      -31.3363      -31.3363   0.00065  -4.8942
siesta:    2      -31.3363      -31.3363      -31.3363   0.00003  -4.8931
grdsam: Grid-cell sampling, point   0
grdsam: Grid-cell sampling, point   1
grdsam: Grid-cell sampling, point   2
grdsam: Grid-cell sampling, point   3

siesta: E_KS(eV) =              -31.3363

siesta: Atomic forces (eV/Ang):
     1    0.000000   -0.000149    0.005503
     2   -0.000051    0.000127   -0.005421
----------------------------------------
 Tot   -0.000050   -0.000022    0.000082
----------------------------------------
 Max    0.005503
 Res    0.003155    sqrt( Sum f_i^2 / 3N )
----------------------------------------
 Max    0.005421    constrained
 
mulliken: Atomic and Orbital Populations:

Species: H                   
Atom  Qatom  Qorb
               1s      1s      2py     2pz     2px     
   1  1.003   0.906   0.083   0.000   0.013   0.000
   2  0.997   0.899   0.083   0.000   0.015   0.000

mulliken: Qtot =    2.000
 
* Maximum dynamic memory allocated =   251 MB

siesta:                 ==============================
                        Begin FC step =    10 of    12
                            displace atom        2
                            in direction         2
                        by   0.0378 Bohr =   0.0200 Ang
                        ==============================

outcoor: Atomic coordinates (Ang):                          
    3.25353201    5.72009504   18.92650888   1  H          1
    3.25943370    5.74541280   19.67648495   1  H          2

siesta: iscf   Eharris(eV)      E_KS(eV)   FreeEng(eV)     dDmax   Ef(eV)
siesta:    1      -31.3363      -31.3363      -31.3363   0.00130  -4.8913
siesta:    2      -31.3363      -31.3363      -31.3363   0.00005  -4.8923
grdsam: Grid-cell sampling, point   0
grdsam: Grid-cell sampling, point   1
grdsam: Grid-cell sampling, point   2
grdsam: Grid-cell sampling, point   3

siesta: E_KS(eV) =              -31.3363

siesta: Atomic forces (eV/Ang):
     1    0.000100    0.000456    0.015121
     2   -0.000087   -0.000507   -0.015040
----------------------------------------
 Tot    0.000013   -0.000050    0.000081
----------------------------------------
 Max    0.015121
 Res    0.008711    sqrt( Sum f_i^2 / 3N )
----------------------------------------
 Max    0.015040    constrained
 
mulliken: Atomic and Orbital Populations:

Species: H                   
Atom  Qatom  Qorb
               1s      1s      2py     2pz     2px     
   1  1.003   0.907   0.083   0.000   0.013   0.000
   2  0.997   0.899   0.083   0.000   0.015   0.000

mulliken: Qtot =    2.000
 
* Maximum dynamic memory allocated =   251 MB

siesta:                 ==============================
                        Begin FC step =    11 of    12
                            displace atom        2
                            in direction         3
                        by  -0.0378 Bohr =  -0.0200 Ang
                        ==============================

outcoor: Atomic coordinates (Ang):                          
    3.25353201    5.72009504   18.92650888   1  H          1
    3.25943370    5.72541280   19.65648495   1  H          2

siesta: iscf   Eharris(eV)      E_KS(eV)   FreeEng(eV)     dDmax   Ef(eV)
siesta:    1      -31.3289      -31.3268      -31.3268   0.00532  -5.0223
siesta:    2      -31.3287      -31.3287      -31.3287   0.00080  -4.9561
siesta:    3      -31.3287      -31.3285      -31.3285   0.00023  -4.9637
siesta:    4      -31.3287      -31.3287      -31.3287   0.00007  -4.9625
grdsam: Grid-cell sampling, point   0
grdsam: Grid-cell sampling, point   1
grdsam: Grid-cell sampling, point   2
grdsam: Grid-cell sampling, point   3

siesta: E_KS(eV) =              -31.3287

siesta: Atomic forces (eV/Ang):
     1   -0.006304   -0.005768   -0.777383
     2    0.006264    0.005725    0.777444
----------------------------------------
 Tot   -0.000039   -0.000043    0.000061
----------------------------------------
 Max    0.777444
 Res    0.448867    sqrt( Sum f_i^2 / 3N )
----------------------------------------
 Max    0.777444    constrained
 
mulliken: Atomic and Orbital Populations:

Species: H                   
Atom  Qatom  Qorb
               1s      1s      2py     2pz     2px     
   1  1.003   0.902   0.088   0.000   0.014   0.000
   2  0.997   0.894   0.088   0.000   0.015   0.000

mulliken: Qtot =    2.000
 
* Maximum dynamic memory allocated =   251 MB

siesta:                 ==============================
                        Begin FC step =    12 of    12
                            displace atom        2
                            in direction         3
                        by   0.0378 Bohr =   0.0200 Ang
                        ==============================

outcoor: Atomic coordinates (Ang):                          
    3.25353201    5.72009504   18.92650888   1  H          1
    3.25943370    5.72541280   19.69648495   1  H          2

siesta: iscf   Eharris(eV)      E_KS(eV)   FreeEng(eV)     dDmax   Ef(eV)
siesta:    1      -31.3301      -31.3221      -31.3221   0.01029  -4.7142
siesta:    2      -31.3294      -31.3294      -31.3294   0.00142  -4.8356
siesta:    3      -31.3294      -31.3287      -31.3287   0.00044  -4.8228
siesta:    4      -31.3294      -31.3294      -31.3294   0.00018  -4.8238
siesta:    5      -31.3294      -31.3294      -31.3294   0.00018  -4.8238
siesta:    6      -31.3294      -31.3294      -31.3294   0.00017  -4.8239
siesta:    7      -31.3294      -31.3294      -31.3294   0.00017  -4.8239
siesta:    8      -31.3294      -31.3294      -31.3294   0.00016  -4.8239
siesta:    9      -31.3294      -31.3294      -31.3294   0.00016  -4.8239
siesta:   10      -31.3294      -31.3294      -31.3294   0.00015  -4.8239
siesta:   11      -31.3294      -31.3294      -31.3294   0.00015  -4.8240
siesta:   12      -31.3294      -31.3294      -31.3294   0.00014  -4.8240
siesta:   13      -31.3294      -31.3294      -31.3294   0.00014  -4.8240
siesta:   14      -31.3294      -31.3294      -31.3294   0.00014  -4.8240
siesta:   15      -31.3294      -31.3294      -31.3294   0.00013  -4.8240
siesta:   16      -31.3294      -31.3294      -31.3294   0.00013  -4.8240
siesta:   17      -31.3294      -31.3294      -31.3294   0.00013  -4.8241
siesta:   18      -31.3294      -31.3294      -31.3294   0.00012  -4.8241
siesta:   19      -31.3294      -31.3294      -31.3294   0.00012  -4.8241
siesta:   20      -31.3294      -31.3294      -31.3294   0.00012  -4.8241
siesta:   21      -31.3294      -31.3294      -31.3294   0.00011  -4.8241
siesta:   22      -31.3294      -31.3294      -31.3294   0.00011  -4.8241
siesta:   23      -31.3294      -31.3294      -31.3294   0.00011  -4.8242
siesta:   24      -31.3294      -31.3294      -31.3294   0.00010  -4.8242
siesta:   25      -31.3294      -31.3294      -31.3294   0.00010  -4.8242
siesta:   26      -31.3294      -31.3294      -31.3294   0.00010  -4.8242
grdsam: Grid-cell sampling, point   0
grdsam: Grid-cell sampling, point   1
grdsam: Grid-cell sampling, point   2
grdsam: Grid-cell sampling, point   3

siesta: E_KS(eV) =              -31.3294

siesta: Atomic forces (eV/Ang):
     1    0.005110    0.004601    0.669460
     2   -0.005127   -0.004619   -0.669452
----------------------------------------
 Tot   -0.000017   -0.000018    0.000008
----------------------------------------
 Max    0.669460
 Res    0.386531    sqrt( Sum f_i^2 / 3N )
----------------------------------------
 Max    0.669452    constrained
 
mulliken: Atomic and Orbital Populations:

Species: H                   
Atom  Qatom  Qorb
               1s      1s      2py     2pz     2px     
   1  1.003   0.911   0.079   0.000   0.013   0.000
   2  0.997   0.904   0.079   0.000   0.015   0.000

mulliken: Qtot =    2.000
 
* Maximum dynamic memory allocated =   251 MB

outcoor: Final (unrelaxed) atomic coordinates (Ang):        
    3.25353201    5.72009504   18.92650888   1  H          1
    3.25943370    5.72541280   19.67648495   1  H          2

siesta: Eigenvalues (eV):
  ik is    eps
   1  1 -10.96   1.36   4.19   4.19   9.68  10.78  10.78  17.36  44.24  89.13
siesta: Fermi energy =      -4.824193 eV

siesta: Program's energy decomposition (eV):
siesta:-Eions   =     -26.074526
siesta: Ena     =       4.056097
siesta: Ekin    =      25.969822
siesta: Enl     =     -16.711420
siesta: DEna    =      -1.361243
siesta: DUscf   =       0.229710
siesta: DUext   =      -0.000739
siesta: Exc     =     -17.437098
siesta: eta*DQ  =       0.000000
siesta: Emadel  =       0.000000
siesta: Ekinion =       0.000000
siesta: Eharris =     -31.329443
siesta: Eso     =       0.000000
siesta: Etot    =     -31.329396
siesta: FreeEng =     -31.329396

siesta: Final energy (eV):
siesta:       Kinetic =      25.969822
siesta:       Hartree =      35.243585
siesta:    Ext. field =      -0.000739
siesta:   Exch.-corr. =     -17.437098
siesta:  Ion-electron =     -95.984692
siesta:       Ion-ion =      20.879726
siesta:       Ekinion =       0.000000
siesta:         Total =     -31.329396

siesta: Atomic forces (eV/Ang):
siesta:    1    0.005110    0.004601    0.669460
siesta:    2   -0.005127   -0.004619   -0.669452
siesta: ----------------------------------------
siesta:  Tot   -0.000017   -0.000018    0.000008

siesta: Constrained forces (eV/Ang):
siesta:    1    0.000000    0.000000    0.000000
siesta:    2   -0.005127   -0.004619   -0.669452
siesta: ----------------------------------------
siesta:  Tot   -0.005127   -0.004619   -0.669452

siesta: Stress tensor (static) (eV/Ang**3):
siesta:     0.000000    0.000000    0.000001
siesta:     0.000000    0.000000    0.000001
siesta:     0.000001    0.000001    0.000170

siesta: Cell volume =       3044.391638 Ang**3

siesta: Pressure (static):
siesta:                Solid            Molecule  Units
siesta:          -0.00000062          0.00000000  Ry/Bohr**3
siesta:          -0.00005676         -0.00000031  eV/Ang**3
siesta:          -0.09093477         -0.00049926  kBar

siesta: Total spin polarization (Qup-Qdown) =    0.000000
siesta: Spin vector =    0.000000    0.000000    0.000000
siesta: No SpinPolK block detected...

siesta: Electric dipole (a.u.)  =    0.000028    0.000026    0.013958
siesta: Electric dipole (Debye) =    0.000072    0.000065    0.035477

siesta: Vibrational frequency (cm^-1) & IR (a.u.) (Acoustic sum rule):
 eigenvalue #    1   omega =   -0.000001    IR =    0.000001 
 eigenvalue #    2   omega =    0.000021    IR =    0.000000 
 eigenvalue #    3   omega =    0.000054    IR =    0.000000 
 eigenvalue #    4   omega =   85.050586    IR =    0.000038 
 eigenvalue #    5   omega =   98.352065    IR =    0.000039 
 eigenvalue #    6   omega = 4409.193195    IR =    0.000769 
 
* Maximum dynamic memory allocated : Node    0 =   243 MB
* Maximum dynamic memory allocated : Node    1 =   242 MB
* Maximum dynamic memory allocated : Node    2 =   251 MB
* Maximum dynamic memory allocated : Node    3 =   251 MB
* Maximum memory occured during redistribXZ                   

timer: CPU execution times:
timer:  Routine       Calls   Time/call    Tot.time        %
timer:  siesta            1    3233.125    3233.125   100.00
timer:  Setup             1       2.919       2.919     0.09
timer:  bands             1       0.000       0.000     0.00
timer:  writewave         1       0.004       0.004     0.00
timer:  KSV_init          1       0.004       0.004     0.00
timer:  IterMD           13     245.009    3185.118    98.52
timer:  hsparse          14       0.000       0.003     0.00
timer:  overfsm          26       0.004       0.101     0.00
timer:  IterSCF          92      34.512    3175.122    98.21
timer:  kinefsm          26       0.002       0.050     0.00
timer:  nlefsm           26       0.032       0.831     0.03
timer:  DHSCF           132      24.369    3216.686    99.49
timer:  DHSCF1            1       7.702       7.702     0.24
timer:  DHSCF2           53      11.752     622.857    19.26
timer:  REORD          1958       0.055     108.661     3.36
timer:  POISON          185       9.047    1673.745    51.77
timer:  DHSCF3          132      18.941    2500.165    77.33
timer:  rhoofd          132       0.173      22.877     0.71
timer:  CELLXC          132       5.386     710.959    21.99
timer:  vmat             92       0.132      12.165     0.38
timer:  diagon           79       0.022       1.711     0.05
timer:  rdiag            79       0.016       1.264     0.04
timer:  DHSCF4           52       1.638      85.199     2.64
timer:  dfscf            52       1.333      69.335     2.14
  
>> End of run:   7-NOV-2013  18:55:27
