     116
 i =        1, E =     -3518.3246108108
 Au         0.0000000000        0.0000000000        0.0000000000
 Au         0.0000000000        4.1460000000        0.0000000000
 Au         2.0730000000        2.0730000000        0.0000000000
 Au         2.0730000000        6.2190000000        0.0000000000
 Au         4.1460000000        0.0000000000        0.0000000000
 Au         4.1460000000        4.1460000000        0.0000000000
 Au         6.2190000000        2.0730000000        0.0000000000
 Au         6.2190000000        6.2190000000        0.0000000000
 Au         0.0000000000        2.0730000000        2.0730000000
 Au         0.0000000000        6.2190000000        2.0730000000
 Au         2.0730000000        0.0000000000        2.0730000000
 Au         2.0730000000        4.1460000000        2.0730000000
 Au         4.1460000000        2.0730000000        2.0730000000
 Au         4.1460000000        6.2190000000        2.0730000000
 Au         6.2190000000        0.0000000000        2.0730000000
 Au         6.2190000000        4.1460000000        2.0730000000
 Au         0.0000000000        0.0000000000        4.1460000000
 Au         0.0000000000        4.1460000000        4.1460000000
 Au         2.0730000000        2.0730000000        4.1460000000
 Au         2.0730000000        6.2190000000        4.1460000000
 Au         4.1460000000        0.0000000000        4.1460000000
 Au         4.1460000000        4.1460000000        4.1460000000
 Au         6.2190000000        2.0730000000        4.1460000000
 Au         6.2190000000        6.2190000000        4.1460000000
 Au         0.0000000000        2.0730000000        6.2190000000
 Au         0.0000000000        6.2190000000        6.2190000000
 Au         2.0730000000        0.0000000000        6.2190000000
 Au         2.0730000000        4.1460000000        6.2190000000
 Au         4.1460000000        2.0730000000        6.2190000000
 Au         4.1460000000        6.2190000000        6.2190000000
 Au         6.2190000000        0.0000000000        6.2190000000
 Au         6.2190000000        4.1460000000        6.2190000000
 Au         0.0000000000        0.0000000000        8.2920000000
 Au         0.0000000000        4.1460000000        8.2920000000
 Au         2.0730000000        2.0730000000        8.2920000000
 Au         2.0730000000        6.2190000000        8.2920000000
 Au         4.1460000000        0.0000000000        8.2920000000
 Au         4.1460000000        4.1460000000        8.2920000000
 Au         6.2190000000        2.0730000000        8.2920000000
 Au         6.2190000000        6.2190000000        8.2920000000
 Au        -0.0000040581        2.0730001511       10.3671923826
 Au        -0.0000016233        6.2189948993       10.3642624478
 Au         2.0728761864       -0.0000180042       10.3640859961
 Au         2.0728727951        4.1460254653       10.3640769073
 Au         4.1459985902        2.0729915109       10.3581937568
 Au         4.1459984364        6.2189886750       10.3670336229
 Au         6.2191257984       -0.0000177837       10.3640826995
 Au         6.2191292635        4.1460252799       10.3640734565
 Au         0.0000032651       -0.0003474613       12.4381772098
 Au         0.0000033615        4.1463553529       12.4381864419
 Au         2.0617514016        2.0730111590       12.4380850574
 Au         2.0725579116        6.2189987793       12.4381172676
 Au         4.1459988357       -0.0116455341       12.4371703211
 Au         4.1459990254        4.1575550020       12.4372226043
 Au         6.2302102599        2.0730113935       12.4381111200
 Au         6.2194432325        6.2189988875       12.4381179844
  S         4.1461000179        2.0732917662       13.9320264672
  C         4.1457642096        2.0781968373       15.6891226316
  H         2.0253643344        2.1029078902       15.8558536778
  H         6.2659632406        2.1029049431       15.8620685997
  C         2.9616679074        2.0815893524       16.4112601652
  C         5.3280136457        2.0816036919       16.4132081043
  C         2.9529280457        2.0624025726       17.7798184397
  C         5.3194161395        2.0624171270       17.7813520782
  H         2.0150414507        2.0410994087       18.3309394979
  H         6.2556173122        2.0410958451       18.3371485385
  C         4.1355500962        2.0658594846       18.5033539188
  S         4.1454496464        2.0726698747       20.2608352980
 Au        -0.0000053127       -0.0003555845       21.7548130664
 Au        -0.0000052691        4.1463469041       21.7548232736
 Au         2.0618530539        2.0729919026       21.7548435320
 Au         2.0725533576        6.2189975837       21.7548809810
 Au         4.1460042877       -0.0115429405       21.7557696827
 Au         4.1460044645        4.1576504397       21.7558317199
 Au         6.2303067681        2.0729921421       21.7549589369
 Au         6.2190000000        6.2190000000       21.7550000000
 Au         0.0000000000        2.0730000000       23.8280000000
 Au         0.0000000000        6.2190000000       23.8280000000
 Au         2.0730000000        0.0000000000       23.8280000000
 Au         2.0730000000        4.1460000000       23.8280000000
 Au         4.1460000000        2.0730000000       23.8280000000
 Au         4.1460000000        6.2190000000       23.8280000000
 Au         6.2190000000        0.0000000000       23.8280000000
 Au         6.2190000000        4.1460000000       23.8280000000
 Au         0.0000000000        0.0000000000       25.9010000000
 Au         0.0000000000        4.1460000000       25.9010000000
 Au         2.0730000000        2.0730000000       25.9010000000
 Au         2.0730000000        6.2190000000       25.9010000000
 Au         4.1460000000        0.0000000000       25.9010000000
 Au         4.1460000000        4.1460000000       25.9010000000
 Au         6.2190000000        2.0730000000       25.9010000000
 Au         6.2190000000        6.2190000000       25.9010000000
 Au         0.0000000000        2.0730000000       27.9740000000
 Au         0.0000000000        6.2190000000       27.9740000000
 Au         2.0730000000        0.0000000000       27.9740000000
 Au         2.0730000000        4.1460000000       27.9740000000
 Au         4.1460000000        2.0730000000       27.9740000000
 Au         4.1460000000        6.2190000000       27.9740000000
 Au         6.2190000000        0.0000000000       27.9740000000
 Au         6.2190000000        4.1460000000       27.9740000000
 Au         0.0000000000        0.0000000000       30.0470000000
 Au         0.0000000000        4.1460000000       30.0470000000
 Au         2.0730000000        2.0730000000       30.0470000000
 Au         2.0730000000        6.2190000000       30.0470000000
 Au         4.1460000000        0.0000000000       30.0470000000
 Au         4.1460000000        4.1460000000       30.0470000000
 Au         6.2190000000        2.0730000000       30.0470000000
 Au         6.2190000000        6.2190000000       30.0470000000
 Au         0.0000000000        2.0730000000       32.1200000000
 Au         0.0000000000        6.2190000000       32.1200000000
 Au         2.0730000000        0.0000000000       32.1200000000
 Au         2.0730000000        4.1460000000       32.1200000000
 Au         4.1460000000        2.0730000000       32.1200000000
 Au         4.1460000000        6.2190000000       32.1200000000
 Au         6.2190000000        0.0000000000       32.1200000000
 Au         6.2190000000        4.1460000000       32.1200000000
     116
 i =        2, E =     -3518.3358152543
 Au         0.0000000000        0.0000000000        0.0000000000
 Au         0.0000000000        4.1460000000        0.0000000000
 Au         2.0730000000        2.0730000000        0.0000000000
 Au         2.0730000000        6.2190000000        0.0000000000
 Au         4.1460000000        0.0000000000        0.0000000000
 Au         4.1460000000        4.1460000000        0.0000000000
 Au         6.2190000000        2.0730000000        0.0000000000
 Au         6.2190000000        6.2190000000        0.0000000000
 Au         0.0000000000        2.0730000000        2.0730000000
 Au         0.0000000000        6.2190000000        2.0730000000
 Au         2.0730000000        0.0000000000        2.0730000000
 Au         2.0730000000        4.1460000000        2.0730000000
 Au         4.1460000000        2.0730000000        2.0730000000
 Au         4.1460000000        6.2190000000        2.0730000000
 Au         6.2190000000        0.0000000000        2.0730000000
 Au         6.2190000000        4.1460000000        2.0730000000
 Au         0.0000000000        0.0000000000        4.1460000000
 Au         0.0000000000        4.1460000000        4.1460000000
 Au         2.0730000000        2.0730000000        4.1460000000
 Au         2.0730000000        6.2190000000        4.1460000000
 Au         4.1460000000        0.0000000000        4.1460000000
 Au         4.1460000000        4.1460000000        4.1460000000
 Au         6.2190000000        2.0730000000        4.1460000000
 Au         6.2190000000        6.2190000000        4.1460000000
 Au         0.0000000000        2.0730000000        6.2190000000
 Au         0.0000000000        6.2190000000        6.2190000000
 Au         2.0730000000        0.0000000000        6.2190000000
 Au         2.0730000000        4.1460000000        6.2190000000
 Au         4.1460000000        2.0730000000        6.2190000000
 Au         4.1460000000        6.2190000000        6.2190000000
 Au         6.2190000000        0.0000000000        6.2190000000
 Au         6.2190000000        4.1460000000        6.2190000000
 Au         0.0000000000        0.0000000000        8.2920000000
 Au         0.0000000000        4.1460000000        8.2920000000
 Au         2.0730000000        2.0730000000        8.2920000000
 Au         2.0730000000        6.2190000000        8.2920000000
 Au         4.1460000000        0.0000000000        8.2920000000
 Au         4.1460000000        4.1460000000        8.2920000000
 Au         6.2190000000        2.0730000000        8.2920000000
 Au         6.2190000000        6.2190000000        8.2920000000
 Au        -0.0000020326        2.0730020155       10.3772453642
 Au        -0.0000036826        6.2189697721       10.3606639302
 Au         2.0724063412        0.0001749152       10.3593921439
 Au         2.0723908625        4.1458744444       10.3593322979
 Au         4.1460065668        2.0729415525       10.3268650720
 Au         4.1459905852        6.2189042193       10.3760315793
 Au         6.2195921330        0.0001808350       10.3593919942
 Au         6.2196080099        4.1458687209       10.3593314944
 Au         0.0000112967       -0.0036594040       12.4395579868
 Au         0.0000117774        4.1497125324       12.4396218504
 Au         2.0067997958        2.0730502297       12.4398607131
 Au         2.0686872297        6.2189963516       12.4391899762
 Au         4.1459878670       -0.0689102801       12.4335030494
 Au         4.1459886610        4.2143720991       12.4338450072
 Au         6.2851751898        2.0730510348       12.4398747481
 Au         6.2233122257        6.2189968085       12.4391919095
  S         4.1461196795        2.0750028885       13.9789616094
  C         4.1420866965        2.0835302075       15.7110906606
  H         2.0009808016        2.1001370527       15.8479909192
  H         6.2918885599        2.1001383418       15.8549526264
  C         2.9479589918        2.0786339444       16.3944303771
  C         5.3366380791        2.0786480589       16.3998629302
  C         2.9447784520        2.0653893557       17.7929121874
  C         5.3334831011        2.0653722889       17.7977546313
  H         1.9890487579        2.0438826849       18.3381359892
  H         6.2798559488        2.0438875608       18.3447958925
  C         4.1400285913        2.0608105854       18.4825712629
  S         4.1431530234        2.0707591973       20.2130350189
 Au        -0.0000394558       -0.0034572262       21.7533633415
 Au        -0.0000394796        4.1493971849       21.7534327446
 Au         2.0064820650        2.0729740621       21.7525120764
 Au         2.0689120343        6.2189812493       21.7537585357
 Au         4.1460451229       -0.0689578674       21.7587388638
 Au         4.1460460444        4.2155743794       21.7591397057
 Au         6.2861821433        2.0729749840       21.7530524785
 Au         6.2190000000        6.2190000000       21.7550000000
 Au         0.0000000000        2.0730000000       23.8280000000
 Au         0.0000000000        6.2190000000       23.8280000000
 Au         2.0730000000        0.0000000000       23.8280000000
 Au         2.0730000000        4.1460000000       23.8280000000
 Au         4.1460000000        2.0730000000       23.8280000000
 Au         4.1460000000        6.2190000000       23.8280000000
 Au         6.2190000000        0.0000000000       23.8280000000
 Au         6.2190000000        4.1460000000       23.8280000000
 Au         0.0000000000        0.0000000000       25.9010000000
 Au         0.0000000000        4.1460000000       25.9010000000
 Au         2.0730000000        2.0730000000       25.9010000000
 Au         2.0730000000        6.2190000000       25.9010000000
 Au         4.1460000000        0.0000000000       25.9010000000
 Au         4.1460000000        4.1460000000       25.9010000000
 Au         6.2190000000        2.0730000000       25.9010000000
 Au         6.2190000000        6.2190000000       25.9010000000
 Au         0.0000000000        2.0730000000       27.9740000000
 Au         0.0000000000        6.2190000000       27.9740000000
 Au         2.0730000000        0.0000000000       27.9740000000
 Au         2.0730000000        4.1460000000       27.9740000000
 Au         4.1460000000        2.0730000000       27.9740000000
 Au         4.1460000000        6.2190000000       27.9740000000
 Au         6.2190000000        0.0000000000       27.9740000000
 Au         6.2190000000        4.1460000000       27.9740000000
 Au         0.0000000000        0.0000000000       30.0470000000
 Au         0.0000000000        4.1460000000       30.0470000000
 Au         2.0730000000        2.0730000000       30.0470000000
 Au         2.0730000000        6.2190000000       30.0470000000
 Au         4.1460000000        0.0000000000       30.0470000000
 Au         4.1460000000        4.1460000000       30.0470000000
 Au         6.2190000000        2.0730000000       30.0470000000
 Au         6.2190000000        6.2190000000       30.0470000000
 Au         0.0000000000        2.0730000000       32.1200000000
 Au         0.0000000000        6.2190000000       32.1200000000
 Au         2.0730000000        0.0000000000       32.1200000000
 Au         2.0730000000        4.1460000000       32.1200000000
 Au         4.1460000000        2.0730000000       32.1200000000
 Au         4.1460000000        6.2190000000       32.1200000000
 Au         6.2190000000        0.0000000000       32.1200000000
 Au         6.2190000000        4.1460000000       32.1200000000
     116
 i =        3, E =     -3518.3386877048
 Au         0.0000000000        0.0000000000        0.0000000000
 Au         0.0000000000        4.1460000000        0.0000000000
 Au         2.0730000000        2.0730000000        0.0000000000
 Au         2.0730000000        6.2190000000        0.0000000000
 Au         4.1460000000        0.0000000000        0.0000000000
 Au         4.1460000000        4.1460000000        0.0000000000
 Au         6.2190000000        2.0730000000        0.0000000000
 Au         6.2190000000        6.2190000000        0.0000000000
 Au         0.0000000000        2.0730000000        2.0730000000
 Au         0.0000000000        6.2190000000        2.0730000000
 Au         2.0730000000        0.0000000000        2.0730000000
 Au         2.0730000000        4.1460000000        2.0730000000
 Au         4.1460000000        2.0730000000        2.0730000000
 Au         4.1460000000        6.2190000000        2.0730000000
 Au         6.2190000000        0.0000000000        2.0730000000
 Au         6.2190000000        4.1460000000        2.0730000000
 Au         0.0000000000        0.0000000000        4.1460000000
 Au         0.0000000000        4.1460000000        4.1460000000
 Au         2.0730000000        2.0730000000        4.1460000000
 Au         2.0730000000        6.2190000000        4.1460000000
 Au         4.1460000000        0.0000000000        4.1460000000
 Au         4.1460000000        4.1460000000        4.1460000000
 Au         6.2190000000        2.0730000000        4.1460000000
 Au         6.2190000000        6.2190000000        4.1460000000
 Au         0.0000000000        2.0730000000        6.2190000000
 Au         0.0000000000        6.2190000000        6.2190000000
 Au         2.0730000000        0.0000000000        6.2190000000
 Au         2.0730000000        4.1460000000        6.2190000000
 Au         4.1460000000        2.0730000000        6.2190000000
 Au         4.1460000000        6.2190000000        6.2190000000
 Au         6.2190000000        0.0000000000        6.2190000000
 Au         6.2190000000        4.1460000000        6.2190000000
 Au         0.0000000000        0.0000000000        8.2920000000
 Au         0.0000000000        4.1460000000        8.2920000000
 Au         2.0730000000        2.0730000000        8.2920000000
 Au         2.0730000000        6.2190000000        8.2920000000
 Au         4.1460000000        0.0000000000        8.2920000000
 Au         4.1460000000        4.1460000000        8.2920000000
 Au         6.2190000000        2.0730000000        8.2920000000
 Au         6.2190000000        6.2190000000        8.2920000000
 Au         0.0000083238        2.0730050598       10.3788362133
 Au        -0.0000034832        6.2189603101       10.3595276643
 Au         2.0725752867        0.0007614274       10.3576771795
 Au         2.0725612223        4.1453088906       10.3575914697
 Au         4.1460142613        2.0729129164       10.3191597246
 Au         4.1459879118        6.2188216314       10.3767567188
 Au         6.2194185167        0.0007695806       10.3576847007
 Au         6.2194332008        4.1453010631       10.3575981102
 Au         0.0000134070       -0.0077960460       12.4408365354
 Au         0.0000140557        4.1538798145       12.4409259509
 Au         1.9885879958        2.0730411577       12.4426211476
 Au         2.0641604415        6.2190002537       12.4403276074
 Au         4.1459843057       -0.0882555873       12.4335097744
 Au         4.1459852815        4.2335383094       12.4340196901
 Au         6.3034538248        2.0730421651       12.4425962581
 Au         6.2278340791        6.2190008737       12.4403282660
  S         4.1460564683        2.0760065489       13.9812791023
  C         4.1432182011        2.0849146157       15.7139346807
  H         1.9958491001        2.0985146441       15.8461078399
  H         6.2942137355        2.0984620140       15.8548732004
  C         2.9302460781        2.0783916197       16.4086063588
  C         5.3540370386        2.0784594132       16.4119638866
  C         2.9277682200        2.0656069398       17.7810734000
  C         5.3512300572        2.0656431653       17.7838097151
  H         1.9869702424        2.0455695913       18.3380879272
  H         6.2851296925        2.0455130574       18.3465929390
  C         4.1386635083        2.0595281330       18.4789795717
  S         4.1422717672        2.0696832086       20.2103149952
 Au        -0.0000953908       -0.0071465627       21.7520174177
 Au        -0.0000957701        4.1530498724       21.7521137865
 Au         1.9871475545        2.0729988617       21.7492278851
 Au         2.0648384247        6.2189703120       21.7524920527
 Au         4.1460217988       -0.0891209252       21.7579932661
 Au         4.1460231523        4.2359157816       21.7585809790
 Au         6.3055629926        2.0730001456       21.7499114242
 Au         6.2190000000        6.2190000000       21.7550000000
 Au         0.0000000000        2.0730000000       23.8280000000
 Au         0.0000000000        6.2190000000       23.8280000000
 Au         2.0730000000        0.0000000000       23.8280000000
 Au         2.0730000000        4.1460000000       23.8280000000
 Au         4.1460000000        2.0730000000       23.8280000000
 Au         4.1460000000        6.2190000000       23.8280000000
 Au         6.2190000000        0.0000000000       23.8280000000
 Au         6.2190000000        4.1460000000       23.8280000000
 Au         0.0000000000        0.0000000000       25.9010000000
 Au         0.0000000000        4.1460000000       25.9010000000
 Au         2.0730000000        2.0730000000       25.9010000000
 Au         2.0730000000        6.2190000000       25.9010000000
 Au         4.1460000000        0.0000000000       25.9010000000
 Au         4.1460000000        4.1460000000       25.9010000000
 Au         6.2190000000        2.0730000000       25.9010000000
 Au         6.2190000000        6.2190000000       25.9010000000
 Au         0.0000000000        2.0730000000       27.9740000000
 Au         0.0000000000        6.2190000000       27.9740000000
 Au         2.0730000000        0.0000000000       27.9740000000
 Au         2.0730000000        4.1460000000       27.9740000000
 Au         4.1460000000        2.0730000000       27.9740000000
 Au         4.1460000000        6.2190000000       27.9740000000
 Au         6.2190000000        0.0000000000       27.9740000000
 Au         6.2190000000        4.1460000000       27.9740000000
 Au         0.0000000000        0.0000000000       30.0470000000
 Au         0.0000000000        4.1460000000       30.0470000000
 Au         2.0730000000        2.0730000000       30.0470000000
 Au         2.0730000000        6.2190000000       30.0470000000
 Au         4.1460000000        0.0000000000       30.0470000000
 Au         4.1460000000        4.1460000000       30.0470000000
 Au         6.2190000000        2.0730000000       30.0470000000
 Au         6.2190000000        6.2190000000       30.0470000000
 Au         0.0000000000        2.0730000000       32.1200000000
 Au         0.0000000000        6.2190000000       32.1200000000
 Au         2.0730000000        0.0000000000       32.1200000000
 Au         2.0730000000        4.1460000000       32.1200000000
 Au         4.1460000000        2.0730000000       32.1200000000
 Au         4.1460000000        6.2190000000       32.1200000000
 Au         6.2190000000        0.0000000000       32.1200000000
 Au         6.2190000000        4.1460000000       32.1200000000
     116
 i =        4, E =     -3518.3398960765
 Au         0.0000000000        0.0000000000        0.0000000000
 Au         0.0000000000        4.1460000000        0.0000000000
 Au         2.0730000000        2.0730000000        0.0000000000
 Au         2.0730000000        6.2190000000        0.0000000000
 Au         4.1460000000        0.0000000000        0.0000000000
 Au         4.1460000000        4.1460000000        0.0000000000
 Au         6.2190000000        2.0730000000        0.0000000000
 Au         6.2190000000        6.2190000000        0.0000000000
 Au         0.0000000000        2.0730000000        2.0730000000
 Au         0.0000000000        6.2190000000        2.0730000000
 Au         2.0730000000        0.0000000000        2.0730000000
 Au         2.0730000000        4.1460000000        2.0730000000
 Au         4.1460000000        2.0730000000        2.0730000000
 Au         4.1460000000        6.2190000000        2.0730000000
 Au         6.2190000000        0.0000000000        2.0730000000
 Au         6.2190000000        4.1460000000        2.0730000000
 Au         0.0000000000        0.0000000000        4.1460000000
 Au         0.0000000000        4.1460000000        4.1460000000
 Au         2.0730000000        2.0730000000        4.1460000000
 Au         2.0730000000        6.2190000000        4.1460000000
 Au         4.1460000000        0.0000000000        4.1460000000
 Au         4.1460000000        4.1460000000        4.1460000000
 Au         6.2190000000        2.0730000000        4.1460000000
 Au         6.2190000000        6.2190000000        4.1460000000
 Au         0.0000000000        2.0730000000        6.2190000000
 Au         0.0000000000        6.2190000000        6.2190000000
 Au         2.0730000000        0.0000000000        6.2190000000
 Au         2.0730000000        4.1460000000        6.2190000000
 Au         4.1460000000        2.0730000000        6.2190000000
 Au         4.1460000000        6.2190000000        6.2190000000
 Au         6.2190000000        0.0000000000        6.2190000000
 Au         6.2190000000        4.1460000000        6.2190000000
 Au         0.0000000000        0.0000000000        8.2920000000
 Au         0.0000000000        4.1460000000        8.2920000000
 Au         2.0730000000        2.0730000000        8.2920000000
 Au         2.0730000000        6.2190000000        8.2920000000
 Au         4.1460000000        0.0000000000        8.2920000000
 Au         4.1460000000        4.1460000000        8.2920000000
 Au         6.2190000000        2.0730000000        8.2920000000
 Au         6.2190000000        6.2190000000        8.2920000000
 Au         0.0000319225        2.0730156185       10.3754621647
 Au        -0.0000033355        6.2189538360       10.3587194681
 Au         2.0735152909        0.0024472684       10.3568177086
 Au         2.0735139630        4.1436416198       10.3567034813
 Au         4.1460241681        2.0728729540       10.3214504529
 Au         4.1459847994        6.2186409020       10.3714763596
 Au         6.2184743300        0.0024549900       10.3568380324
 Au         6.2184766739        4.1436344792       10.3567226137
 Au         0.0000183193       -0.0172319303       12.4434717276
 Au         0.0000193294        4.1633673450       12.4435868852
 Au         1.9783015630        2.0729745519       12.4491217335
 Au         2.0539722800        6.2190147442       12.4427935811
 Au         4.1459850215       -0.0999388135       12.4362485539
 Au         4.1459861034        4.2451133785       12.4370036328
 Au         6.3138439369        2.0729756731       12.4490271014
 Au         6.2380100417        6.2190157176       12.4427932771
  S         4.1458930013        2.0775804876       13.9634862915
  C         4.1438235881        2.0847666093       15.7276898432
  H         1.9928288666        2.0961341567       15.8449010668
  H         6.2933003124        2.0960297047       15.8552541756
  C         2.9247970421        2.0800779778       16.4051688291
  C         5.3621659873        2.0801872618       16.4064724271
  C         2.9193155752        2.0639751605       17.7862282216
  C         5.3568746275        2.0640605839       17.7875654910
  H         1.9885430743        2.0480159591       18.3374351903
  H         6.2885598207        2.0478866041       18.3478528019
  C         4.1378016057        2.0597272839       18.4641522868
  S         4.1414129101        2.0680431011       20.2274888900
 Au        -0.0003208357       -0.0157249209       21.7491595383
 Au        -0.0003223364        4.1615631482       21.7492828452
 Au         1.9743876627        2.0730959713       21.7416620277
 Au         2.0555264201        6.2189512052       21.7495174861
 Au         4.1457606518       -0.1025612810       21.7536194800
 Au         4.1457620519        4.2494091947       21.7544602281
 Au         6.3181563943        2.0730974811       21.7424679212
 Au         6.2190000000        6.2190000000       21.7550000000
 Au         0.0000000000        2.0730000000       23.8280000000
 Au         0.0000000000        6.2190000000       23.8280000000
 Au         2.0730000000        0.0000000000       23.8280000000
 Au         2.0730000000        4.1460000000       23.8280000000
 Au         4.1460000000        2.0730000000       23.8280000000
 Au         4.1460000000        6.2190000000       23.8280000000
 Au         6.2190000000        0.0000000000       23.8280000000
 Au         6.2190000000        4.1460000000       23.8280000000
 Au         0.0000000000        0.0000000000       25.9010000000
 Au         0.0000000000        4.1460000000       25.9010000000
 Au         2.0730000000        2.0730000000       25.9010000000
 Au         2.0730000000        6.2190000000       25.9010000000
 Au         4.1460000000        0.0000000000       25.9010000000
 Au         4.1460000000        4.1460000000       25.9010000000
 Au         6.2190000000        2.0730000000       25.9010000000
 Au         6.2190000000        6.2190000000       25.9010000000
 Au         0.0000000000        2.0730000000       27.9740000000
 Au         0.0000000000        6.2190000000       27.9740000000
 Au         2.0730000000        0.0000000000       27.9740000000
 Au         2.0730000000        4.1460000000       27.9740000000
 Au         4.1460000000        2.0730000000       27.9740000000
 Au         4.1460000000        6.2190000000       27.9740000000
 Au         6.2190000000        0.0000000000       27.9740000000
 Au         6.2190000000        4.1460000000       27.9740000000
 Au         0.0000000000        0.0000000000       30.0470000000
 Au         0.0000000000        4.1460000000       30.0470000000
 Au         2.0730000000        2.0730000000       30.0470000000
 Au         2.0730000000        6.2190000000       30.0470000000
 Au         4.1460000000        0.0000000000       30.0470000000
 Au         4.1460000000        4.1460000000       30.0470000000
 Au         6.2190000000        2.0730000000       30.0470000000
 Au         6.2190000000        6.2190000000       30.0470000000
 Au         0.0000000000        2.0730000000       32.1200000000
 Au         0.0000000000        6.2190000000       32.1200000000