 DBCSR| CPU Multiplication driver                                           XSMM
 DBCSR| Multrec recursion limit                                              512
 DBCSR| Multiplication stack size                                           1000
 DBCSR| Maximum elements for images                                    UNLIMITED
 DBCSR| Multiplicative factor virtual images                                   1
 DBCSR| Use multiplication densification                                       T
 DBCSR| Multiplication size stacks                                             3
 DBCSR| Use memory pool for CPU allocation                                     F
 DBCSR| Number of 3D layers                                               SINGLE
 DBCSR| Use MPI memory allocation                                              F
 DBCSR| Use RMA algorithm                                                      F
 DBCSR| Use Communication thread                                               T
 DBCSR| Communication thread load                                             87
 DBCSR| MPI: My node id                                                        0
 DBCSR| MPI: Number of nodes                                                 240
 DBCSR| OMP: Current number of threads                                         1
 DBCSR| OMP: Max number of threads                                             1
 DBCSR| Split modifier for TAS multiplication algorithm                  1.0E+00


  **** **** ******  **  PROGRAM STARTED AT               2022-10-23 16:08:41.113
 ***** ** ***  *** **   PROGRAM STARTED ON                 cn1117.scarf.rl.ac.uk
 **    ****   ******    PROGRAM STARTED BY                             scarf1157
 ***** **    ** ** **   PROGRAM PROCESS ID                                 38555
  **** **  *******  **  PROGRAM STARTED IN /work4/scd/scarf1157/work/testing/cp2
                                           k-smeagol/bdt/cp2k/hollow-site/transp
                                           ort-cp2k/7-6/bulk-4-5/dzp

 CP2K| version string:                 CP2K version 2022.1 (Development Version)
 CP2K| source code revision number:                                  git:ed5398a
 CP2K| cp2kflags: omp fftw3 libxc parallel mpi3 scalapack xsmm spglib           
 CP2K| is freely available from                            https://www.cp2k.org/
 CP2K| Program compiled at                          Tue 18 Oct 09:48:42 BST 2022
 CP2K| Program compiled on                                 cn1108.scarf.rl.ac.uk
 CP2K| Program compiled for                                                local
 CP2K| Data directory path    /home/vol07/scarf1157/code/smeagol/cp2k-smeagol/sc
 CP2K| Input file name                                                  3_0V.inp

 GLOBAL| Force Environment number                                              1
 GLOBAL| Basis set file name                                        BASIS_MOLOPT
 GLOBAL| Potential file name                                      GTH_POTENTIALS
 GLOBAL| MM Potential file name                                     MM_POTENTIAL
 GLOBAL| Coordinate file name                                             em.xyz
 GLOBAL| Method name                                                        CP2K
 GLOBAL| Project name                                                         0V
 GLOBAL| Run type                                                         ENERGY
 GLOBAL| FFT library                                                       FFTW3
 GLOBAL| Diagonalization library                                       ScaLAPACK
 GLOBAL| Orthonormality check for eigenvectors                          DISABLED
 GLOBAL| Matrix multiplication library                                 ScaLAPACK
 GLOBAL| All-to-all communication in single precision                          F
 GLOBAL| FFTs using library dependent lengths                                  T
 GLOBAL| Grid backend                                                       AUTO
 GLOBAL| Global print level                                               MEDIUM
 GLOBAL| MPI I/O enabled                                                       T
 GLOBAL| Total number of message passing processes                           240
 GLOBAL| Number of threads for this process                                    1
 GLOBAL| This output is from process                                           0
 GLOBAL| Stack size for threads created by OpenMP (OMP_STACKSIZE)        default
 GLOBAL| CPU model name                         AMD EPYC 7502P 32-Core Processor
 GLOBAL| CPUID                                                              1002

 MEMORY| system memory details [Kb]
 MEMORY|                        rank 0           min           max       average
 MEMORY| MemTotal            263897160     263897152     263897160     263897157
 MEMORY| MemFree             163795700     163795700     232514708     211360058
 MEMORY| Buffers                  2556          2556          2568          2561
 MEMORY| Cached               80599732      15969008      80599732      36320360
 MEMORY| Slab                  1625104       1166500       1625104       1347430
 MEMORY| SReclaimable           960040        629140        960040        759240
 MEMORY| MemLikelyFree       245358028     245358028     249135376     248442220


 *** Fundamental physical constants (SI units) ***

 *** Literature: B. J. Mohr and B. N. Taylor,
 ***             CODATA recommended values of the fundamental physical
 ***             constants: 2006, Web Version 5.1
 ***             http://physics.nist.gov/constants

 Speed of light in vacuum [m/s]                             2.99792458000000E+08
 Magnetic constant or permeability of vacuum [N/A**2]       1.25663706143592E-06
 Electric constant or permittivity of vacuum [F/m]          8.85418781762039E-12
 Planck constant (h) [J*s]                                  6.62606896000000E-34
 Planck constant (h-bar) [J*s]                              1.05457162825177E-34
 Elementary charge [C]                                      1.60217648700000E-19
 Electron mass [kg]                                         9.10938215000000E-31
 Electron g factor [ ]                                     -2.00231930436220E+00
 Proton mass [kg]                                           1.67262163700000E-27
 Fine-structure constant                                    7.29735253760000E-03
 Rydberg constant [1/m]                                     1.09737315685270E+07
 Avogadro constant [1/mol]                                  6.02214179000000E+23
 Boltzmann constant [J/K]                                   1.38065040000000E-23
 Atomic mass unit [kg]                                      1.66053878200000E-27
 Bohr radius [m]                                            5.29177208590000E-11

 *** Conversion factors ***

 [u] -> [a.u.]                                              1.82288848426455E+03
 [Angstrom] -> [Bohr] = [a.u.]                              1.88972613288564E+00
 [a.u.] = [Bohr] -> [Angstrom]                              5.29177208590000E-01
 [a.u.] -> [s]                                              2.41888432650478E-17
 [a.u.] -> [fs]                                             2.41888432650478E-02
 [a.u.] -> [J]                                              4.35974393937059E-18
 [a.u.] -> [N]                                              8.23872205491840E-08
 [a.u.] -> [K]                                              3.15774647902944E+05
 [a.u.] -> [kJ/mol]                                         2.62549961709828E+03
 [a.u.] -> [kcal/mol]                                       6.27509468713739E+02
 [a.u.] -> [Pa]                                             2.94210107994716E+13
 [a.u.] -> [bar]                                            2.94210107994716E+08
 [a.u.] -> [atm]                                            2.90362800883016E+08
 [a.u.] -> [eV]                                             2.72113838565563E+01
 [a.u.] -> [Hz]                                             6.57968392072181E+15
 [a.u.] -> [1/cm] (wave numbers)                            2.19474631370540E+05
 [a.u./Bohr**2] -> [1/cm]                                   5.14048714338585E+03
 

 CELL_TOP| Volume [angstrom^3]:                                      9450.250840
 CELL_TOP| Vector a [angstrom    16.685     0.000     0.000   |a| =    16.685150
 CELL_TOP| Vector b [angstrom     0.000    16.685     0.000   |b| =    16.685150
 CELL_TOP| Vector c [angstrom     0.000     0.000    33.946   |c| =    33.945570
 CELL_TOP| Angle (b,c), alpha [degree]:                                90.000000
 CELL_TOP| Angle (a,c), beta  [degree]:                                90.000000
 CELL_TOP| Angle (a,b), gamma [degree]:                                90.000000
 CELL_TOP| Numerically orthorhombic:                                         YES
 CELL_TOP| Periodicity                                                       XYZ

 GENERATE|  Preliminary Number of Bonds generated:                             0
 GENERATE|  Achieved consistency in connectivity generation.

 CELL| Volume [angstrom^3]:                                          9450.250840
 CELL| Vector a [angstrom]:      16.685     0.000     0.000   |a| =    16.685150
 CELL| Vector b [angstrom]:       0.000    16.685     0.000   |b| =    16.685150
 CELL| Vector c [angstrom]:       0.000     0.000    33.946   |c| =    33.945570
 CELL| Angle (b,c), alpha [degree]:                                    90.000000
 CELL| Angle (a,c), beta  [degree]:                                    90.000000
 CELL| Angle (a,b), gamma [degree]:                                    90.000000
 CELL| Numerically orthorhombic:                                             YES
 CELL| Periodicity                                                           XYZ

 CELL_REF| Volume [angstrom^3]:                                      9450.250840
 CELL_REF| Vector a [angstrom    16.685     0.000     0.000   |a| =    16.685150
 CELL_REF| Vector b [angstrom     0.000    16.685     0.000   |b| =    16.685150
 CELL_REF| Vector c [angstrom     0.000     0.000    33.946   |c| =    33.945570
 CELL_REF| Angle (b,c), alpha [degree]:                                90.000000
 CELL_REF| Angle (a,c), beta  [degree]:                                90.000000
 CELL_REF| Angle (a,b), gamma [degree]:                                90.000000
 CELL_REF| Numerically orthorhombic:                                         YES
 CELL_REF| Periodicity                                                       XYZ

 *******************************************************************************
                                    Kpoints
 *******************************************************************************
 BRILLOUIN| K-point scheme                                        Monkhorst-Pack
 BRILLOUIN| K-Point grid                                             1    1    1
 BRILLOUIN| Accuracy in Symmetry determination                      0.100000E-07
 BRILLOUIN| K-Point point group symmetrization                               OFF
 BRILLOUIN| Wavefunction type                                            COMPLEX
 BRILLOUIN| Use full k-point grid     
 BRILLOUIN| List of Kpoints [2 Pi/Bohr]                                        1
 BRILLOUIN| Number           Weight            X              Y              Z
 BRILLOUIN|     1           1.00000        0.00000        0.00000        0.00000
 *******************************************************************************

 *******************************************************************************
 *******************************************************************************
 **                                                                           **
 **     #####                         ##              ##                      **
 **    ##   ##            ##          ##              ##                      **
 **   ##     ##                       ##            ######                    **
 **   ##     ##  ##   ##  ##   #####  ##  ##   ####   ##    #####    #####    **
 **   ##     ##  ##   ##  ##  ##      ## ##   ##      ##   ##   ##  ##   ##   **
 **   ##  ## ##  ##   ##  ##  ##      ####     ###    ##   ######   ######    **
 **    ##  ###   ##   ##  ##  ##      ## ##      ##   ##   ##       ##        **
 **     #######   #####   ##   #####  ##  ##  ####    ##    #####   ##        **
 **           ##                                                    ##        **
 **                                                                           **
 **                                                ... make the atoms dance   **
 **                                                                           **
 **            Copyright (C) by CP2K developers group (2000-2022)             **
 **                      J. Chem. Phys. 152, 194103 (2020)                    **
 **                                                                           **
 *******************************************************************************

 DFT| Spin restricted Kohn-Sham (RKS) calculation                            RKS
 DFT| Multiplicity                                                             1
 DFT| Number of spin states                                                    1
 DFT| Charge                                                                   0
 DFT| Self-interaction correction (SIC)                                       NO
 DFT| Cutoffs: density                                              1.000000E-10
 DFT|          gradient                                             1.000000E-10
 DFT|          tau                                                  1.000000E-10
 DFT|          cutoff_smoothing_range                               0.000000E+00
 DFT| XC density smoothing                                                  NONE
 DFT| XC derivatives                                                          PW

 FUNCTIONAL| PADE:
 FUNCTIONAL| S. Goedecker, M. Teter and J. Hutter, Phys. Rev. B 54, 1703 (1996) 


 QS| Method:                                                                 GPW
 QS| Density plane wave grid type                        NON-SPHERICAL FULLSPACE
 QS| Number of grid levels:                                                    4
 QS| Density cutoff [a.u.]:                                                200.0
 QS| Multi grid cutoff [a.u.]: 1) grid level                               200.0
 QS|                           2) grid level                                66.7
 QS|                           3) grid level                                22.2
 QS|                           4) grid level                                 7.4
 QS| Grid level progression factor:                                          3.0
 QS| Relative density cutoff [a.u.]:                                        20.0
 QS| Interaction thresholds: eps_pgf_orb:                                1.0E-05
 QS|                         eps_filter_matrix:                          0.0E+00
 QS|                         eps_core_charge:                            1.0E-12
 QS|                         eps_rho_gspace:                             1.0E-10
 QS|                         eps_rho_rspace:                             1.0E-10
 QS|                         eps_gvg_rspace:                             1.0E-05
 QS|                         eps_ppl:                                    1.0E-02
 QS|                         eps_ppnl:                                   1.0E-07


 ATOMIC KIND INFORMATION

  1. Atomic kind: Au                                    Number of atoms:     416

     Orbital Basis Set                                         SZV-MOLOPT-SR-GTH

       Number of orbital shell sets:                                           1
       Number of orbital shells:                                               3
       Number of primitive Cartesian functions:                                5
       Number of Cartesian basis functions:                                   10
       Number of spherical basis functions:                                    9
       Norm type:                                                              2

       Normalised Cartesian orbitals:

                        Set   Shell   Orbital            Exponent    Coefficient

                          1       1    2s                2.950008       0.074626
                                                         1.563057      -0.007898
                                                         0.666664      -0.297688
                                                         0.251083       0.136809
                                                         0.081714       0.088198

                          1       2    3px               2.950008       0.148824
                                                         1.563057       0.025430
                                                         0.666664      -0.123003
                                                         0.251083       0.033648
                                                         0.081714       0.059008
                          1       2    3py               2.950008       0.148824
                                                         1.563057       0.025430
                                                         0.666664      -0.123003
                                                         0.251083       0.033648
                                                         0.081714       0.059008
                          1       2    3pz               2.950008       0.148824
                                                         1.563057       0.025430
                                                         0.666664      -0.123003
                                                         0.251083       0.033648
                                                         0.081714       0.059008

                          1       3    4dx2              2.950008      -0.139595
                                                         1.563057       1.319655
                                                         0.666664       0.377081
                                                         0.251083       0.046872
                                                         0.081714       0.001393
                          1       3    4dxy              2.950008      -0.241786
                                                         1.563057       2.285709
                                                         0.666664       0.653124
                                                         0.251083       0.081185
                                                         0.081714       0.002412
                          1       3    4dxz              2.950008      -0.241786
                                                         1.563057       2.285709
                                                         0.666664       0.653124
                                                         0.251083       0.081185
                                                         0.081714       0.002412
                          1       3    4dy2              2.950008      -0.139595
                                                         1.563057       1.319655
                                                         0.666664       0.377081
                                                         0.251083       0.046872
                                                         0.081714       0.001393
                          1       3    4dyz              2.950008      -0.241786
                                                         1.563057       2.285709
                                                         0.666664       0.653124
                                                         0.251083       0.081185
                                                         0.081714       0.002412
                          1       3    4dz2              2.950008      -0.139595
                                                         1.563057       1.319655
                                                         0.666664       0.377081
                                                         0.251083       0.046872
                                                         0.081714       0.001393

       Atomic covalent radius [Angstrom]:                                  1.340

       Atomic van der Waals radius [Angstrom]:                             1.660

     GTH Potential information for                                  GTH-PADE-q11

       Description:                       Goedecker-Teter-Hutter pseudopotential
                                           Goedecker et al., PRB 54, 1703 (1996)
                                          Hartwigsen et al., PRB 58, 3641 (1998)
                                                      Krack, TCA 114, 145 (2005)

       Gaussian exponent of the core charge distribution:               1.436369
       Electronic configuration (s p d ...):                           1   0  10

       Parameters of the local part of the GTH pseudopotential:

                          rloc        C1          C2          C3          C4
                        0.590000   11.604428

       Parameters of the non-local part of the GTH pseudopotential:

                   l      r(l)      h(i,j,l)

                   0    0.521180    2.538614   -1.046137
                                   -1.046137    2.701113
                   1    0.630613    0.394853   -0.869592
                                   -0.869592    2.057831
                   2    0.440706   -4.719070    0.727771
                                    0.727771   -1.650429

  2. Atomic kind: S                                     Number of atoms:       2

     Orbital Basis Set                                        DZVP-MOLOPT-SR-GTH

       Number of orbital shell sets:                                           1
       Number of orbital shells:                                               5
       Number of primitive Cartesian functions:                                4
       Number of Cartesian basis functions:                                   14
       Number of spherical basis functions:                                   13
       Norm type:                                                              2

       Normalised Cartesian orbitals:

                        Set   Shell   Orbital            Exponent    Coefficient

                          1       1    2s                2.215855       0.308496
                                                         1.131471       0.138505
                                                         0.410168      -0.373736
                                                         0.140587      -0.040370

                          1       2    3s                2.215855      -0.329528
                                                         1.131471      -0.517509
                                                         0.410168       0.787368
                                                         0.140587      -0.322786

                          1       3    3px               2.215855       0.420434
                                                         1.131471      -0.319283
                                                         0.410168      -0.335323
                                                         0.140587      -0.030976
                          1       3    3py               2.215855       0.420434
                                                         1.131471      -0.319283
                                                         0.410168      -0.335323
                                                         0.140587      -0.030976
                          1       3    3pz               2.215855       0.420434
                                                         1.131471      -0.319283
                                                         0.410168      -0.335323
                                                         0.140587      -0.030976

                          1       4    4px               2.215855       0.241296
                                                         1.131471      -0.170582
                                                         0.410168      -0.186977
                                                         0.140587       0.153509
                          1       4    4py               2.215855       0.241296
                                                         1.131471      -0.170582
                                                         0.410168      -0.186977
                                                         0.140587       0.153509
                          1       4    4pz               2.215855       0.241296
                                                         1.131471      -0.170582
                                                         0.410168      -0.186977
                                                         0.140587       0.153509

                          1       5    4dx2              2.215855       0.573559
                                                         1.131471       0.544926
                                                         0.410168       0.228284
                                                         0.140587       0.008811
                          1       5    4dxy              2.215855       0.993434
                                                         1.131471       0.943840
                                                         0.410168       0.395400
                                                         0.140587       0.015260
                          1       5    4dxz              2.215855       0.993434
                                                         1.131471       0.943840
                                                         0.410168       0.395400
                                                         0.140587       0.015260
                          1       5    4dy2              2.215855       0.573559
                                                         1.131471       0.544926
                                                         0.410168       0.228284
                                                         0.140587       0.008811
                          1       5    4dyz              2.215855       0.993434
                                                         1.131471       0.943840
                                                         0.410168       0.395400
                                                         0.140587       0.015260
                          1       5    4dz2              2.215855       0.573559
                                                         1.131471       0.544926
                                                         0.410168       0.228284
                                                         0.140587       0.008811

       Atomic covalent radius [Angstrom]:                                  1.020

       Atomic van der Waals radius [Angstrom]:                             1.800

     GTH Potential information for                                   GTH-PADE-q6

       Description:                       Goedecker-Teter-Hutter pseudopotential
                                           Goedecker et al., PRB 54, 1703 (1996)
                                          Hartwigsen et al., PRB 58, 3641 (1998)
                                                      Krack, TCA 114, 145 (2005)

       Gaussian exponent of the core charge distribution:               2.834467
       Electronic configuration (s p d ...):                               2   4

       Parameters of the local part of the GTH pseudopotential:

                          rloc        C1          C2          C3          C4
                        0.420000   -6.554492

       Parameters of the non-local part of the GTH pseudopotential:

                   l      r(l)      h(i,j,l)

                   0    0.361757    7.905303   -1.731881
                                   -1.731881    4.471698
                   1    0.405285    3.866579

  3. Atomic kind: C                                     Number of atoms:       6

     Orbital Basis Set                                        DZVP-MOLOPT-SR-GTH

       Number of orbital shell sets:                                           1
       Number of orbital shells:                                               5
       Number of primitive Cartesian functions:                                5
       Number of Cartesian basis functions:                                   14
       Number of spherical basis functions:                                   13
       Norm type:                                                              2

       Normalised Cartesian orbitals:

                        Set   Shell   Orbital            Exponent    Coefficient

                          1       1    2s                5.605331       0.322515
                                                         2.113016       0.213043
                                                         0.769911      -0.209686
                                                         0.348157      -0.219794
                                                         0.128212      -0.022789

                          1       2    3s                5.605331       0.552234
                                                         2.113016       0.082072
                                                         0.769911       0.007843
                                                         0.348157       0.136893
                                                         0.128212       0.074283

                          1       3    3px               5.605331      -0.703879
                                                         2.113016      -0.642521
                                                         0.769911      -0.374851
                                                         0.348157      -0.139743
                                                         0.128212      -0.027849
                          1       3    3py               5.605331      -0.703879
                                                         2.113016      -0.642521
                                                         0.769911      -0.374851
                                                         0.348157      -0.139743
                                                         0.128212      -0.027849
                          1       3    3pz               5.605331      -0.703879
                                                         2.113016      -0.642521
                                                         0.769911      -0.374851
                                                         0.348157      -0.139743
                                                         0.128212      -0.027849

                          1       4    4px               5.605331      -0.480376
                                                         2.113016      -0.552894
                                                         0.769911      -0.316145
                                                         0.348157       0.210505
                                                         0.128212       0.076095
                          1       4    4py               5.605331      -0.480376
                                                         2.113016      -0.552894
                                                         0.769911      -0.316145
                                                         0.348157       0.210505
                                                         0.128212       0.076095
                          1       4    4pz               5.605331      -0.480376
                                                         2.113016      -0.552894
                                                         0.769911      -0.316145
                                                         0.348157       0.210505
                                                         0.128212       0.076095

                          1       5    4dx2              5.605331       0.640026
                                                         2.113016       0.274300
                                                         0.769911       0.446711
                                                         0.348157       0.028674
                                                         0.128212       0.029790
                          1       5    4dxy              5.605331       1.108557
                                                         2.113016       0.475102
                                                         0.769911       0.773726
                                                         0.348157       0.049666
                                                         0.128212       0.051599
                          1       5    4dxz              5.605331       1.108557
                                                         2.113016       0.475102
                                                         0.769911       0.773726
                                                         0.348157       0.049666
                                                         0.128212       0.051599
                          1       5    4dy2              5.605331       0.640026
                                                         2.113016       0.274300
                                                         0.769911       0.446711
                                                         0.348157       0.028674
                                                         0.128212       0.029790
                          1       5    4dyz              5.605331       1.108557
                                                         2.113016       0.475102
                                                         0.769911       0.773726
                                                         0.348157       0.049666
                                                         0.128212       0.051599
                          1       5    4dz2              5.605331       0.640026
                                                         2.113016       0.274300
                                                         0.769911       0.446711
                                                         0.348157       0.028674
                                                         0.128212       0.029790

       Atomic covalent radius [Angstrom]:                                  0.770

       Atomic van der Waals radius [Angstrom]:                             1.700

     GTH Potential information for                                   GTH-PADE-q4

       Description:                       Goedecker-Teter-Hutter pseudopotential
                                           Goedecker et al., PRB 54, 1703 (1996)
                                          Hartwigsen et al., PRB 58, 3641 (1998)
                                                      Krack, TCA 114, 145 (2005)

       Gaussian exponent of the core charge distribution:               4.109048
       Electronic configuration (s p d ...):                               2   2

       Parameters of the local part of the GTH pseudopotential:

                          rloc        C1          C2          C3          C4
                        0.348830   -8.513771    1.228432

       Parameters of the non-local part of the GTH pseudopotential:

                   l      r(l)      h(i,j,l)

                   0    0.304553    9.522842
                   1    0.232677

  4. Atomic kind: H                                     Number of atoms:       4

     Orbital Basis Set                                        DZVP-MOLOPT-SR-GTH

       Number of orbital shell sets:                                           1
       Number of orbital shells:                                               3
       Number of primitive Cartesian functions:                                5
       Number of Cartesian basis functions:                                    5
       Number of spherical basis functions:                                    5
       Norm type:                                                              2

       Normalised Cartesian orbitals:

                        Set   Shell   Orbital            Exponent    Coefficient

                          1       1    2s               10.068468      -0.133023
                                                         2.680223      -0.177618
                                                         0.791502      -0.258419
                                                         0.239116      -0.107525
                                                         0.082193      -0.014019

                          1       2    3s               10.068468       0.344673
                                                         2.680223       1.819821
                                                         0.791502      -0.999069
                                                         0.239116       0.017430
                                                         0.082193       0.082660

                          1       3    3px              10.068468       0.155326
                                                         2.680223       0.367157
                                                         0.791502       0.311480
                                                         0.239116       0.080105
                                                         0.082193       0.033440
                          1       3    3py              10.068468       0.155326
                                                         2.680223       0.367157
                                                         0.791502       0.311480
                                                         0.239116       0.080105
                                                         0.082193       0.033440
                          1       3    3pz              10.068468       0.155326
                                                         2.680223       0.367157
                                                         0.791502       0.311480
                                                         0.239116       0.080105
                                                         0.082193       0.033440

       Atomic covalent radius [Angstrom]:                                  0.320

       Atomic van der Waals radius [Angstrom]:                             1.090

     GTH Potential information for                                   GTH-PADE-q1

       Description:                       Goedecker-Teter-Hutter pseudopotential
                                           Goedecker et al., PRB 54, 1703 (1996)
                                          Hartwigsen et al., PRB 58, 3641 (1998)
                                                      Krack, TCA 114, 145 (2005)

       Gaussian exponent of the core charge distribution:              12.500000
       Electronic configuration (s p d ...):                                   1

       Parameters of the local part of the GTH pseudopotential:

                          rloc        C1          C2          C3          C4
                        0.200000   -4.180237    0.725075


 MOLECULE KIND INFORMATION


 All atoms are their own molecule, skipping detailed information


 TOTAL NUMBERS AND MAXIMUM NUMBERS

  Total number of            - Atomic kinds:                                   4
                             - Atoms:                                        428
                             - Shell sets:                                   428
                             - Shells:                                      1300
                             - Primitive Cartesian functions:               2138
                             - Cartesian basis functions:                   4292
                             - Spherical basis functions:                   3868

  Maximum angular momentum of- Orbital basis functions:                        2
                             - Local part of the GTH pseudopotential:          2
                             - Non-local part of the GTH pseudopotential:      4


 MODULE QUICKSTEP: ATOMIC COORDINATES IN ANGSTROM

   Atom Kind Element         X             Y             Z       Z(eff)     Mass
      1    1 Au   79      1.042821      1.042821      1.042824  11.0000 196.9666
      2    1 Au   79      3.128465      3.128465      1.042824  11.0000 196.9666
      3    1 Au   79      5.214109      1.042821      1.042824  11.0000 196.9666
      4    1 Au   79     13.556685      1.042821      1.042824  11.0000 196.9666
      5    1 Au   79      1.042821      5.214109      1.042824  11.0000 196.9666
      6    1 Au   79      1.042821     13.556685      1.042824  11.0000 196.9666
      7    1 Au   79      7.299753      3.128465      1.042824  11.0000 196.9666
      8    1 Au   79     15.642329      3.128465      1.042824  11.0000 196.9666
      9    1 Au   79      3.128465      7.299753      1.042824  11.0000 196.9666
     10    1 Au   79      3.128465     15.642329      1.042824  11.0000 196.9666
     11    1 Au   79      9.385397      1.042821      1.042824  11.0000 196.9666
     12    1 Au   79      1.042821      9.385397      1.042824  11.0000 196.9666
     13    1 Au   79     11.471041      3.128465      1.042824  11.0000 196.9666
     14    1 Au   79      3.128465     11.471041      1.042824  11.0000 196.9666
     15    1 Au   79      5.214109      5.214109      1.042824  11.0000 196.9666
     16    1 Au   79     13.556685     13.556685      1.042824  11.0000 196.9666
     17    1 Au   79     13.556685      5.214109      1.042824  11.0000 196.9666
     18    1 Au   79      5.214109     13.556685      1.042824  11.0000 196.9666
     19    1 Au   79      7.299753      7.299753      1.042824  11.0000 196.9666
     20    1 Au   79     15.642329     15.642329      1.042824  11.0000 196.9666
     21    1 Au   79     15.642329      7.299753      1.042824  11.0000 196.9666
     22    1 Au   79      7.299753     15.642329      1.042824  11.0000 196.9666
     23    1 Au   79      5.214109      9.385397      1.042824  11.0000 196.9666
     24    1 Au   79     13.556685      9.385397      1.042824  11.0000 196.9666
     25    1 Au   79      9.385397      5.214109      1.042824  11.0000 196.9666
     26    1 Au   79      9.385397     13.556685      1.042824  11.0000 196.9666
     27    1 Au   79      7.299753     11.471041      1.042824  11.0000 196.9666
     28    1 Au   79     15.642329     11.471041      1.042824  11.0000 196.9666
     29    1 Au   79     11.471041      7.299753      1.042824  11.0000 196.9666
     30    1 Au   79     11.471041     15.642329      1.042824  11.0000 196.9666
     31    1 Au   79      9.385397      9.385397      1.042824  11.0000 196.9666
     32    1 Au   79     11.471041     11.471041      1.042824  11.0000 196.9666
     33    1 Au   79      1.042821      3.128465      3.128468  11.0000 196.9666
     34    1 Au   79      3.128465      1.042821      3.128468  11.0000 196.9666
     35    1 Au   79      5.214109      3.128465      3.128468  11.0000 196.9666
     36    1 Au   79     13.556685      3.128465      3.128468  11.0000 196.9666
     37    1 Au   79      1.042821      7.299753      3.128468  11.0000 196.9666
     38    1 Au   79      1.042821     15.642329      3.128468  11.0000 196.9666
     39    1 Au   79      7.299753      1.042821      3.128468  11.0000 196.9666
     40    1 Au   79     15.642329      1.042821      3.128468  11.0000 196.9666
     41    1 Au   79      3.128465      5.214109      3.128468  11.0000 196.9666
     42    1 Au   79      3.128465     13.556685      3.128468  11.0000 196.9666
     43    1 Au   79      9.385397      3.128465      3.128468  11.0000 196.9666
     44    1 Au   79      1.042821     11.471041      3.128468  11.0000 196.9666
     45    1 Au   79     11.471041      1.042821      3.128468  11.0000 196.9666
     46    1 Au   79      3.128465      9.385397      3.128468  11.0000 196.9666
     47    1 Au   79      5.214109      7.299753      3.128468  11.0000 196.9666
     48    1 Au   79     13.556685     15.642329      3.128468  11.0000 196.9666
     49    1 Au   79     13.556685      7.299753      3.128468  11.0000 196.9666
     50    1 Au   79      5.214109     15.642329      3.128468  11.0000 196.9666
     51    1 Au   79      7.299753      5.214109      3.128468  11.0000 196.9666
     52    1 Au   79     15.642329     13.556685      3.128468  11.0000 196.9666
     53    1 Au   79     15.642329      5.214109      3.128468  11.0000 196.9666
     54    1 Au   79      7.299753     13.556685      3.128468  11.0000 196.9666
     55    1 Au   79      5.214109     11.471041      3.128468  11.0000 196.9666
     56    1 Au   79     13.556685     11.471041      3.128468  11.0000 196.9666
     57    1 Au   79      9.385397      7.299753      3.128468  11.0000 196.9666
     58    1 Au   79      9.385397     15.642329      3.128468  11.0000 196.9666
     59    1 Au   79      7.299753      9.385397      3.128468  11.0000 196.9666
     60    1 Au   79     15.642329      9.385397      3.128468  11.0000 196.9666
     61    1 Au   79     11.471041      5.214109      3.128468  11.0000 196.9666
     62    1 Au   79     11.471041     13.556685      3.128468  11.0000 196.9666
     63    1 Au   79      9.385397     11.471041      3.128468  11.0000 196.9666
     64    1 Au   79     11.471041      9.385397      3.128468  11.0000 196.9666
     65    1 Au   79      1.042821      1.042821      5.214112  11.0000 196.9666
     66    1 Au   79      3.128465      3.128465      5.214112  11.0000 196.9666
     67    1 Au   79      1.042821      5.214109      5.214112  11.0000 196.9666
     68    1 Au   79      1.042821     13.556685      5.214112  11.0000 196.9666
     69    1 Au   79      5.214109      1.042821      5.214112  11.0000 196.9666
     70    1 Au   79     13.556685      1.042821      5.214112  11.0000 196.9666
     71    1 Au   79      3.128465      7.299753      5.214112  11.0000 196.9666
     72    1 Au   79      3.128465     15.642329      5.214112  11.0000 196.9666
     73    1 Au   79      7.299753      3.128465      5.214112  11.0000 196.9666
     74    1 Au   79     15.642329      3.128465      5.214112  11.0000 196.9666
     75    1 Au   79      9.385397      1.042821      5.214112  11.0000 196.9666
     76    1 Au   79      1.042821      9.385397      5.214112  11.0000 196.9666
     77    1 Au   79     11.471041      3.128465      5.214112  11.0000 196.9666
     78    1 Au   79      3.128465     11.471041      5.214112  11.0000 196.9666
     79    1 Au   79      5.214109      5.214109      5.214112  11.0000 196.9666
     80    1 Au   79     13.556685     13.556685      5.214112  11.0000 196.9666
     81    1 Au   79      5.214109     13.556685      5.214112  11.0000 196.9666
     82    1 Au   79     13.556685      5.214109      5.214112  11.0000 196.9666
     83    1 Au   79      7.299753      7.299753      5.214112  11.0000 196.9666
     84    1 Au   79     15.642329     15.642329      5.214112  11.0000 196.9666
     85    1 Au   79      7.299753     15.642329      5.214112  11.0000 196.9666
     86    1 Au   79     15.642329      7.299753      5.214112  11.0000 196.9666
     87    1 Au   79      9.385397      5.214109      5.214112  11.0000 196.9666
     88    1 Au   79      9.385397     13.556685      5.214112  11.0000 196.9666
     89    1 Au   79      5.214109      9.385397      5.214112  11.0000 196.9666
     90    1 Au   79     13.556685      9.385397      5.214112  11.0000 196.9666
     91    1 Au   79     11.471041      7.299753      5.214112  11.0000 196.9666
     92    1 Au   79     11.471041     15.642329      5.214112  11.0000 196.9666
     93    1 Au   79      7.299753     11.471041      5.214112  11.0000 196.9666
     94    1 Au   79     15.642329     11.471041      5.214112  11.0000 196.9666
     95    1 Au   79      9.385397      9.385397      5.214112  11.0000 196.9666
     96    1 Au   79     11.471041     11.471041      5.214112  11.0000 196.9666
     97    1 Au   79      1.042821      3.128465      7.299756  11.0000 196.9666
     98    1 Au   79      3.128465      1.042821      7.299756  11.0000 196.9666
     99    1 Au   79      1.042821      7.299753      7.299756  11.0000 196.9666
    100    1 Au   79      1.042821     15.642329      7.299756  11.0000 196.9666
    101    1 Au   79      5.214109      3.128465      7.299756  11.0000 196.9666
    102    1 Au   79     13.556685      3.128465      7.299756  11.0000 196.9666
    103    1 Au   79      3.128465      5.214109      7.299756  11.0000 196.9666
    104    1 Au   79      3.128465     13.556685      7.299756  11.0000 196.9666
    105    1 Au   79      7.299753      1.042821      7.299756  11.0000 196.9666
    106    1 Au   79     15.642329      1.042821      7.299756  11.0000 196.9666
    107    1 Au   79      9.385397      3.128465      7.299756  11.0000 196.9666
    108    1 Au   79      1.042821     11.471041      7.299756  11.0000 196.9666
    109    1 Au   79     11.471041      1.042821      7.299756  11.0000 196.9666
    110    1 Au   79      3.128465      9.385397      7.299756  11.0000 196.9666
    111    1 Au   79      5.214109      7.299753      7.299756  11.0000 196.9666
    112    1 Au   79     13.556685     15.642329      7.299756  11.0000 196.9666
    113    1 Au   79      5.214109     15.642329      7.299756  11.0000 196.9666
    114    1 Au   79     13.556685      7.299753      7.299756  11.0000 196.9666
    115    1 Au   79      7.299753      5.214109      7.299756  11.0000 196.9666
    116    1 Au   79     15.642329     13.556685      7.299756  11.0000 196.9666
    117    1 Au   79      7.299753     13.556685      7.299756  11.0000 196.9666
    118    1 Au   79     15.642329      5.214109      7.299756  11.0000 196.9666
    119    1 Au   79      9.385397      7.299753      7.299756  11.0000 196.9666
    120    1 Au   79      9.385397     15.642329      7.299756  11.0000 196.9666
    121    1 Au   79      5.214109     11.471041      7.299756  11.0000 196.9666
    122    1 Au   79     13.556685     11.471041      7.299756  11.0000 196.9666
    123    1 Au   79     11.471041      5.214109      7.299756  11.0000 196.9666
    124    1 Au   79     11.471041     13.556685      7.299756  11.0000 196.9666
    125    1 Au   79      7.299753      9.385397      7.299756  11.0000 196.9666
    126    1 Au   79     15.642329      9.385397      7.299756  11.0000 196.9666
    127    1 Au   79      9.385397     11.471041      7.299756  11.0000 196.9666
    128    1 Au   79     11.471041      9.385397      7.299756  11.0000 196.9666
    129    1 Au   79      1.042821      1.042821      9.385400  11.0000 196.9666
    130    1 Au   79      3.128465      3.128465      9.385400  11.0000 196.9666
    131    1 Au   79      1.042821     13.556685      9.385400  11.0000 196.9666
    132    1 Au   79      1.042821      5.214109      9.385400  11.0000 196.9666
    133    1 Au   79     13.556685      1.042821      9.385400  11.0000 196.9666
    134    1 Au   79      5.214109      1.042821      9.385400  11.0000 196.9666
    135    1 Au   79      3.128465     15.642329      9.385400  11.0000 196.9666
    136    1 Au   79      3.128465      7.299753      9.385400  11.0000 196.9666
    137    1 Au   79     15.642329      3.128465      9.385400  11.0000 196.9666
    138    1 Au   79      7.299753      3.128465      9.385400  11.0000 196.9666
    139    1 Au   79      9.385397      1.042821      9.385400  11.0000 196.9666
    140    1 Au   79      1.042821      9.385397      9.385400  11.0000 196.9666
    141    1 Au   79     11.471041      3.128465      9.385400  11.0000 196.9666
    142    1 Au   79      3.128465     11.471041      9.385400  11.0000 196.9666
    143    1 Au   79     13.556685     13.556685      9.385400  11.0000 196.9666
    144    1 Au   79      5.214109      5.214109      9.385400  11.0000 196.9666
    145    1 Au   79     13.556685      5.214109      9.385400  11.0000 196.9666
    146    1 Au   79      5.214109     13.556685      9.385400  11.0000 196.9666
    147    1 Au   79     15.642329     15.642329      9.385400  11.0000 196.9666
    148    1 Au   79      7.299753      7.299753      9.385400  11.0000 196.9666
    149    1 Au   79     15.642329      7.299753      9.385400  11.0000 196.9666
    150    1 Au   79      7.299753     15.642329      9.385400  11.0000 196.9666
    151    1 Au   79      9.385397     13.556685      9.385400  11.0000 196.9666
    152    1 Au   79      9.385397      5.214109      9.385400  11.0000 196.9666
    153    1 Au   79     13.556685      9.385397      9.385400  11.0000 196.9666
    154    1 Au   79      5.214109      9.385397      9.385400  11.0000 196.9666
    155    1 Au   79     11.471041     15.642329      9.385400  11.0000 196.9666
    156    1 Au   79     11.471041      7.299753      9.385400  11.0000 196.9666
    157    1 Au   79     15.642329     11.471041      9.385400  11.0000 196.9666
    158    1 Au   79      7.299753     11.471041      9.385400  11.0000 196.9666
    159    1 Au   79      9.385397      9.385397      9.385400  11.0000 196.9666
    160    1 Au   79     11.471041     11.471041      9.385400  11.0000 196.9666
    161    1 Au   79      1.042821      3.128465     11.471044  11.0000 196.9666
    162    1 Au   79      3.128465      1.042821     11.471044  11.0000 196.9666
    163    1 Au   79      1.042821     15.642329     11.471044  11.0000 196.9666
    164    1 Au   79      1.042821      7.299753     11.471044  11.0000 196.9666
    165    1 Au   79     13.556685      3.128465     11.471044  11.0000 196.9666
    166    1 Au   79      5.214109      3.128465     11.471044  11.0000 196.9666
    167    1 Au   79      3.128465     13.556685     11.471044  11.0000 196.9666
    168    1 Au   79      3.128465      5.214109     11.471044  11.0000 196.9666
    169    1 Au   79     15.642329      1.042821     11.471044  11.0000 196.9666
    170    1 Au   79      7.299753      1.042821     11.471044  11.0000 196.9666
    171    1 Au   79      9.385397      3.128465     11.471044  11.0000 196.9666
    172    1 Au   79      1.042821     11.471041     11.471044  11.0000 196.9666
    173    1 Au   79     11.471041      1.042821     11.471044  11.0000 196.9666
    174    1 Au   79      3.128465      9.385397     11.471044  11.0000 196.9666
    175    1 Au   79     13.556685     15.642329     11.471044  11.0000 196.9666
    176    1 Au   79      5.214109      7.299753     11.471044  11.0000 196.9666
    177    1 Au   79     13.556685      7.299753     11.471044  11.0000 196.9666
    178    1 Au   79      5.214109     15.642329     11.471044  11.0000 196.9666
    179    1 Au   79     15.642329     13.556685     11.471044  11.0000 196.9666
    180    1 Au   79      7.299753      5.214109     11.471044  11.0000 196.9666
    181    1 Au   79     15.642329      5.214109     11.471044  11.0000 196.9666
    182    1 Au   79      7.299753     13.556685     11.471044  11.0000 196.9666
    183    1 Au   79      9.385397     15.642329     11.471044  11.0000 196.9666
    184    1 Au   79      9.385397      7.299753     11.471044  11.0000 196.9666
    185    1 Au   79     13.556685     11.471041     11.471044  11.0000 196.9666
    186    1 Au   79      5.214109     11.471041     11.471044  11.0000 196.9666
    187    1 Au   79     11.471041     13.556685     11.471044  11.0000 196.9666
    188    1 Au   79     11.471041      5.214109     11.471044  11.0000 196.9666
    189    1 Au   79     15.642329      9.385397     11.471044  11.0000 196.9666
    190    1 Au   79      7.299753      9.385397     11.471044  11.0000 196.9666
    191    1 Au   79      9.385397     11.471041     11.471044  11.0000 196.9666
    192    1 Au   79     11.471041      9.385397     11.471044  11.0000 196.9666
    193    1 Au   79      1.042821      1.042821     13.556688  11.0000 196.9666
    194    1 Au   79      3.128465      3.128465     13.556688  11.0000 196.9666
    195    1 Au   79      5.214109      1.042821     13.556688  11.0000 196.9666
    196    1 Au   79     13.556685      1.042821     13.556688  11.0000 196.9666
    197    1 Au   79      1.042821      5.214109     13.556688  11.0000 196.9666
    198    1 Au   79      1.042821     13.556685     13.556688  11.0000 196.9666
    199    1 Au   79      7.299753      3.128465     13.556688  11.0000 196.9666
    200    1 Au   79     15.642329      3.128465     13.556688  11.0000 196.9666
    201    1 Au   79      3.128465      7.299753     13.556688  11.0000 196.9666
    202    1 Au   79      3.128465     15.642329     13.556688  11.0000 196.9666
    203    1 Au   79      9.385397      1.042821     13.556688  11.0000 196.9666
    204    1 Au   79      1.042821      9.385397     13.556688  11.0000 196.9666
    205    1 Au   79     11.471041      3.128465     13.556688  11.0000 196.9666
    206    1 Au   79      3.128465     11.471041     13.556688  11.0000 196.9666
    207    1 Au   79      5.214109      5.214109     13.556688  11.0000 196.9666
    208    1 Au   79     13.556685     13.556685     13.556688  11.0000 196.9666
    209    1 Au   79     13.556685      5.214109     13.556688  11.0000 196.9666
    210    1 Au   79      5.214109     13.556685     13.556688  11.0000 196.9666
    211    1 Au   79      7.299753      7.299753     13.556688  11.0000 196.9666
    212    1 Au   79     15.642329     15.642329     13.556688  11.0000 196.9666
    213    1 Au   79     15.642329      7.299753     13.556688  11.0000 196.9666
    214    1 Au   79      7.299753     15.642329     13.556688  11.0000 196.9666
    215    1 Au   79      5.214109      9.385397     13.556688  11.0000 196.9666
    216    1 Au   79     13.556685      9.385397     13.556688  11.0000 196.9666
    217    1 Au   79      9.385397      5.214109     13.556688  11.0000 196.9666
    218    1 Au   79      9.385397     13.556685     13.556688  11.0000 196.9666
    219    1 Au   79      7.299753     11.471041     13.556688  11.0000 196.9666
    220    1 Au   79     15.642329     11.471041     13.556688  11.0000 196.9666
    221    1 Au   79     11.471041      7.299753     13.556688  11.0000 196.9666
    222    1 Au   79     11.471041     15.642329     13.556688  11.0000 196.9666
    223    1 Au   79      9.385397      9.385397     13.556688  11.0000 196.9666
    224    1 Au   79     11.471041     11.471041     13.556688  11.0000 196.9666
    225    2 S    16      9.385401     11.471041     21.189004   6.0000  32.0650
    226    3 C     6      9.371421     11.464971     19.427505   4.0000  12.0107
    227    3 C     6      8.172851     11.459011     18.727034   4.0000  12.0107
    228    3 C     6     10.580701     11.459011     18.727034   4.0000  12.0107
    229    2 S    16      9.385401     11.471041     14.842224   6.0000  32.0650
    230    3 C     6      9.388801     11.474891     16.603724   4.0000  12.0107
    231    3 C     6     10.587371     11.480861     17.304184   4.0000  12.0107
    232    3 C     6      8.179521     11.480861     17.304184   4.0000  12.0107
    233    4 H     1      7.276671     11.438711     19.238394   1.0000   1.0079
    234    4 H     1     11.473461     11.438651     19.244314   1.0000   1.0079
    235    4 H     1     11.483551     11.501151     16.792834   1.0000   1.0079
    236    4 H     1      7.286761     11.501221     16.786914   1.0000   1.0079
    237    1 Au   79      1.042821      1.042821     22.474524  11.0000 196.9666
    238    1 Au   79      3.128465      3.128465     22.474524  11.0000 196.9666
    239    1 Au   79      5.214109      1.042821     22.474524  11.0000 196.9666
    240    1 Au   79     13.556685      1.042821     22.474524  11.0000 196.9666
    241    1 Au   79      1.042821      5.214109     22.474524  11.0000 196.9666
    242    1 Au   79      1.042821     13.556685     22.474524  11.0000 196.9666
    243    1 Au   79      7.299753      3.128465     22.474524  11.0000 196.9666
    244    1 Au   79     15.642329      3.128465     22.474524  11.0000 196.9666
    245    1 Au   79      3.128465      7.299753     22.474524  11.0000 196.9666
    246    1 Au   79      3.128465     15.642329     22.474524  11.0000 196.9666
    247    1 Au   79      9.385397      1.042821     22.474524  11.0000 196.9666
    248    1 Au   79      1.042821      9.385397     22.474524  11.0000 196.9666
    249    1 Au   79     11.471041      3.128465     22.474524  11.0000 196.9666
    250    1 Au   79      3.128465     11.471041     22.474524  11.0000 196.9666
    251    1 Au   79      5.214109      5.214109     22.474524  11.0000 196.9666
    252    1 Au   79     13.556685     13.556685     22.474524  11.0000 196.9666
    253    1 Au   79     13.556685      5.214109     22.474524  11.0000 196.9666
    254    1 Au   79      5.214109     13.556685     22.474524  11.0000 196.9666
    255    1 Au   79      7.299753      7.299753     22.474524  11.0000 196.9666
    256    1 Au   79     15.642329     15.642329     22.474524  11.0000 196.9666
    257    1 Au   79     15.642329      7.299753     22.474524  11.0000 196.9666
    258    1 Au   79      7.299753     15.642329     22.474524  11.0000 196.9666
    259    1 Au   79      5.214109      9.385397     22.474524  11.0000 196.9666
    260    1 Au   79     13.556685      9.385397     22.474524  11.0000 196.9666
    261    1 Au   79      9.385397      5.214109     22.474524  11.0000 196.9666
    262    1 Au   79      9.385397     13.556685     22.474524  11.0000 196.9666
    263    1 Au   79      7.299753     11.471041     22.474524  11.0000 196.9666
    264    1 Au   79     15.642329     11.471041     22.474524  11.0000 196.9666
    265    1 Au   79     11.471041      7.299753     22.474524  11.0000 196.9666
    266    1 Au   79     11.471041     15.642329     22.474524  11.0000 196.9666
    267    1 Au   79      9.385397      9.385397     22.474524  11.0000 196.9666
    268    1 Au   79     11.471041     11.471041     22.474524  11.0000 196.9666
    269    1 Au   79      1.042821      3.128465     24.560168  11.0000 196.9666
    270    1 Au   79      3.128465      1.042821     24.560168  11.0000 196.9666
    271    1 Au   79      5.214109      3.128465     24.560168  11.0000 196.9666
    272    1 Au   79     13.556685      3.128465     24.560168  11.0000 196.9666
    273    1 Au   79      1.042821      7.299753     24.560168  11.0000 196.9666
    274    1 Au   79      1.042821     15.642329     24.560168  11.0000 196.9666
    275    1 Au   79      7.299753      1.042821     24.560168  11.0000 196.9666
    276    1 Au   79     15.642329      1.042821     24.560168  11.0000 196.9666
    277    1 Au   79      3.128465      5.214109     24.560168  11.0000 196.9666
    278    1 Au   79      3.128465     13.556685     24.560168  11.0000 196.9666
    279    1 Au   79      9.385397      3.128465     24.560168  11.0000 196.9666
    280    1 Au   79      1.042821     11.471041     24.560168  11.0000 196.9666
    281    1 Au   79     11.471041      1.042821     24.560168  11.0000 196.9666
    282    1 Au   79      3.128465      9.385397     24.560168  11.0000 196.9666
    283    1 Au   79      5.214109      7.299753     24.560168  11.0000 196.9666
    284    1 Au   79     13.556685     15.642329     24.560168  11.0000 196.9666
    285    1 Au   79     13.556685      7.299753     24.560168  11.0000 196.9666
    286    1 Au   79      5.214109     15.642329     24.560168  11.0000 196.9666
    287    1 Au   79      7.299753      5.214109     24.560168  11.0000 196.9666
    288    1 Au   79     15.642329     13.556685     24.560168  11.0000 196.9666
    289    1 Au   79     15.642329      5.214109     24.560168  11.0000 196.9666
    290    1 Au   79      7.299753     13.556685     24.560168  11.0000 196.9666
    291    1 Au   79      5.214109     11.471041     24.560168  11.0000 196.9666
    292    1 Au   79     13.556685     11.471041     24.560168  11.0000 196.9666
    293    1 Au   79      9.385397      7.299753     24.560168  11.0000 196.9666
    294    1 Au   79      9.385397     15.642329     24.560168  11.0000 196.9666
    295    1 Au   79      7.299753      9.385397     24.560168  11.0000 196.9666
    296    1 Au   79     15.642329      9.385397     24.560168  11.0000 196.9666
    297    1 Au   79     11.471041      5.214109     24.560168  11.0000 196.9666
    298    1 Au   79     11.471041     13.556685     24.560168  11.0000 196.9666
    299    1 Au   79      9.385397     11.471041     24.560168  11.0000 196.9666
    300    1 Au   79     11.471041      9.385397     24.560168  11.0000 196.9666
    301    1 Au   79      1.042821      1.042821     26.645811  11.0000 196.9666
    302    1 Au   79      3.128465      3.128465     26.645811  11.0000 196.9666
    303    1 Au   79      1.042821      5.214109     26.645811  11.0000 196.9666
    304    1 Au   79      1.042821     13.556685     26.645811  11.0000 196.9666
    305    1 Au   79      5.214109      1.042821     26.645811  11.0000 196.9666
    306    1 Au   79     13.556685      1.042821     26.645811  11.0000 196.9666
    307    1 Au   79      3.128465      7.299753     26.645811  11.0000 196.9666
    308    1 Au   79      3.128465     15.642329     26.645811  11.0000 196.9666
    309    1 Au   79      7.299753      3.128465     26.645811  11.0000 196.9666
    310    1 Au   79     15.642329      3.128465     26.645811  11.0000 196.9666
    311    1 Au   79      9.385397      1.042821     26.645811  11.0000 196.9666
    312    1 Au   79      1.042821      9.385397     26.645811  11.0000 196.9666
    313    1 Au   79     11.471041      3.128465     26.645811  11.0000 196.9666
    314    1 Au   79      3.128465     11.471041     26.645811  11.0000 196.9666
    315    1 Au   79      5.214109      5.214109     26.645811  11.0000 196.9666
    316    1 Au   79     13.556685     13.556685     26.645811  11.0000 196.9666
    317    1 Au   79      5.214109     13.556685     26.645811  11.0000 196.9666
    318    1 Au   79     13.556685      5.214109     26.645811  11.0000 196.9666
    319    1 Au   79      7.299753      7.299753     26.645811  11.0000 196.9666
    320    1 Au   79     15.642329     15.642329     26.645811  11.0000 196.9666
    321    1 Au   79      7.299753     15.642329     26.645811  11.0000 196.9666
    322    1 Au   79     15.642329      7.299753     26.645811  11.0000 196.9666
    323    1 Au   79      9.385397      5.214109     26.645811  11.0000 196.9666
    324    1 Au   79      9.385397     13.556685     26.645811  11.0000 196.9666
    325    1 Au   79      5.214109      9.385397     26.645811  11.0000 196.9666
    326    1 Au   79     13.556685      9.385397     26.645811  11.0000 196.9666
    327    1 Au   79     11.471041      7.299753     26.645811  11.0000 196.9666
    328    1 Au   79     11.471041     15.642329     26.645811  11.0000 196.9666
    329    1 Au   79      7.299753     11.471041     26.645811  11.0000 196.9666
    330    1 Au   79     15.642329     11.471041     26.645811  11.0000 196.9666
    331    1 Au   79      9.385397      9.385397     26.645811  11.0000 196.9666
    332    1 Au   79     11.471041     11.471041     26.645811  11.0000 196.9666
    333    1 Au   79      1.042821      3.128465     28.731455  11.0000 196.9666
    334    1 Au   79      3.128465      1.042821     28.731455  11.0000 196.9666
    335    1 Au   79      1.042821      7.299753     28.731455  11.0000 196.9666
    336    1 Au   79      1.042821     15.642329     28.731455  11.0000 196.9666
    337    1 Au   79      5.214109      3.128465     28.731455  11.0000 196.9666
    338    1 Au   79     13.556685      3.128465     28.731455  11.0000 196.9666
    339    1 Au   79      3.128465      5.214109     28.731455  11.0000 196.9666
    340    1 Au   79      3.128465     13.556685     28.731455  11.0000 196.9666
    341    1 Au   79      7.299753      1.042821     28.731455  11.0000 196.9666
    342    1 Au   79     15.642329      1.042821     28.731455  11.0000 196.9666
    343    1 Au   79      9.385397      3.128465     28.731455  11.0000 196.9666
    344    1 Au   79      1.042821     11.471041     28.731455  11.0000 196.9666
    345    1 Au   79     11.471041      1.042821     28.731455  11.0000 196.9666
    346    1 Au   79      3.128465      9.385397     28.731455  11.0000 196.9666
    347    1 Au   79      5.214109      7.299753     28.731455  11.0000 196.9666
    348    1 Au   79     13.556685     15.642329     28.731455  11.0000 196.9666
    349    1 Au   79      5.214109     15.642329     28.731455  11.0000 196.9666
    350    1 Au   79     13.556685      7.299753     28.731455  11.0000 196.9666
    351    1 Au   79      7.299753      5.214109     28.731455  11.0000 196.9666
    352    1 Au   79     15.642329     13.556685     28.731455  11.0000 196.9666
    353    1 Au   79      7.299753     13.556685     28.731455  11.0000 196.9666
    354    1 Au   79     15.642329      5.214109     28.731455  11.0000 196.9666
    355    1 Au   79      9.385397      7.299753     28.731455  11.0000 196.9666
    356    1 Au   79      9.385397     15.642329     28.731455  11.0000 196.9666
    357    1 Au   79      5.214109     11.471041     28.731455  11.0000 196.9666
    358    1 Au   79     13.556685     11.471041     28.731455  11.0000 196.9666
    359    1 Au   79     11.471041      5.214109     28.731455  11.0000 196.9666
    360    1 Au   79     11.471041     13.556685     28.731455  11.0000 196.9666
    361    1 Au   79      7.299753      9.385397     28.731455  11.0000 196.9666
    362    1 Au   79     15.642329      9.385397     28.731455  11.0000 196.9666
    363    1 Au   79      9.385397     11.471041     28.731455  11.0000 196.9666
    364    1 Au   79     11.471041      9.385397     28.731455  11.0000 196.9666
    365    1 Au   79      1.042821      1.042821     30.817102  11.0000 196.9666
    366    1 Au   79      3.128465      3.128465     30.817102  11.0000 196.9666
    367    1 Au   79      1.042821     13.556685     30.817102  11.0000 196.9666
    368    1 Au   79      1.042821      5.214109     30.817102  11.0000 196.9666
    369    1 Au   79     13.556685      1.042821     30.817102  11.0000 196.9666
    370    1 Au   79      5.214109      1.042821     30.817102  11.0000 196.9666
    371    1 Au   79      3.128465     15.642329     30.817102  11.0000 196.9666
    372    1 Au   79      3.128465      7.299753     30.817102  11.0000 196.9666
    373    1 Au   79     15.642329      3.128465     30.817102  11.0000 196.9666
    374    1 Au   79      7.299753      3.128465     30.817102  11.0000 196.9666
    375    1 Au   79      9.385397      1.042821     30.817102  11.0000 196.9666
    376    1 Au   79      1.042821      9.385397     30.817102  11.0000 196.9666
    377    1 Au   79     11.471041      3.128465     30.817102  11.0000 196.9666
    378    1 Au   79      3.128465     11.471041     30.817102  11.0000 196.9666
    379    1 Au   79     13.556685     13.556685     30.817102  11.0000 196.9666
    380    1 Au   79      5.214109      5.214109     30.817102  11.0000 196.9666
    381    1 Au   79     13.556685      5.214109     30.817102  11.0000 196.9666
    382    1 Au   79      5.214109     13.556685     30.817102  11.0000 196.9666
    383    1 Au   79     15.642329     15.642329     30.817102  11.0000 196.9666
    384    1 Au   79      7.299753      7.299753     30.817102  11.0000 196.9666
    385    1 Au   79     15.642329      7.299753     30.817102  11.0000 196.9666
    386    1 Au   79      7.299753     15.642329     30.817102  11.0000 196.9666
    387    1 Au   79      9.385397     13.556685     30.817102  11.0000 196.9666
    388    1 Au   79      9.385397      5.214109     30.817102  11.0000 196.9666
    389    1 Au   79     13.556685      9.385397     30.817102  11.0000 196.9666
    390    1 Au   79      5.214109      9.385397     30.817102  11.0000 196.9666
    391    1 Au   79     11.471041     15.642329     30.817102  11.0000 196.9666
    392    1 Au   79     11.471041      7.299753     30.817102  11.0000 196.9666
    393    1 Au   79     15.642329     11.471041     30.817102  11.0000 196.9666
    394    1 Au   79      7.299753     11.471041     30.817102  11.0000 196.9666
    395    1 Au   79      9.385397      9.385397     30.817102  11.0000 196.9666
    396    1 Au   79     11.471041     11.471041     30.817102  11.0000 196.9666
    397    1 Au   79      1.042821      3.128465     32.902746  11.0000 196.9666
    398    1 Au   79      3.128465      1.042821     32.902746  11.0000 196.9666
    399    1 Au   79      1.042821     15.642329     32.902746  11.0000 196.9666
    400    1 Au   79      1.042821      7.299753     32.902746  11.0000 196.9666
    401    1 Au   79     13.556685      3.128465     32.902746  11.0000 196.9666
    402    1 Au   79      5.214109      3.128465     32.902746  11.0000 196.9666
    403    1 Au   79      3.128465     13.556685     32.902746  11.0000 196.9666
    404    1 Au   79      3.128465      5.214109     32.902746  11.0000 196.9666
    405    1 Au   79     15.642329      1.042821     32.902746  11.0000 196.9666
    406    1 Au   79      7.299753      1.042821     32.902746  11.0000 196.9666
    407    1 Au   79      9.385397      3.128465     32.902746  11.0000 196.9666
    408    1 Au   79      1.042821     11.471041     32.902746  11.0000 196.9666
    409    1 Au   79     11.471041      1.042821     32.902746  11.0000 196.9666
    410    1 Au   79      3.128465      9.385397     32.902746  11.0000 196.9666
    411    1 Au   79     13.556685     15.642329     32.902746  11.0000 196.9666
    412    1 Au   79      5.214109      7.299753     32.902746  11.0000 196.9666
    413    1 Au   79     13.556685      7.299753     32.902746  11.0000 196.9666
    414    1 Au   79      5.214109     15.642329     32.902746  11.0000 196.9666
    415    1 Au   79     15.642329     13.556685     32.902746  11.0000 196.9666
    416    1 Au   79      7.299753      5.214109     32.902746  11.0000 196.9666
    417    1 Au   79     15.642329      5.214109     32.902746  11.0000 196.9666
    418    1 Au   79      7.299753     13.556685     32.902746  11.0000 196.9666
    419    1 Au   79      9.385397     15.642329     32.902746  11.0000 196.9666
    420    1 Au   79      9.385397      7.299753     32.902746  11.0000 196.9666
    421    1 Au   79     13.556685     11.471041     32.902746  11.0000 196.9666
    422    1 Au   79      5.214109     11.471041     32.902746  11.0000 196.9666
    423    1 Au   79     11.471041     13.556685     32.902746  11.0000 196.9666
    424    1 Au   79     11.471041      5.214109     32.902746  11.0000 196.9666
    425    1 Au   79     15.642329      9.385397     32.902746  11.0000 196.9666
    426    1 Au   79      7.299753      9.385397     32.902746  11.0000 196.9666
    427    1 Au   79      9.385397     11.471041     32.902746  11.0000 196.9666
    428    1 Au   79     11.471041      9.385397     32.902746  11.0000 196.9666



 SCF PARAMETERS         Density guess:                                   RESTART
                        --------------------------------------------------------
                        max_scf:                                             100
                        max_scf_history:                                       0
                        max_diis:                                              4
                        --------------------------------------------------------
                        eps_scf:                                        1.00E-07
                        eps_scf_history:                                0.00E+00
                        eps_diis:                                       1.00E-01
                        eps_eigval:                                     1.00E-05
                        --------------------------------------------------------
                        level_shift [a.u.]:                             0.000000
                        added MOs                                       100    0
                        --------------------------------------------------------
                        Mixing method:                            BROYDEN_MIXING
                                                charge density mixing in g-space
                        --------------------------------------------------------
                        Smear method:                                FERMI_DIRAC
                        Electronic temperature [K]:                        293.0
                        Electronic temperature [a.u.]:                  9.28E-04
                        Accuracy threshold:                             1.00E-10
                        --------------------------------------------------------
                        No outer SCF

 PW_GRID| Information for grid number                                          1
 PW_GRID| Grid distributed over                                   240 processors
 PW_GRID| Real space group dimensions                                    12   20
 PW_GRID| the grid is blocked:                                               YES
 PW_GRID| Cutoff [a.u.]                                                    200.0
 PW_GRID| spherical cutoff:                                                   NO
 PW_GRID|   Bounds   1           -105     104                Points:         210
 PW_GRID|   Bounds   2           -105     104                Points:         210
 PW_GRID|   Bounds   3           -210     209                Points:         420
 PW_GRID| Volume element (a.u.^3)  0.3443E-02     Volume (a.u.^3)     63773.4546
 PW_GRID| Grid span                                                    FULLSPACE
 PW_GRID|   Distribution                         Average         Max         Min
 PW_GRID|   G-Vectors                            77175.0       79380       74970
 PW_GRID|   G-Rays                                 367.5         378         357
 PW_GRID|   Real Space Points                    77175.0       79380       74970

 PW_GRID| Information for grid number                                          2
 PW_GRID| Number of the reference grid                                         1
 PW_GRID| Grid distributed over                                   240 processors
 PW_GRID| Real space group dimensions                                    12   20
 PW_GRID| the grid is blocked:                                                NO
 PW_GRID| Cutoff [a.u.]                                                     66.7
 PW_GRID| spherical cutoff:                                                   NO
 PW_GRID|   Bounds   1            -60      59                Points:         120
 PW_GRID|   Bounds   2            -60      59                Points:         120
 PW_GRID|   Bounds   3           -120     119                Points:         240
 PW_GRID| Volume element (a.u.^3)  0.1845E-01     Volume (a.u.^3)     63773.4546
 PW_GRID| Grid span                                                    FULLSPACE
 PW_GRID|   Distribution                         Average         Max         Min
 PW_GRID|   G-Vectors                            14400.0       45360           0
 PW_GRID|   G-Rays                                 120.0         378           0
 PW_GRID|   Real Space Points                    14400.0       14400       14400

 PW_GRID| Information for grid number                                          3
 PW_GRID| Number of the reference grid                                         1
 PW_GRID| Grid distributed over                                   240 processors
 PW_GRID| Real space group dimensions                                    12   20
 PW_GRID| the grid is blocked:                                                NO
 PW_GRID| Cutoff [a.u.]                                                     22.2
 PW_GRID| spherical cutoff:                                                   NO
 PW_GRID|   Bounds   1            -35      34                Points:          70
 PW_GRID|   Bounds   2            -35      34                Points:          70
 PW_GRID|   Bounds   3            -70      69                Points:         140
 PW_GRID| Volume element (a.u.^3)  0.9296E-01     Volume (a.u.^3)     63773.4546
 PW_GRID| Grid span                                                    FULLSPACE
 PW_GRID|   Distribution                         Average         Max         Min
 PW_GRID|   G-Vectors                             2858.3       26460           0
 PW_GRID|   G-Rays                                  40.8         378           0
 PW_GRID|   Real Space Points                     2858.3        3360        2100

 PW_GRID| Information for grid number                                          4
 PW_GRID| Number of the reference grid                                         1
 PW_GRID| Grid distributed over                                   240 processors
 PW_GRID| Real space group dimensions                                    12   20
 PW_GRID| the grid is blocked:                                                NO
 PW_GRID| Cutoff [a.u.]                                                      7.4
 PW_GRID| spherical cutoff:                                                   NO
 PW_GRID|   Bounds   1            -20      19                Points:          40
 PW_GRID|   Bounds   2            -20      19                Points:          40
 PW_GRID|   Bounds   3            -40      39                Points:          80
 PW_GRID| Volume element (a.u.^3)  0.4982         Volume (a.u.^3)     63773.4546
 PW_GRID| Grid span                                                    FULLSPACE
 PW_GRID|   Distribution                         Average         Max         Min
 PW_GRID|   G-Vectors                              533.3       15120           0
 PW_GRID|   G-Rays                                  13.3         378           0
 PW_GRID|   Real Space Points                      533.3         640         480

 POISSON| Solver                                                        PERIODIC
 POISSON| Periodicity                                                        XYZ

 RS_GRID| Information for grid number                                          1
 RS_GRID|   Bounds   1           -105     104                Points:         210
 RS_GRID|   Bounds   2           -105     104                Points:         210
 RS_GRID|   Bounds   3           -210     209                Points:         420
 RS_GRID| Real space distribution over                                  4 groups
 RS_GRID| Real space distribution along direction                              1
 RS_GRID| Border size                                                         30
 RS_GRID| Real space distribution over                                  5 groups
 RS_GRID| Real space distribution along direction                              2
 RS_GRID| Border size                                                         30
 RS_GRID| Real space distribution over                                 12 groups
 RS_GRID| Real space distribution along direction                              3
 RS_GRID| Border size                                                         30
 RS_GRID|   Distribution                         Average         Max         Min
 RS_GRID|   Planes                                 112.5         113         112
 RS_GRID|   Distribution                         Average         Max         Min
 RS_GRID|   Planes                                 102.0         102         102
 RS_GRID|   Distribution                         Average         Max         Min
 RS_GRID|   Planes                                  95.0          95          95

 RS_GRID| Information for grid number                                          2
 RS_GRID|   Bounds   1            -60      59                Points:         120
 RS_GRID|   Bounds   2            -60      59                Points:         120
 RS_GRID|   Bounds   3           -120     119                Points:         240
 RS_GRID| Real space distribution over                                  4 groups
 RS_GRID| Real space distribution along direction                              1
 RS_GRID| Border size                                                         22
 RS_GRID| Real space distribution over                                  5 groups
 RS_GRID| Real space distribution along direction                              2
 RS_GRID| Border size                                                         22
 RS_GRID| Real space distribution over                                 12 groups
 RS_GRID| Real space distribution along direction                              3
 RS_GRID| Border size                                                         22
 RS_GRID|   Distribution                         Average         Max         Min
 RS_GRID|   Planes                                  74.0          74          74
 RS_GRID|   Distribution                         Average         Max         Min
 RS_GRID|   Planes                                  68.0          68          68
 RS_GRID|   Distribution                         Average         Max         Min
 RS_GRID|   Planes                                  64.0          64          64

 RS_GRID| Information for grid number                                          3
 RS_GRID|   Bounds   1            -35      34                Points:          70
 RS_GRID|   Bounds   2            -35      34                Points:          70
 RS_GRID|   Bounds   3            -70      69                Points:         140
 RS_GRID| Real space fully replicated
 RS_GRID| Group size                                                           1

 RS_GRID| Information for grid number                                          4
 RS_GRID|   Bounds   1            -20      19                Points:          40
 RS_GRID|   Bounds   2            -20      19                Points:          40
 RS_GRID|   Bounds   3            -40      39                Points:          80
 RS_GRID| Real space fully replicated
 RS_GRID| Group size                                                           1

 KPOINTS| Number of kpoint groups                                              1
 KPOINTS| Size of each kpoint group                                          240
 KPOINTS| Number of kpoints per group                                          1

 Number of electrons:                                                       4616
 Number of occupied orbitals:                                               2308
 Number of molecular orbitals:                                              2408

 Number of orbital functions:                                               3868
 Number of independent orbital functions:                                   3868

 Extrapolation method: initial_guess


 SCF WAVEFUNCTION OPTIMIZATION

  Step     Update method      Time    Convergence         Total energy    Change
  ------------------------------------------------------------------------------
 SMEAGOL DEBUG| Number of electrons in the unit cell =      4616.0000000215
smeagol: different Fermi energies for left and right electrodes
     1 NoMix/SMGL  0.30E+00  955.6    14.83888463    -13902.5162120886 -1.39E+04
 SMEAGOL DEBUG| Number of electrons in the unit cell =      4410.6596874446
     2 Broy./SMGL  0.30E+00  221.4    19.88726683    -14719.0873347826 -8.17E+02
 SMEAGOL DEBUG| Number of electrons in the unit cell =      4341.7711013883
     3 Broy./SMGL  0.30E+00  223.4     7.84530882    -16285.6751989072 -1.57E+03
 SMEAGOL DEBUG| Number of electrons in the unit cell =      3901.9033227876
     4 Broy./SMGL  0.30E+00  227.3    19.27553138    -15333.4972046974  9.52E+02
 SMEAGOL DEBUG| Number of electrons in the unit cell =      3512.6665397058
     5 Broy./SMGL  0.30E+00  225.9    20.18768800    -12948.2092339304  2.39E+03
 SMEAGOL DEBUG| Number of electrons in the unit cell =      3357.5093302404
     6 Broy./SMGL  0.30E+00  226.8    12.80110374    -11733.2005633571  1.22E+03
 SMEAGOL DEBUG| Number of electrons in the unit cell =      3320.6315992563
     7 Broy./SMGL  0.30E+00  226.2    20.81236764    -11649.8588769574  8.33E+01
 SMEAGOL DEBUG| Number of electrons in the unit cell =      3310.9055332029
     8 Broy./SMGL  0.30E+00  226.5     9.58928964    -12151.9310155418 -5.02E+02
 SMEAGOL DEBUG| Number of electrons in the unit cell =      3309.2399054776
     9 Broy./SMGL  0.30E+00  227.2    24.38833229    -12000.3772301331  1.52E+02
 SMEAGOL DEBUG| Number of electrons in the unit cell =      3311.9861850760
    10 Broy./SMGL  0.30E+00  225.7    15.35066209    -12094.8491982982 -9.45E+01
 SMEAGOL DEBUG| Number of electrons in the unit cell =      3434.7168316019
    11 Broy./SMGL  0.30E+00  226.6    14.74201601    -12459.8357014822 -3.65E+02
 SMEAGOL DEBUG| Number of electrons in the unit cell =      3336.3712585800
    12 Broy./SMGL  0.30E+00  226.5     5.68835605    -13956.2017083331 -1.50E+03
 SMEAGOL DEBUG| Number of electrons in the unit cell =      3314.4107764104
    13 Broy./SMGL  0.30E+00  226.6     6.31241369    -12679.3834571020  1.28E+03
 SMEAGOL DEBUG| Number of electrons in the unit cell =      3309.8042342844
    14 Broy./SMGL  0.30E+00  227.2    13.55357020    -11813.5486932284  8.66E+02
 SMEAGOL DEBUG| Number of electrons in the unit cell =      3308.7121565639
    15 Broy./SMGL  0.30E+00  228.4     6.24271982    -13250.2648776544 -1.44E+03
 SMEAGOL DEBUG| Number of electrons in the unit cell =      3320.3276707206
    16 Broy./SMGL  0.30E+00  229.0     7.20763199    -12777.7849384932  4.72E+02
 SMEAGOL DEBUG| Number of electrons in the unit cell =      3327.1286637625
    17 Broy./SMGL  0.30E+00  227.3     7.61830854    -12186.8183244077  5.91E+02
 SMEAGOL DEBUG| Number of electrons in the unit cell =      3325.2349129344
    18 Broy./SMGL  0.30E+00  230.9    12.25784997    -12620.7029721572 -4.34E+02
 SMEAGOL DEBUG| Number of electrons in the unit cell =      3318.3579148435
    19 Broy./SMGL  0.30E+00  227.7     6.45460902    -12966.0479791239 -3.45E+02
 SMEAGOL DEBUG| Number of electrons in the unit cell =      3311.9404764517
    20 Broy./SMGL  0.30E+00  228.2     8.14756161    -12040.4203131104  9.26E+02
 SMEAGOL DEBUG| Number of electrons in the unit cell =      3317.4118499335
    21 Broy./SMGL  0.30E+00  228.9     4.60176207    -12076.7001304082 -3.63E+01
 SMEAGOL DEBUG| Number of electrons in the unit cell =      3320.5534582083
    22 Broy./SMGL  0.30E+00  230.2     8.21295076    -11889.2567269356  1.87E+02
 SMEAGOL DEBUG| Number of electrons in the unit cell =      3323.9152475598
    23 Broy./SMGL  0.30E+00  227.4    16.51043974    -12235.9489272526 -3.47E+02
 SMEAGOL DEBUG| Number of electrons in the unit cell =      3326.4721372021
    24 Broy./SMGL  0.30E+00  227.8    14.91329486    -11980.0405120702  2.56E+02
 SMEAGOL DEBUG| Number of electrons in the unit cell =      3323.6357647694
    25 Broy./SMGL  0.30E+00  229.3     8.30478671    -12169.4113158897 -1.89E+02
 SMEAGOL DEBUG| Number of electrons in the unit cell =      3324.2726111990
