# Projected DOS for atomic kind H at iteration step i = 0, E(Fermi) =     0.239641 a.u.
#     MO Eigenvalue [a.u.]      Occupation                 s
       1         -0.435365        2.000000        0.04849880
       2         -0.397719        2.000000        0.01426960
       3         -0.344155        2.000000        0.01589057
       4         -0.310000        2.000000        0.14525298
       5         -0.274479        2.000000        0.03426615
       6         -0.202106        2.000000        0.16376801
       7         -0.172841        2.000000        0.06670609
       8         -0.120621        2.000000        0.18335554
       9         -0.091078        2.000000        0.05127529
      10         -0.070631        2.000000        0.00030944
      11         -0.070244        2.000000        0.00128043
      12         -0.070132        2.000000        0.00040979
      13         -0.060959        2.000000        0.00091892
      14         -0.050389        2.000000        0.01129979
      15         -0.038505        2.000000        0.32049528
      16         -0.035349        2.000000        0.01470045
      17         -0.034755        2.000000        0.00360869
      18         -0.031842        2.000000        0.00000441
      19         -0.023180        2.000000        0.01410065
      20         -0.018379        2.000000        0.14373520
      21         -0.014138        2.000000        0.00010621
      22         -0.005489        2.000000        0.12813757
      23         -0.002682        2.000000        0.01826870
      24         -0.001592        2.000000        0.00019183
      25         -0.000132        2.000000        0.01613539
      26         -0.000044        2.000000        0.00071906
      27         -0.000036        2.000000        0.00000247
      28          0.002627        2.000000        0.00004740
      29          0.003016        2.000000        0.00005132
      30          0.003991        2.000000        0.00000071
      31          0.004104        2.000000        0.00000002
      32          0.004378        2.000000        0.00000230
      33          0.004578        2.000000        0.00090640
      34          0.004650        2.000000        0.00521553
      35          0.004723        2.000000        0.00019939
      36          0.004817        2.000000        0.00001379
      37          0.006799        2.000000        0.00000008
      38          0.007715        2.000000        0.00978841
      39          0.008209        2.000000        0.00004602
      40          0.008366        2.000000        0.00092279
      41          0.009604        2.000000        0.00017981
      42          0.011051        2.000000        0.00001199
      43          0.011268        2.000000        0.00096152
      44          0.011732        2.000000        0.00000006
      45          0.011828        2.000000        0.00000014
      46          0.011846        2.000000        0.00000169
      47          0.012450        2.000000        0.00007218
      48          0.012693        2.000000        0.00002662
      49          0.013165        2.000000        0.00426254
      50          0.013413        2.000000        0.00785986
      51          0.013672        2.000000        0.00002998
      52          0.015453        2.000000        0.00125491
      53          0.015751        2.000000        0.00000057
      54          0.015853        2.000000        0.00003546
      55          0.016751        2.000000        0.00167489
      56          0.017411        2.000000        0.00000749
      57          0.019279        2.000000        0.00005642
      58          0.019478        2.000000        0.00000024
      59          0.019823        2.000000        0.00427922
      60          0.020090        2.000000        0.00000711
      61          0.021178        2.000000        0.00033643
      62          0.021260        2.000000        0.00000017
      63          0.021695        2.000000        0.00004630
      64          0.022364        2.000000        0.00000000
      65          0.022788        2.000000        0.00041997
      66          0.022800        2.000000        0.00000110
      67          0.023720        2.000000        0.00000001
      68          0.023725        2.000000        0.00002808
      69          0.023984        2.000000        0.00306528
      70          0.024094        2.000000        0.00000354
      71          0.026168        2.000000        0.00001202
      72          0.026243        2.000000        0.00003792
      73          0.027020        2.000000        0.00000754
      74          0.027447        2.000000        0.00000040
      75          0.027704        2.000000        0.00013079
      76          0.028871        2.000000        0.00175098
      77          0.029245        2.000000        0.00000004
      78          0.029647        2.000000        0.00006319
      79          0.029799        2.000000        0.00001738
      80          0.029970        2.000000        0.00002596
      81          0.031533        2.000000        0.00000149
      82          0.031606        2.000000        0.00000170
      83          0.032032        2.000000        0.00019157
      84          0.032043        2.000000        0.00000000
      85          0.032570        2.000000        0.00000008
      86          0.034845        2.000000        0.00001269
      87          0.034915        2.000000        0.00026357
      88          0.035373        2.000000        0.01011150
      89          0.036668        2.000000        0.00003416
      90          0.038570        2.000000        0.00000141
      91          0.038800        2.000000        0.00001992
      92          0.038988        2.000000        0.00002929
      93          0.039165        2.000000        0.00000024
      94          0.039471        2.000000        0.00030333
      95          0.040412        2.000000        0.00483630
      96          0.040465        2.000000        0.00000043
      97          0.040518        2.000000        0.00006285
      98          0.040561        2.000000        0.00001109
      99          0.040682        2.000000        0.00000293
     100          0.044433        2.000000        0.00173169
     101          0.045681        2.000000        0.00000191
     102          0.046048        2.000000        0.00000631
     103          0.046273        2.000000        0.00001003
     104          0.046380        2.000000        0.07088647
     105          0.046391        2.000000        0.00000558
     106          0.046984        2.000000        0.00000281
     107          0.047492        2.000000        0.00000855
     108          0.048591        2.000000        0.00031842
     109          0.048677        2.000000        0.00035912
     110          0.048971        2.000000        0.00071341
     111          0.050706        2.000000        0.15927112
     112          0.050753        2.000000        0.00002422
     113          0.050860        2.000000        0.00000546
     114          0.050899        2.000000        0.00000017
     115          0.050928        2.000000        0.00105516
     116          0.050930        2.000000        0.01058663
     117          0.051212        2.000000        0.00012291
     118          0.052075        2.000000        0.00015201
     119          0.052701        2.000000        0.00000405
     120          0.052950        2.000000        0.00000859
     121          0.053233        2.000000        0.00001416
     122          0.053339        2.000000        0.00000667
     123          0.053416        2.000000        0.00008713
     124          0.053585        2.000000        0.00000010
     125          0.053849        2.000000        0.00039252
     126          0.053906        2.000000        0.00000025
     127          0.055044        2.000000        0.00001732
     128          0.055081        2.000000        0.00000024
     129          0.055329        2.000000        0.00022855
     130          0.055517        2.000000        0.00000235
     131          0.055578        2.000000        0.00000000
     132          0.055908        2.000000        0.00000002
     133          0.056022        2.000000        0.00000001
     134          0.056054        2.000000        0.00010665
     135          0.056458        2.000000        0.01895071
     136          0.056528        2.000000        0.00000288
     137          0.057833        2.000000        0.00000017
     138          0.057989        2.000000        0.00000001
     139          0.058192        2.000000        0.00000020
     140          0.058671        2.000000        0.00172856
     141          0.058742        2.000000        0.00963884
     142          0.059085        2.000000        0.00143380
     143          0.059565        2.000000        0.00014931
     144          0.059796        2.000000        0.00000009
     145          0.060633        2.000000        0.00000187
     146          0.060691        2.000000        0.00000000
     147          0.060829        2.000000        0.00000007
     148          0.061151        2.000000        0.00002562
     149          0.061222        2.000000        0.00000005
     150          0.061974        2.000000        0.00000358
     151          0.062435        2.000000        0.00002910
     152          0.062575        2.000000        0.00000547
     153          0.062707        2.000000        0.00000081
     154          0.063454        2.000000        0.01076638
     155          0.064090        2.000000        0.00797702
     156          0.064317        2.000000        0.00000022
     157          0.064504        2.000000        0.00000007
     158          0.066192        2.000000        0.00000467
     159          0.066321        2.000000        0.00272119
     160          0.067464        2.000000        0.00000143
     161          0.068353        2.000000        0.00013345
     162          0.068382        2.000000        0.00000012
     163          0.068617        2.000000        0.00000002
     164          0.068675        2.000000        0.00000173
     165          0.068768        2.000000        0.00000298
     166          0.069252        2.000000        0.00000035
     167          0.070057        2.000000        0.00000041
     168          0.070141        2.000000        0.00000001
     169          0.070187        2.000000        0.00009174
     170          0.070336        2.000000        0.00000007
     171          0.070813        2.000000        0.00000012
     172          0.070855        2.000000        0.00005103
     173          0.071074        2.000000        0.00000083
     174          0.071431        2.000000        0.00002329
     175          0.071651        2.000000        0.00029463
     176          0.071656        2.000000        0.00000001
     177          0.072248        2.000000        0.00000000
     178          0.072444        2.000000        0.00000073
     179          0.073430        2.000000        0.00000001
     180          0.073483        2.000000        0.00000003
     181          0.073707        2.000000        0.00000000
     182          0.073803        2.000000        0.00090250
     183          0.073922        2.000000        0.00009695
     184          0.073970        2.000000        0.00000091
     185          0.074192        2.000000        0.00000006
     186          0.074460        2.000000        0.00000006
     187          0.074712        2.000000        0.00000000
     188          0.074750        2.000000        0.00001145
     189          0.074765        2.000000        0.00000008
     190          0.074891        2.000000        0.00000001
     191          0.075032        2.000000        0.00000101
     192          0.075176        2.000000        0.00000001
     193          0.075209        2.000000        0.00000331
     194          0.075233        2.000000        0.00000001
     195          0.075259        2.000000        0.00000000
     196          0.075745        2.000000        0.00000001
     197          0.075787        2.000000        0.00000000
     198          0.075811        2.000000        0.00000001
     199          0.075879        2.000000        0.00000000
     200          0.075881        2.000000        0.00000008
     201          0.075940        2.000000        0.00000011
     202          0.076451        2.000000        0.00000000
     203          0.076456        2.000000        0.00000033
     204          0.076521        2.000000        0.00000020
     205          0.076728        2.000000        0.00000000
     206          0.076771        2.000000        0.00000081
     207          0.076860        2.000000        0.00000000
     208          0.076921        2.000000        0.00000005
     209          0.077093        2.000000        0.00000000
     210          0.077353        2.000000        0.00002248
     211          0.077549        2.000000        0.00000006
     212          0.079130        2.000000        0.00000115
     213          0.079260        2.000000        0.00006838
     214          0.079495        2.000000        0.00000458
     215          0.080132        2.000000        0.00000148
     216          0.081357        2.000000        0.00009793
     217          0.081488        2.000000        0.00006307
     218          0.081750        2.000000        0.00000445
     219          0.081854        2.000000        0.00000246
     220          0.082177        2.000000        0.00000005
     221          0.082207        2.000000        0.00041208
     222          0.083534        2.000000        0.00000292
     223          0.083807        2.000000        0.00003206
     224          0.083939        2.000000        0.00000012
     225          0.084129        2.000000        0.00000001
     226          0.084259        2.000000        0.00000215
     227          0.084278        2.000000        0.00000001
     228          0.084467        2.000000        0.00000099
     229          0.085518        2.000000        0.00000050
     230          0.086207        2.000000        0.00000000
     231          0.086640        2.000000        0.00000064
     232          0.086699        2.000000        0.00002805
     233          0.086723        2.000000        0.00002507
     234          0.086866        2.000000        0.00011834
     235          0.086873        2.000000        0.00000171
     236          0.086938        2.000000        0.00000012
     237          0.087047        2.000000        0.00000000
     238          0.087056        2.000000        0.00002204
     239          0.088183        2.000000        0.00003289
     240          0.088320        2.000000        0.00000011
     241          0.088363        2.000000        0.00000001
     242          0.088421        2.000000        0.00000138
     243          0.088497        2.000000        0.00000003
     244          0.088675        2.000000        0.00021093
     245          0.088803        2.000000        0.00000000
     246          0.089065        2.000000        0.00000142
     247          0.089190        2.000000        0.00000000
     248          0.089271        2.000000        0.00000224
     249          0.089567        2.000000        0.00000000
     250          0.089653        2.000000        0.00000002
     251          0.089878        2.000000        0.00000209
     252          0.090226        2.000000        0.00000000
     253          0.090236        2.000000        0.00000000
     254          0.090517        2.000000        0.00000008
     255          0.090582        2.000000        0.00009457
     256          0.090661        2.000000        0.00009779
     257          0.090784        2.000000        0.00000137
     258          0.091262        2.000000        0.00000116
     259          0.091316        2.000000        0.00000449
     260          0.091354        2.000000        0.00001596
     261          0.091580        2.000000        0.00000004
     262          0.091866        2.000000        0.00000490
     263          0.091945        2.000000        0.00000005
     264          0.092233        2.000000        0.00000000
     265          0.092556        2.000000        0.00002695
     266          0.092802        2.000000        0.00000172
     267          0.092901        2.000000        0.00016101
     268          0.093218        2.000000        0.00000016
     269          0.093795        2.000000        0.00000088
     270          0.094331        2.000000        0.00000001
     271          0.094360        2.000000        0.00002136
     272          0.094548        2.000000        0.00001716
     273          0.094684        2.000000        0.00011522
     274          0.094734        2.000000        0.00000019
     275          0.095295        2.000000        0.00000000
     276          0.095386        2.000000        0.00000054
     277          0.095558        2.000000        0.00000009
     278          0.095686        2.000000        0.00000325
     279          0.095724        2.000000        0.00000001
     280          0.097109        2.000000        0.00017228
     281          0.097188        2.000000        0.00000096
     282          0.097708        2.000000        0.00000278
     283          0.099036        2.000000        0.00000016
     284          0.099069        2.000000        0.00000274
     285          0.099171        2.000000        0.00001072
     286          0.099229        2.000000        0.00000000
     287          0.100005        2.000000        0.00000000
     288          0.100938        2.000000        0.00017891
     289          0.100967        2.000000        0.00000026
     290          0.101028        2.000000        0.00000165
     291          0.101876        2.000000        0.00000167
     292          0.102703        2.000000        0.00000000
     293          0.102733        2.000000        0.00005651
     294          0.105483        2.000000        0.00004017
     295          0.105636        2.000000        0.00004846
     296          0.105665        2.000000        0.00000009
     297          0.105731        2.000000        0.00145350
     298          0.105838        2.000000        0.00000071
     299          0.106013        2.000000        0.00000000
     300          0.106034        2.000000        0.00000463
     301          0.106511        2.000000        0.00000001
     302          0.109072        2.000000        0.00009275
     303          0.109122        2.000000        0.00000081
     304          0.109653        2.000000        0.00000146
     305          0.109666        2.000000        0.00000007
     306          0.111234        2.000000        0.00000001
     307          0.111264        2.000000        0.00000165
     308          0.111484        2.000000        0.00000177
     309          0.112806        2.000000        0.00000433
     310          0.113158        2.000000        0.00040882
     311          0.113522        2.000000        0.00032961
     312          0.114091        2.000000        0.00000000
     313          0.114171        2.000000        0.00000002
     314          0.114329        2.000000        0.00000080
     315          0.114397        2.000000        0.00000129
     316          0.114436        2.000000        0.00000005
     317          0.114587        2.000000        0.00000000
     318          0.116380        2.000000        0.00003845
     319          0.117103        2.000000        0.00000347
     320          0.117363        2.000000        0.00001044
     321          0.117490        2.000000        0.00000137
     322          0.117910        2.000000        0.00000004
     323          0.118447        2.000000        0.00000020
     324          0.118658        2.000000        0.00000004
     325          0.118799        2.000000        0.00000779
     326          0.119027        2.000000        0.00000072
     327          0.119921        2.000000        0.00006124
     328          0.120823        2.000000        0.00000231
     329          0.120998        2.000000        0.00000000
     330          0.121410        2.000000        0.00000000
     331          0.121633        2.000000        0.00000117
     332          0.122226        2.000000        0.00002343
     333          0.123097        2.000000        0.00003807
     334          0.123167        2.000000        0.00001224
     335          0.123334        2.000000        0.00000002
     336          0.123504        2.000000        0.00002600
     337          0.123892        2.000000        0.00013308
     338          0.124532        2.000000        0.00000001
     339          0.124685        2.000000        0.00000814
     340          0.124720        2.000000        0.00000005
     341          0.124743        2.000000        0.00000233
     342          0.125437        2.000000        0.00000158
     343          0.126227        2.000000        0.00000705
     344          0.126229        2.000000        0.00000149
     345          0.126630        2.000000        0.00005172
     346          0.127006        2.000000        0.00000004
     347          0.127104        2.000000        0.00000026
     348          0.127136        2.000000        0.00006755
     349          0.127207        2.000000        0.00000006
     350          0.127727        2.000000        0.00002333
     351          0.128354        2.000000        0.00007294
     352          0.128401        2.000000        0.00000783
     353          0.128423        2.000000        0.00000012
     354          0.128615        2.000000        0.00010872
     355          0.129567        2.000000        0.00000110
     356          0.130251        2.000000        0.00000740
     357          0.130259        2.000000        0.00000614
     358          0.130814        2.000000        0.00000334
     359          0.131272        2.000000        0.00000086
     360          0.131367        2.000000        0.00000000
     361          0.131388        2.000000        0.00000001
     362          0.131667        2.000000        0.00000173
     363          0.131769        2.000000        0.00008690
     364          0.131900        2.000000        0.00000000
     365          0.131924        2.000000        0.00000973
     366          0.131964        2.000000        0.00000006
     367          0.131997        2.000000        0.00000000
     368          0.132356        2.000000        0.00000000
     369          0.132444        2.000000        0.00000000
     370          0.133124        2.000000        0.00009217
     371          0.133299        2.000000        0.00000006
     372          0.133329        2.000000        0.00002464
     373          0.133344        2.000000        0.00000004
     374          0.133567        2.000000        0.00000036
     375          0.133771        2.000000        0.00001148
     376          0.133869        2.000000        0.00000000
     377          0.133876        2.000000        0.00000000
     378          0.133939        2.000000        0.00000748
     379          0.133962        2.000000        0.00000045
     380          0.133991        2.000000        0.00000057
     381          0.134047        2.000000        0.00000001
     382          0.134112        2.000000        0.00000488
     383          0.134741        2.000000        0.00003414
     384          0.135158        2.000000        0.00001556
     385          0.135351        2.000000        0.00000028
     386          0.135698        2.000000        0.00001238
     387          0.135889        2.000000        0.00000000
     388          0.135974        2.000000        0.00007736
     389          0.136114        2.000000        0.00000004
     390          0.136299        2.000000        0.00000337
     391          0.136415        2.000000        0.00000003
     392          0.136454        2.000000        0.00000007
     393          0.136606        2.000000        0.00000596
     394          0.137191        2.000000        0.00000003
     395          0.137314        2.000000        0.00000030
     396          0.137391        2.000000        0.00000953
     397          0.137569        2.000000        0.00000040
     398          0.137785        2.000000        0.00000005
     399          0.138038        2.000000        0.00000039
     400          0.138042        2.000000        0.00000000
     401          0.138387        2.000000        0.00000349
     402          0.138446        2.000000        0.00000013
     403          0.138717        2.000000        0.00000395
     404          0.138867        2.000000        0.00000276
     405          0.138928        2.000000        0.00000021
     406          0.139116        2.000000        0.00000000
     407          0.139633        2.000000        0.00001655
     408          0.139823        2.000000        0.00001345
     409          0.139846        2.000000        0.00000761
     410          0.139911        2.000000        0.00003624
     411          0.139970        2.000000        0.00000002
     412          0.140162        2.000000        0.00000045
     413          0.140244        2.000000        0.00000000
     414          0.140402        2.000000        0.00000539
     415          0.140552        2.000000        0.00000000
     416          0.141183        2.000000        0.00000255
     417          0.141423        2.000000        0.00000000
     418          0.141554        2.000000        0.00000410
     419          0.141585        2.000000        0.00000010
     420          0.141654        2.000000        0.00001473
     421          0.141831        2.000000        0.00005761
     422          0.142388        2.000000        0.00000000
     423          0.142793        2.000000        0.00000012
     424          0.142805        2.000000        0.00000037
     425          0.142843        2.000000        0.00002442
     426          0.143135        2.000000        0.00012661
     427          0.143178        2.000000        0.00000005
     428          0.143207        2.000000        0.00000206
     429          0.143834        2.000000        0.00000149
     430          0.144038        2.000000        0.00000388
     431          0.144483        2.000000        0.00000325
     432          0.144719        2.000000        0.00000000
     433          0.145261        2.000000        0.00000000
     434          0.145745        2.000000        0.00001006
     435          0.145956        2.000000        0.00017238
     436          0.146040        2.000000        0.00017273
     437          0.146103        2.000000        0.00013677
     438          0.146157        2.000000        0.00001880
     439          0.148064        2.000000        0.00000472
     440          0.148670        2.000000        0.00000078
     441          0.148855        2.000000        0.00004290
     442          0.149054        2.000000        0.00000002
     443          0.149067        2.000000        0.00002001
     444          0.149442        2.000000        0.00000187
     445          0.149821        2.000000        0.00000152
     446          0.150080        2.000000        0.00000179
     447          0.150425        2.000000        0.00001876
     448          0.150898        2.000000        0.00000099
     449          0.150921        2.000000        0.00000118
     450          0.151073        2.000000        0.00000000
     451          0.151936        2.000000        0.00001381
     452          0.152766        2.000000        0.00000000
     453          0.154666        2.000000        0.00000170
     454          0.155941        2.000000        0.00000107
     455          0.156072        2.000000        0.00001972
     456          0.156209        2.000000        0.00000001
     457          0.156789        2.000000        0.00043862
     458          0.156899        2.000000        0.00000102
     459          0.157643        2.000000        0.00000000
     460          0.157941        2.000000        0.00000002
     461          0.157957        2.000000        0.00000131
     462          0.158211        2.000000        0.00001392
     463          0.158921        2.000000        0.00000259
     464          0.159023        2.000000        0.00000003
     465          0.159053        2.000000        0.00006854
     466          0.159272        2.000000        0.00000016
     467          0.160023        2.000000        0.00002968
     468          0.160281        2.000000        0.00001252
     469          0.160408        2.000000        0.00002889
     470          0.160854        2.000000        0.00000000
     471          0.161471        2.000000        0.00000033
     472          0.161500        2.000000        0.00000006
     473          0.162108        2.000000        0.00000043
     474          0.162332        2.000000        0.00000111
     475          0.162390        2.000000        0.00000000
     476          0.162677        2.000000        0.00000017
     477          0.163147        2.000000        0.00000058
     478          0.163279        2.000000        0.00000000
     479          0.164212        2.000000        0.00000039
     480          0.164945        2.000000        0.00000247
     481          0.165439        2.000000        0.00000393
     482          0.165792        2.000000        0.00000002
     483          0.166937        2.000000        0.00000000
     484          0.167634        2.000000        0.00000153
     485          0.167789        2.000000        0.00000582
     486          0.167995        2.000000        0.00001734
     487          0.168509        2.000000        0.00000042
     488          0.168706        2.000000        0.00004519
     489          0.168876        2.000000        0.00000018