# Projected DOS for atomic kind S at iteration step i = 0, E(Fermi) =     0.239641 a.u.
#     MO Eigenvalue [a.u.]      Occupation                 s                py                pz                px
       1         -0.435365        2.000000        0.11897596        0.00000045        0.02738377        0.00000092
       2         -0.397719        2.000000        0.35798771        0.00000083        0.03530869        0.00000210
       3         -0.344155        2.000000        0.43676275        0.00000029        0.00148797        0.00000031
       4         -0.310000        2.000000        0.00050097        0.00000000        0.00000826        0.00278845
       5         -0.274479        2.000000        0.24785596        0.00000032        0.03638083        0.00000388
       6         -0.202106        2.000000        0.00001147        0.00000000        0.00001436        0.01888659
       7         -0.172841        2.000000        0.03408414        0.00000141        0.15548905        0.00000477
       8         -0.120621        2.000000        0.00400387        0.00000517        0.13946407        0.00000379
       9         -0.091078        2.000000        0.00167008        0.00000400        0.32631345        0.00001395
      10         -0.070631        2.000000        0.00000210        0.00000000        0.00000268        0.13916304
      11         -0.070244        2.000000        0.00003600        0.00000045        0.00662369        0.00102181
      12         -0.070132        2.000000        0.00052199        0.00000026        0.00031848        0.00002502
      13         -0.060959        2.000000        0.00125312        0.00000089        0.00053523        0.00000008
      14         -0.050389        2.000000        0.00080184        0.00002396        0.01605656        0.00001027
      15         -0.038505        2.000000        0.00006134        0.01452708        0.01433551        0.00005659
      16         -0.035349        2.000000        0.00000974        0.34734639        0.00043665        0.00000286
      17         -0.034755        2.000000        0.00552204        0.00099282        0.00005191        0.00000106
      18         -0.031842        2.000000        0.00000000        0.38448072        0.00004760        0.00000015
      19         -0.023180        2.000000        0.00000060        0.00000021        0.00000606        0.33989839
      20         -0.018379        2.000000        0.00002368        0.00000047        0.00005984        0.09769285
      21         -0.014138        2.000000        0.00119584        0.00000112        0.00779309        0.00011041
      22         -0.005489        2.000000        0.00000723        0.00000007        0.00001614        0.09325161
      23         -0.002682        2.000000        0.01271790        0.00001893        0.01359239        0.00001239
      24         -0.001592        2.000000        0.00015188        0.00000023        0.00010492        0.00000100
      25         -0.000132        2.000000        0.01092333        0.00001270        0.01327115        0.00000406
      26         -0.000044        2.000000        0.00004208        0.00000010        0.00004887        0.00291456
      27         -0.000036        2.000000        0.00000119        0.00037907        0.00000140        0.00000055
      28          0.002627        2.000000        0.00001048        0.00000028        0.00005292        0.00000026
      29          0.003016        2.000000        0.00040180        0.00000011        0.00216749        0.00000055
      30          0.003991        2.000000        0.00002450        0.00000000        0.00012908        0.00000001
      31          0.004104        2.000000        0.00000000        0.00000000        0.00000000        0.00000001
      32          0.004378        2.000000        0.00000006        0.00079789        0.00000037        0.00000000
      33          0.004578        2.000000        0.00000191        0.00000000        0.00000863        0.00446600
      34          0.004650        2.000000        0.00186652        0.00000036        0.00742390        0.00000634
      35          0.004723        2.000000        0.00000013        0.00000000        0.00000045        0.00166136
      36          0.004817        2.000000        0.00000567        0.00120552        0.00001711        0.00000000
      37          0.006799        2.000000        0.00000000        0.00000001        0.00000000        0.00000003
      38          0.007715        2.000000        0.00460046        0.00000709        0.01070452        0.00000092
      39          0.008209        2.000000        0.00002563        0.00613030        0.00003938        0.00000003
      40          0.008366        2.000000        0.00000091        0.00000002        0.00000127        0.00883142
      41          0.009604        2.000000        0.00014069        0.00000047        0.00009310        0.00000037
      42          0.011051        2.000000        0.00013066        0.00000013        0.00061673        0.00000066
      43          0.011268        2.000000        0.00030337        0.00000084        0.00152067        0.00000007
      44          0.011732        2.000000        0.00000000        0.00000009        0.00000000        0.00000003
      45          0.011828        2.000000        0.00000003        0.00000000        0.00000022        0.00108784
      46          0.011846        2.000000        0.00000002        0.00075564        0.00000004        0.00000000
      47          0.012450        2.000000        0.00001540        0.00000004        0.00013010        0.00000000
      48          0.012693        2.000000        0.00001249        0.00000000        0.00000068        0.00000001
      49          0.013165        2.000000        0.00124594        0.00000237        0.00654995        0.00000020
      50          0.013413        2.000000        0.00266482        0.00000541        0.01265886        0.00000039
      51          0.013672        2.000000        0.00000282        0.00374134        0.00001037        0.00000000
      52          0.015453        2.000000        0.00000042        0.00000000        0.00000032        0.02062554
      53          0.015751        2.000000        0.00012479        0.00000005        0.00030513        0.00000085
      54          0.015853        2.000000        0.00002000        0.00000057        0.00005295        0.00000037
      55          0.016751        2.000000        0.00048639        0.00000036        0.00269574        0.00000137
      56          0.017411        2.000000        0.00000467        0.00000003        0.00020463        0.00000006
      57          0.019279        2.000000        0.00000120        0.00000062        0.00000403        0.00000008
      58          0.019478        2.000000        0.00000000        0.00000000        0.00000000        0.00000008
      59          0.019823        2.000000        0.00152003        0.00000009        0.00551020        0.00000120
      60          0.020090        2.000000        0.00029632        0.00000027        0.00103269        0.00000003
      61          0.021178        2.000000        0.00000003        0.00000000        0.00000005        0.00069243
      62          0.021260        2.000000        0.00000011        0.00050177        0.00000015        0.00000000
      63          0.021695        2.000000        0.00004105        0.00000002        0.00003009        0.00000005
      64          0.022364        2.000000        0.00000000        0.00000000        0.00000000        0.00000003
      65          0.022788        2.000000        0.00000002        0.00000003        0.00000001        0.00153529
      66          0.022800        2.000000        0.00000090        0.00236907        0.00000054        0.00000002
      67          0.023720        2.000000        0.00001210        0.00876131        0.00000029        0.00000000
      68          0.023725        2.000000        0.00003306        0.00087902        0.00002362        0.00000001
      69          0.023984        2.000000        0.00000018        0.00000000        0.00000007        0.01338008
      70          0.024094        2.000000        0.00000000        0.00000182        0.00000000        0.00001553
      71          0.026168        2.000000        0.00000327        0.00003568        0.00000177        0.00000000
      72          0.026243        2.000000        0.00000002        0.00000000        0.00000001        0.00036429
      73          0.027020        2.000000        0.00220283        0.00004153        0.00619009        0.00000232
      74          0.027447        2.000000        0.00000008        0.00000610        0.00000057        0.00000008
      75          0.027704        2.000000        0.00000631        0.00257532        0.00009864        0.00000002
      76          0.028871        2.000000        0.00014508        0.00000088        0.00362457        0.00000007
      77          0.029245        2.000000        0.00000000        0.00000006        0.00000000        0.00000004
      78          0.029647        2.000000        0.00003994        0.00000008        0.00004426        0.00000003
      79          0.029799        2.000000        0.00000025        0.00000001        0.00000011        0.00000002
      80          0.029970        2.000000        0.00041285        0.00000000        0.00061785        0.00000000
      81          0.031533        2.000000        0.00000001        0.00000000        0.00000012        0.00080495
      82          0.031606        2.000000        0.00000004        0.00046333        0.00000017        0.00000000
      83          0.032032        2.000000        0.00000001        0.00000000        0.00000001        0.00152481
      84          0.032043        2.000000        0.00000009        0.00110129        0.00000020        0.00000000
      85          0.032570        2.000000        0.00000000        0.00000055        0.00000000        0.00000036
      86          0.034845        2.000000        0.00088478        0.00000370        0.00368807        0.00023746
      87          0.034915        2.000000        0.00001513        0.00000008        0.00014852        0.01226728
      88          0.035373        2.000000        0.00015510        0.00000346        0.02639967        0.00004176
      89          0.036668        2.000000        0.00000075        0.01238407        0.00001035        0.00000000
      90          0.038570        2.000000        0.00000000        0.00000073        0.00000000        0.00000012
      91          0.038800        2.000000        0.00000373        0.00000001        0.00003171        0.00000001
      92          0.038988        2.000000        0.00000038        0.00000009        0.00000055        0.00000002
      93          0.039165        2.000000        0.00000000        0.00000002        0.00000000        0.00000000
      94          0.039471        2.000000        0.00018006        0.00000004        0.00027127        0.00000014
      95          0.040412        2.000000        0.00000137        0.00000002        0.00000285        0.00190398
      96          0.040465        2.000000        0.00000130        0.00138961        0.00000282        0.00000001
      97          0.040518        2.000000        0.00000437        0.00000003        0.00000833        0.00182990
      98          0.040561        2.000000        0.00131093        0.00001108        0.00295738        0.00000858
      99          0.040682        2.000000        0.00000579        0.00224460        0.00002154        0.00000001
     100          0.044433        2.000000        0.00002383        0.00000082        0.00516350        0.00000218
     101          0.045681        2.000000        0.00000000        0.00000056        0.00000000        0.00000040
     102          0.046048        2.000000        0.00000003        0.00000006        0.00000009        0.00000036
     103          0.046273        2.000000        0.00000001        0.00000000        0.00000003        0.00116067
     104          0.046380        2.000000        0.00000315        0.00000043        0.00000466        0.00877020
     105          0.046391        2.000000        0.00000002        0.00078431        0.00000005        0.00000066
     106          0.046984        2.000000        0.00000199        0.01019778        0.00000102        0.00000031
     107          0.047492        2.000000        0.00000739        0.00000075        0.00000348        0.00000005
     108          0.048591        2.000000        0.00004064        0.00000075        0.00119752        0.00000101
     109          0.048677        2.000000        0.00001821        0.00000066        0.00113655        0.00000129
     110          0.048971        2.000000        0.00000032        0.00000085        0.00177746        0.00000184
     111          0.050706        2.000000        0.00000755        0.00000001        0.00001849        0.00026130
     112          0.050753        2.000000        0.00000002        0.00000000        0.00000002        0.00055070
     113          0.050860        2.000000        0.00000004        0.00031331        0.00000011        0.00000003
     114          0.050899        2.000000        0.00000005        0.00024510        0.00000000        0.00000000
     115          0.050928        2.000000        0.00002967        0.00000011        0.00008799        0.00000386
     116          0.050930        2.000000        0.00000352        0.00000003        0.00000894        0.00007657
     117          0.051212        2.000000        0.00024228        0.00000037        0.00065797        0.00000058
     118          0.052075        2.000000        0.00000009        0.00000000        0.00000017        0.01134367
     119          0.052701        2.000000        0.00000050        0.01107037        0.00000039        0.00000000
     120          0.052950        2.000000        0.00000000        0.00000003        0.00000000        0.00000024
     121          0.053233        2.000000        0.00000050        0.00000040        0.00000000        0.00000010
     122          0.053339        2.000000        0.00012298        0.00000011        0.00003005        0.00000000
     123          0.053416        2.000000        0.00000001        0.00000000        0.00000000        0.00002821
     124          0.053585        2.000000        0.00000008        0.00072393        0.00000001        0.00000000
     125          0.053849        2.000000        0.00000006        0.00000001        0.00000000        0.00056955
     126          0.053906        2.000000        0.00000025        0.00191554        0.00000001        0.00000000
     127          0.055044        2.000000        0.00000031        0.00008448        0.00003793        0.00000021
     128          0.055081        2.000000        0.00000122        0.01144846        0.00000045        0.00000002
     129          0.055329        2.000000        0.00000028        0.00003828        0.00049549        0.00000462
     130          0.055517        2.000000        0.00000000        0.00000000        0.00000000        0.00012844
     131          0.055578        2.000000        0.00000000        0.00001951        0.00000000        0.00000000
     132          0.055908        2.000000        0.00000000        0.00000000        0.00000000        0.00000002
     133          0.056022        2.000000        0.00000000        0.00000001        0.00000000        0.00000003
     134          0.056054        2.000000        0.00000024        0.00000000        0.00000004        0.00800253
     135          0.056458        2.000000        0.00000169        0.00000013        0.00000114        0.00611774
     136          0.056528        2.000000        0.00000083        0.00901114        0.00000010        0.00000009
     137          0.057833        2.000000        0.00000000        0.00000001        0.00000000        0.00000001
     138          0.057989        2.000000        0.00000000        0.00000002        0.00000000        0.00000000
     139          0.058192        2.000000        0.00000029        0.00380196        0.00000294        0.00000000
     140          0.058671        2.000000        0.00144441        0.00000088        0.00730750        0.00146766
     141          0.058742        2.000000        0.00028135        0.00000041        0.00152245        0.00766161
     142          0.059085        2.000000        0.00010299        0.00000641        0.00327702        0.00009281
     143          0.059565        2.000000        0.00006488        0.00000070        0.00024155        0.00000083
     144          0.059796        2.000000        0.00000000        0.00000013        0.00000000        0.00000019
     145          0.060633        2.000000        0.00000000        0.00000000        0.00000031        0.00049579
     146          0.060691        2.000000        0.00000000        0.00000000        0.00000000        0.00000001
     147          0.060829        2.000000        0.00000001        0.00053089        0.00000012        0.00000000
     148          0.061151        2.000000        0.00000343        0.00000001        0.00001682        0.00000001
     149          0.061222        2.000000        0.00000000        0.00000000        0.00000000        0.00000001
     150          0.061974        2.000000        0.00105129        0.00000027        0.00262012        0.00000063
     151          0.062435        2.000000        0.00000014        0.00000011        0.00000416        0.00447849
     152          0.062575        2.000000        0.00000153        0.00583787        0.00003573        0.00000019
     153          0.062707        2.000000        0.00000003        0.00395357        0.00000235        0.00000000
     154          0.063454        2.000000        0.00000501        0.00000103        0.00049250        0.01070003
     155          0.064090        2.000000        0.00005064        0.00003751        0.02973044        0.00019886
     156          0.064317        2.000000        0.00000000        0.00000005        0.00000004        0.00000002
     157          0.064504        2.000000        0.00000000        0.00000002        0.00000001        0.00000003
     158          0.066192        2.000000        0.00000014        0.00178731        0.00001352        0.00000046
     159          0.066321        2.000000        0.00000021        0.00000033        0.00002283        0.00546539
     160          0.067464        2.000000        0.00000000        0.00000263        0.00000001        0.00000247
     161          0.068353        2.000000        0.00000017        0.00000003        0.00000305        0.01724974
     162          0.068382        2.000000        0.00000000        0.00000025        0.00000000        0.00001233
     163          0.068617        2.000000        0.00000000        0.00000322        0.00000000        0.00000033
     164          0.068675        2.000000        0.00000129        0.01604089        0.00000042        0.00000000
     165          0.068768        2.000000        0.00011541        0.00008768        0.00028737        0.00000605
     166          0.069252        2.000000        0.00000007        0.00000007        0.00000002        0.00000017
     167          0.070057        2.000000        0.00000000        0.00000000        0.00000001        0.00000503
     168          0.070141        2.000000        0.00000000        0.00000022        0.00000000        0.00000000
     169          0.070187        2.000000        0.00000000        0.00000000        0.00000000        0.00004218
     170          0.070336        2.000000        0.00000002        0.00000448        0.00000017        0.00000000
     171          0.070813        2.000000        0.00000000        0.00000024        0.00000000        0.00000329
     172          0.070855        2.000000        0.00000004        0.00000000        0.00000047        0.00722498
     173          0.071074        2.000000        0.00000008        0.01021769        0.00000058        0.00000000
     174          0.071431        2.000000        0.00000742        0.00000003        0.00011449        0.00000078
     175          0.071651        2.000000        0.00003077        0.00000112        0.00114264        0.00000116
     176          0.071656        2.000000        0.00000000        0.00000002        0.00000002        0.00000003
     177          0.072248        2.000000        0.00000000        0.00000001        0.00000000        0.00000001
     178          0.072444        2.000000        0.00000000        0.00000066        0.00000000        0.00000017
     179          0.073430        2.000000        0.00000001        0.00000000        0.00000002        0.00000414
     180          0.073483        2.000000        0.00000000        0.00002835        0.00000005        0.00000000
     181          0.073707        2.000000        0.00000000        0.00000000        0.00000000        0.00000000
     182          0.073803        2.000000        0.00005488        0.00000073        0.00168316        0.00000133
     183          0.073922        2.000000        0.00000019        0.00000000        0.00000471        0.00042813
     184          0.073970        2.000000        0.00000010        0.00021750        0.00000171        0.00000002
     185          0.074192        2.000000        0.00000000        0.00000001        0.00000000        0.00000000
     186          0.074460        2.000000        0.00000000        0.00000032        0.00000000        0.00000023
     187          0.074712        2.000000        0.00000000        0.00000001        0.00000000        0.00000000
     188          0.074750        2.000000        0.00000621        0.00000017        0.00002117        0.00000052
     189          0.074765        2.000000        0.00000253        0.00000000        0.00001379        0.00000000
     190          0.074891        2.000000        0.00000000        0.00000005        0.00000000        0.00000004
     191          0.075032        2.000000        0.00000061        0.00000000        0.00000199        0.00000000
     192          0.075176        2.000000        0.00000000        0.00000000        0.00000000        0.00000000
     193          0.075209        2.000000        0.00000000        0.00000000        0.00000005        0.00007618
     194          0.075233        2.000000        0.00000000        0.00007377        0.00000002        0.00000000
     195          0.075259        2.000000        0.00000000        0.00000002        0.00000000        0.00000000
     196          0.075745        2.000000        0.00000000        0.00000000        0.00000000        0.00000000
     197          0.075787        2.000000        0.00000000        0.00000000        0.00000000        0.00000000
     198          0.075811        2.000000        0.00000000        0.00000000        0.00000000        0.00000000
     199          0.075879        2.000000        0.00000000        0.00000003        0.00000000        0.00000000
     200          0.075881        2.000000        0.00000002        0.00002149        0.00000015        0.00000000
     201          0.075940        2.000000        0.00000001        0.00000000        0.00000004        0.00001774
     202          0.076451        2.000000        0.00000008        0.00000000        0.00000014        0.00000000
     203          0.076456        2.000000        0.00058359        0.00000003        0.00106686        0.00000005
     204          0.076521        2.000000        0.00000000        0.00000000        0.00000000        0.00000023
     205          0.076728        2.000000        0.00000000        0.00000391        0.00000000        0.00000000
     206          0.076771        2.000000        0.00000000        0.00000000        0.00000000        0.00000683
     207          0.076860        2.000000        0.00000000        0.00000001        0.00000000        0.00000000
     208          0.076921        2.000000        0.00000000        0.00000000        0.00000000        0.00000008
     209          0.077093        2.000000        0.00000000        0.00000001        0.00000000        0.00000001
     210          0.077353        2.000000        0.00000000        0.00000000        0.00000002        0.00029099
     211          0.077549        2.000000        0.00000000        0.00022206        0.00000004        0.00000000
     212          0.079130        2.000000        0.00000049        0.00089571        0.00000174        0.00000000
     213          0.079260        2.000000        0.00000006        0.00000000        0.00000024        0.00081698
     214          0.079495        2.000000        0.00005562        0.00000004        0.00004244        0.00000030
     215          0.080132        2.000000        0.00000000        0.00000022        0.00000000        0.00000009
     216          0.081357        2.000000        0.00001748        0.00000272        0.00038309        0.00000012
     217          0.081488        2.000000        0.00030115        0.00000456        0.00130155        0.00000008
     218          0.081750        2.000000        0.00000013        0.00536863        0.00001264        0.00000001
     219          0.081854        2.000000        0.00000514        0.00000554        0.00000978        0.00000177
     220          0.082177        2.000000        0.00000000        0.00000002        0.00000000        0.00000311
     221          0.082207        2.000000        0.00000008        0.00000002        0.00000088        0.00468444
     222          0.083534        2.000000        0.00024044        0.00000001        0.00068095        0.00000006
     223          0.083807        2.000000        0.00000001        0.00000000        0.00000018        0.00224315
     224          0.083939        2.000000        0.00000002        0.00231347        0.00000011        0.00000000
     225          0.084129        2.000000        0.00000000        0.00000000        0.00000000        0.00000001
     226          0.084259        2.000000        0.00000087        0.00148779        0.00000364        0.00000000
     227          0.084278        2.000000        0.00001925        0.00000088        0.00002214        0.00000000
     228          0.084467        2.000000        0.00000006        0.00000000        0.00000033        0.00274306
     229          0.085518        2.000000        0.00000000        0.00000002        0.00000000        0.00000000
     230          0.086207        2.000000        0.00000000        0.00000004        0.00000000        0.00000001
     231          0.086640        2.000000        0.00000048        0.00166158        0.00000083        0.00000001
     232          0.086699        2.000000        0.00000002        0.00000005        0.00000022        0.00217609
     233          0.086723        2.000000        0.00000001        0.00000488        0.00006154        0.00001258
     234          0.086866        2.000000        0.00000002        0.00000003        0.00000018        0.00202138
     235          0.086873        2.000000        0.00000037        0.00000905        0.00000186        0.00000962
     236          0.086938        2.000000        0.00000004        0.00235826        0.00000010        0.00000001
     237          0.087047        2.000000        0.00000000        0.00000000        0.00000000        0.00000001
     238          0.087056        2.000000        0.00005093        0.00000071        0.00000510        0.00000104
     239          0.088183        2.000000        0.00000000        0.00000000        0.00000001        0.00000376
     240          0.088320        2.000000        0.00000150        0.00000119        0.00000267        0.00000110
     241          0.088363        2.000000        0.00000000        0.00000707        0.00000002        0.00000000
     242          0.088421        2.000000        0.00000083        0.00193039        0.00000192        0.00000002
     243          0.088497        2.000000        0.00000233        0.00000000        0.00000457        0.00000009
     244          0.088675        2.000000        0.00000009        0.00000001        0.00000021        0.00304185
     245          0.088803        2.000000        0.00000000        0.00000000        0.00000000        0.00000001
     246          0.089065        2.000000        0.00000000        0.00000000        0.00000000        0.00004465
     247          0.089190        2.000000        0.00000000        0.00003140        0.00000000        0.00000000
     248          0.089271        2.000000        0.00000387        0.00000001        0.00005231        0.00000006
     249          0.089567        2.000000        0.00000001        0.00000001        0.00000073        0.00000011
     250          0.089653        2.000000        0.00000000        0.00000001        0.00000000        0.00000000
     251          0.089878        2.000000        0.00000000        0.00000000        0.00000001        0.00000263
     252          0.090226        2.000000        0.00000000        0.00003310        0.00000000        0.00000000
     253          0.090236        2.000000        0.00000000        0.00000002        0.00000000        0.00000000
     254          0.090517        2.000000        0.00000007        0.00055910        0.00000023        0.00000000
     255          0.090582        2.000000        0.00000000        0.00000000        0.00000001        0.00081936
     256          0.090661        2.000000        0.00006366        0.00000146        0.00005264        0.00000068
     257          0.090784        2.000000        0.00000010        0.00000010        0.00000550        0.00000013
     258          0.091262        2.000000        0.00000206        0.00000455        0.00000002        0.00000155
     259          0.091316        2.000000        0.00000413        0.00059868        0.00000486        0.00000001