# Projected DOS for atomic kind Au at iteration step i = 0, E(Fermi) =     0.239641 a.u.
#     MO Eigenvalue [a.u.]      Occupation                 s                py                pz                px               d-2               d-1                d0               d+1               d+2
       1         -0.435365        2.000000        0.00675336        0.00932127        0.01707669        0.00943230        0.00000426        0.00159670        0.00003930        0.00165015        0.00164729
       2         -0.397719        2.000000        0.02284533        0.02868982        0.03735013        0.02872345        0.00001222        0.00572095        0.00009036        0.00581663        0.00676785
       3         -0.344155        2.000000        0.03699656        0.03967553        0.03269171        0.03968917        0.00001614        0.00960313        0.00074482        0.00964925        0.01396970
       4         -0.310000        2.000000        0.00030590        0.00005782        0.00165429        0.00028762        0.00001288        0.00001478        0.00008717        0.00008776        0.00003202
       5         -0.274479        2.000000        0.03968722        0.03252783        0.01579108        0.03278849        0.00001299        0.00957306        0.00286528        0.00955600        0.01923644
       6         -0.202106        2.000000        0.00191276        0.00003784        0.00500816        0.00140390        0.00022341        0.00000808        0.00037727        0.00093807        0.00016251
       7         -0.172841        2.000000        0.04362817        0.01949513        0.00881966        0.01871977        0.00000442        0.00584388        0.00810323        0.00589155        0.02466525
       8         -0.120621        2.000000        0.03577387        0.01078771        0.00871530        0.01231916        0.00000075        0.00279843        0.01469984        0.00274393        0.02435085
       9         -0.091078        2.000000        0.15896520        0.02072256        0.02226624        0.01926391        0.00001771        0.00253093        0.03481666        0.00270894        0.05502356
      10         -0.070631        2.000000        0.03492409        0.00068835        0.01126103        0.01666950        0.01137596        0.00060745        0.00052702        0.02778476        0.00678209
      11         -0.070244        2.000000        0.87516988        0.00076810        0.09758819        0.00084867        0.00008546        0.00020718        0.00305397        0.00041688        0.00208314
      12         -0.070132        2.000000        0.90503976        0.00019238        0.08913434        0.00021230        0.00000500        0.00015177        0.00131414        0.00015225        0.00040927
      13         -0.060959        2.000000        0.87979887        0.00041865        0.10720246        0.00046446        0.00001471        0.00042890        0.00383604        0.00041540        0.00092810
      14         -0.050389        2.000000        0.66596563        0.00316651        0.24874868        0.00286446        0.00002343        0.00117180        0.01820976        0.00123581        0.00873687
      15         -0.038505        2.000000        0.01649282        0.00381519        0.01162704        0.00300136        0.00289346        0.00518158        0.01168222        0.00034490        0.00937209
      16         -0.035349        2.000000        0.13136026        0.06645521        0.02168591        0.00365227        0.07574058        0.12945191        0.00100358        0.00708777        0.03267977
      17         -0.034755        2.000000        0.60655869        0.00109705        0.32202671        0.00107758        0.00035850        0.00231645        0.03275129        0.00187641        0.00260255
      18         -0.031842        2.000000        0.15686155        0.07765695        0.02138488        0.00427397        0.09466177        0.15513218        0.00071308        0.00964351        0.03881317
      19         -0.023180        2.000000        0.17397363        0.00467899        0.01249773        0.08118583        0.11502769        0.01508901        0.00118945        0.17688290        0.04356395
      20         -0.018379        2.000000        0.07977860        0.00213134        0.00957030        0.03449269        0.04666573        0.00784650        0.00079564        0.06255144        0.01471948
      21         -0.014138        2.000000        0.48897861        0.00371197        0.36734102        0.00399214        0.00017672        0.00145904        0.10193819        0.00152905        0.01578442
      22         -0.005489        2.000000        0.09671398        0.00171616        0.00141700        0.04213357        0.08020315        0.02120431        0.00425782        0.09583764        0.02138893
      23         -0.002682        2.000000        0.32119920        0.18856373        0.05186953        0.08915402        0.00920776        0.02217512        0.05675527        0.01826913        0.08904739
      24         -0.001592        2.000000        0.39549499        0.15267120        0.00765070        0.26509551        0.00022928        0.00241260        0.04220839        0.00537810        0.12730417
      25         -0.000132        2.000000        0.33976417        0.08931859        0.16782662        0.07147455        0.00936291        0.01653538        0.10103525        0.01489874        0.05123806
      26         -0.000044        2.000000        0.39015645        0.00041291        0.00939935        0.40784344        0.00458764        0.00236007        0.04057343        0.01416242        0.12303432
      27         -0.000036        2.000000        0.39652788        0.41962633        0.00826422        0.00007663        0.00047697        0.00817079        0.04082572        0.00029617        0.12460424
      28          0.002627        2.000000        0.38811492        0.25903482        0.02748654        0.13808211        0.00013612        0.01963161        0.03779831        0.00985025        0.11963575
      29          0.003016        2.000000        0.35184368        0.10161025        0.02537539        0.20260610        0.05367312        0.06516170        0.03143282        0.07509551        0.08765807
      30          0.003991        2.000000        0.27413544        0.03333785        0.00802968        0.05248252        0.19635086        0.19937393        0.00977845        0.20174030        0.02457714
      31          0.004104        2.000000        0.24206195        0.00289652        0.00024749        0.00289419        0.26180720        0.24551680        0.00002755        0.24454671        0.00000034
      32          0.004378        2.000000        0.24095136        0.00417277        0.00081453        0.00341986        0.25268269        0.25540679        0.00009116        0.23813503        0.00024520
      33          0.004578        2.000000        0.23948209        0.00468380        0.00118243        0.00899618        0.24872413        0.23238773        0.00045646        0.25223984        0.00160430
      34          0.004650        2.000000        0.29465264        0.04884780        0.15816091        0.04056400        0.05864401        0.06443489        0.17471464        0.06327472        0.05070206
      35          0.004723        2.000000        0.38190963        0.00017458        0.02958144        0.38471167        0.00793642        0.00584723        0.03525773        0.03960603        0.11286210
      36          0.004817        2.000000        0.38345579        0.38718748        0.03009901        0.00026225        0.00647737        0.03772998        0.03551261        0.00491108        0.11279956
      37          0.006799        2.000000        0.23347737        0.01199353        0.00108229        0.01198570        0.27530253        0.23375674        0.00008400        0.23231061        0.00000032
      38          0.007715        2.000000        0.22639476        0.04990783        0.01852513        0.01701224        0.18060739        0.17372899        0.04687340        0.17059219        0.03002061
      39          0.008209        2.000000        0.22798396        0.02182148        0.00439541        0.01386402        0.25304284        0.24583001        0.00089229        0.22047795        0.00334406
      40          0.008366        2.000000        0.22702229        0.01461114        0.00428418        0.02403241        0.25060848        0.21759318        0.00078236        0.24584915        0.00428348
      41          0.009604        2.000000        0.36897702        0.14396653        0.05612119        0.21024569        0.00247609        0.02966349        0.03352358        0.04419096        0.10936583
      42          0.011051        2.000000        0.23199606        0.03448147        0.00737979        0.03600941        0.25114139        0.21256806        0.00415891        0.21564369        0.00418547
      43          0.011268        2.000000        0.13970035        0.03618369        0.01681928        0.03579727        0.00024775        0.00690518        0.59235408        0.00678463        0.15606811
      44          0.011732        2.000000        0.22254183        0.02721904        0.00267187        0.02716329        0.29458250        0.21360843        0.00019748        0.21199966        0.00001067
      45          0.011828        2.000000        0.35945367        0.00182306        0.05613194        0.33152221        0.02451662        0.01764286        0.02620593        0.09189149        0.08941782
      46          0.011846        2.000000        0.36900577        0.35333016        0.05977568        0.00053629        0.00697426        0.07998342        0.02716232        0.00481042        0.09363471
      47          0.012450        2.000000        0.08308262        0.00661928        0.00535944        0.00044382        0.00000227        0.00135251        0.22176374        0.00008826        0.68060859
      48          0.012693        2.000000        0.14571425        0.00005210        0.12279732        0.00007155        0.00000551        0.00001346        0.69133993        0.00001127        0.03976237
      49          0.013165        2.000000        0.13315152        0.03401465        0.02867263        0.02889095        0.00034621        0.00733989        0.48673505        0.00607722        0.23549175
      50          0.013413        2.000000        0.14857134        0.04658461        0.03611720        0.03611718        0.00142586        0.01123620        0.26079538        0.00864218        0.37608291
      51          0.013672        2.000000        0.20291084        0.02956295        0.00844928        0.02388201        0.25160502        0.22538422        0.00113016        0.19787800        0.00204736
      52          0.015453        2.000000        0.20594641        0.02931335        0.01181927        0.05234357        0.24074817        0.17761291        0.00211462        0.23425744        0.01267825
      53          0.015751        2.000000        0.16285038        0.00557503        0.14768184        0.00071692        0.00010532        0.00177220        0.57179643        0.00033224        0.10855582
      54          0.015853        2.000000        0.09103741        0.00257172        0.03777899        0.00637783        0.00001364        0.00140529        0.26955969        0.00245205        0.58860343
      55          0.016751        2.000000        0.14341964        0.00561543        0.13722478        0.00407330        0.00182731        0.00293624        0.68087611        0.00238259        0.00610322
      56          0.017411        2.000000        0.07458464        0.00039057        0.02058568        0.00064526        0.00003171        0.00010902        0.25401745        0.00018184        0.64895829
      57          0.019279        2.000000        0.34635863        0.17226804        0.08798814        0.13404485        0.00001205        0.07782378        0.02608374        0.06117607        0.09405474
      58          0.019478        2.000000        0.21065603        0.04667525        0.00462425        0.04664987        0.32586943        0.18332134        0.00048753        0.18170066        0.00000049
      59          0.019823        2.000000        0.20816750        0.04833321        0.00808811        0.05061950        0.27608651        0.17484516        0.00854662        0.17960012        0.00598749
      60          0.020090        2.000000        0.33238084        0.11853143        0.09344320        0.15612380        0.01493757        0.06656586        0.07324372        0.08507396        0.05726718
      61          0.021178        2.000000        0.33712336        0.00213511        0.08629521        0.29248353        0.01710347        0.00978855        0.01737706        0.17308212        0.06304575
      62          0.021260        2.000000        0.33792559        0.29243345        0.08640894        0.00234168        0.01861266        0.17182346        0.01703042        0.01080906        0.06202348
      63          0.021695        2.000000        0.06050649        0.00177467        0.03304807        0.00124909        0.00090586        0.00161640        0.17832285        0.00113553        0.72100407
      64          0.022364        2.000000        0.00051993        0.00021977        0.00001200        0.00022462        0.99823207        0.00039385        0.00000066        0.00039543        0.00000002
      65          0.022788        2.000000        0.04357836        0.00953730        0.00211806        0.01154839        0.06404718        0.04170633        0.00024994        0.82437927        0.00024981
      66          0.022800        2.000000        0.06437338        0.01574414        0.00361418        0.01418409        0.09587487        0.73996870        0.00044115        0.06192705        0.00040143
      67          0.023720        2.000000        0.12951593        0.04375101        0.01700329        0.02541816        0.15680902        0.43026522        0.02528780        0.09785472        0.06160794
      68          0.023725        2.000000        0.08542363        0.00493073        0.03789898        0.00298789        0.01573150        0.04304986        0.23183411        0.01000429        0.56671414
      69          0.023984        2.000000        0.15105743        0.03345238        0.01382771        0.05167889        0.20186851        0.12456726        0.00122321        0.39271969        0.00859092
      70          0.024094        2.000000        0.00053978        0.00034299        0.00002967        0.00037761        0.99695355        0.00074758        0.00000438        0.00096541        0.00001135
      71          0.026168        2.000000        0.00094021        0.01090017        0.00031316        0.00007413        0.00061801        0.94237462        0.00030518        0.00022575        0.00028151
      72          0.026243        2.000000        0.01053602        0.00118344        0.00192226        0.01736159        0.00919129        0.00302613        0.00053386        0.95498790        0.00064981
      73          0.027020        2.000000        0.19494743        0.02349940        0.07301657        0.02271794        0.10563957        0.07213881        0.33295851        0.07130728        0.08267977
      74          0.027447        2.000000        0.00062147        0.00061989        0.00005570        0.00058173        0.99552349        0.00075560        0.00004038        0.00058560        0.00001899
      75          0.027704        2.000000        0.11697996        0.04973673        0.01833897        0.01918867        0.15045776        0.11750358        0.00991274        0.05300121        0.00633215
      76          0.028871        2.000000        0.27709923        0.11164401        0.11469654        0.05273687        0.00469255        0.10109809        0.16909100        0.04800816        0.10472119
      77          0.029245        2.000000        0.20166196        0.06880913        0.00581043        0.06877465        0.38070719        0.13718017        0.00145904        0.13558982        0.00000047
      78          0.029647        2.000000        0.31998309        0.09030007        0.11442437        0.16024698        0.00068309        0.09247790        0.01282326        0.16537762        0.04316291
      79          0.029799        2.000000        0.04409799        0.00183929        0.05183657        0.00082103        0.00134752        0.00217798        0.13771440        0.00091586        0.75915358
      80          0.029970        2.000000        0.19858017        0.05812763        0.04156989        0.05983994        0.19887607        0.08623563        0.11934411        0.08898236        0.14728050
      81          0.031533        2.000000        0.30653621        0.00277609        0.10960322        0.23571538        0.01967994        0.00745091        0.00911596        0.27762833        0.03053425
      82          0.031606        2.000000        0.29774758        0.22254591        0.10135838        0.00626630        0.04292888        0.26808150        0.00916411        0.01705846        0.02821239
      83          0.032032        2.000000        0.01575992        0.00310907        0.00292916        0.03356634        0.01858118        0.00324963        0.00107348        0.91830493        0.00141730
      84          0.032043        2.000000        0.01345273        0.03248010        0.00282423        0.00241240        0.01441524        0.92846838        0.00079992        0.00249244        0.00109986
      85          0.032570        2.000000        0.00215766        0.00151951        0.00005770        0.00156036        0.99229666        0.00119844        0.00001358        0.00119308        0.00000062
      86          0.034845        2.000000        0.08672530        0.01496808        0.06896859        0.01564435        0.01445438        0.01635719        0.15312600        0.02012483        0.60030738
      87          0.034915        2.000000        0.16001112        0.05752138        0.01480726        0.06621339        0.28230190        0.10917840        0.00508576        0.26986372        0.01830882
      88          0.035373        2.000000        0.16826311        0.04972506        0.08654580        0.03716178        0.01489820        0.07493900        0.15413643        0.05734373        0.25271969
      89          0.036668        2.000000        0.11795845        0.05927153        0.00820537        0.04642682        0.21581755        0.31402554        0.00198283        0.06004890        0.00961637
      90          0.038570        2.000000        0.07593593        0.03514800        0.00154628        0.03519677        0.79397893        0.02858542        0.00163064        0.02794227        0.00000103
      91          0.038800        2.000000        0.02537782        0.00059090        0.07080830        0.00117385        0.00096395        0.00071658        0.08591418        0.00205343        0.81221111
      92          0.038988        2.000000        0.26975773        0.08492062        0.12265866        0.09164145        0.00007040        0.19589884        0.00482700        0.21608311        0.01402220
      93          0.039165        2.000000        0.13242112        0.06264880        0.00224853        0.06263369        0.66482623        0.03636998        0.00295255        0.03589691        0.00000014
      94          0.039471        2.000000        0.21243013        0.09967826        0.01081728        0.10042156        0.40389324        0.06910568        0.00956696        0.07140957        0.01960189
      95          0.040412        2.000000        0.25227959        0.00044162        0.11507676        0.16790776        0.00467461        0.00068843        0.00423945        0.42874970        0.00972151
      96          0.040465        2.000000        0.25487612        0.16834334        0.11722578        0.00072675        0.00659440        0.43613073        0.00404074        0.00101226        0.00898588
      97          0.040518        2.000000        0.04571246        0.01349710        0.00890797        0.05992614        0.06647036        0.00428911        0.00311777        0.79281913        0.00283087
      98          0.040561        2.000000        0.23795529        0.07953690        0.11543389        0.07109784        0.01876189        0.21818278        0.01471869        0.19833266        0.03855533
      99          0.040682        2.000000        0.06063137        0.06404737        0.01144101        0.01825122        0.09067324        0.72619396        0.00436859        0.00548937        0.00406854
     100          0.044433        2.000000        0.04354906        0.01035693        0.08336994        0.00825072        0.00056840        0.02734600        0.07071830        0.01995989        0.71713718
     101          0.045681        2.000000        0.00021716        0.00171565        0.00001786        0.00183571        0.99246865        0.00178017        0.00000472        0.00194858        0.00000093
     102          0.046048        2.000000        0.00759988        0.00022778        0.08677205        0.00016013        0.00001191        0.00084127        0.02926384        0.00066014        0.87443776
     103          0.046273        2.000000        0.19140997        0.00591209        0.09639498        0.09736734        0.03999729        0.00039874        0.00720422        0.53973336        0.02021986
     104          0.046380        2.000000        0.08607968        0.02666831        0.00790785        0.04070355        0.20989018        0.05692415        0.01193212        0.32790634        0.00261257
     105          0.046391        2.000000        0.19201686        0.09721896        0.09350645        0.00823029        0.05510395        0.52451096        0.00723955        0.00059433        0.01886273
     106          0.046984        2.000000        0.09038257        0.04829382        0.01205179        0.02875008        0.25060064        0.45259054        0.02510288        0.06732144        0.00468834
     107          0.047492        2.000000        0.20009983        0.04745646        0.10930845        0.05706330        0.00020945        0.23906633        0.02847493        0.29057793        0.02766758
     108          0.048591        2.000000        0.11948245        0.07043939        0.07315423        0.02313623        0.00369268        0.20585866        0.24127996        0.12544108        0.13375904
     109          0.048677        2.000000        0.04606423        0.05070296        0.02859965        0.03815196        0.00365774        0.03658396        0.49108520        0.10037130        0.20082831
     110          0.048971        2.000000        0.01641283        0.01625702        0.01149801        0.06868056        0.00448609        0.04153514        0.57670028        0.01808938        0.23911382
     111          0.050706        2.000000        0.00128831        0.00014724        0.00275640        0.02885026        0.00255782        0.00025402        0.01508973        0.42506984        0.00610228
     112          0.050753        2.000000        0.00271795        0.00084417        0.00072763        0.08950589        0.00777049        0.00046427        0.64859858        0.02537784        0.22321165
     113          0.050860        2.000000        0.12209678        0.05127648        0.07245005        0.00231733        0.02038497        0.64486160        0.02902175        0.00814797        0.04884344
     114          0.050899        2.000000        0.00120351        0.09013651        0.00074578        0.00017218        0.00194258        0.01797407        0.65902373        0.00011902        0.22753238
     115          0.050928        2.000000        0.02001978        0.05660214        0.01083463        0.01662910        0.00191579        0.06776722        0.54486700        0.05741774        0.22010205
     116          0.050930        2.000000        0.12319228        0.00618401        0.07229992        0.04523836        0.02130455        0.01254090        0.06285059        0.55895808        0.06239511
     117          0.051212        2.000000        0.01209005        0.01338464        0.00636444        0.05793047        0.00465949        0.01853945        0.56056752        0.08971130        0.23360830
     118          0.052075        2.000000        0.06429183        0.02460089        0.00839066        0.04057154        0.19649014        0.01731790        0.03527646        0.57879860        0.02003429
     119          0.052701        2.000000        0.05138514        0.03209053        0.00936432        0.01790121        0.15288025        0.64472896        0.01863351        0.01480390        0.01830791
     120          0.052950        2.000000        0.00020893        0.00271738        0.00001146        0.00292315        0.98032946        0.00632502        0.00001920        0.00741706        0.00000078
     121          0.053233        2.000000        0.12950201        0.02224439        0.08578577        0.03279784        0.00001651        0.23866822        0.08424565        0.33118567        0.07549840
     122          0.053339        2.000000        0.12631465        0.03106650        0.08489568        0.02198432        0.00146192        0.33495997        0.07401605        0.22517056        0.09995094
     123          0.053416        2.000000        0.00229883        0.00018485        0.00094603        0.00841927        0.00706516        0.00060318        0.01205952        0.96257962        0.00551706
     124          0.053585        2.000000        0.00282698        0.01933553        0.00168229        0.00000384        0.00503370        0.88917563        0.05630574        0.00001575        0.02412541
     125          0.053849        2.000000        0.00681494        0.00010884        0.00513707        0.07528335        0.00290030        0.00087818        0.56051561        0.12585986        0.22049111
     126          0.053906        2.000000        0.00438908        0.06356589        0.00228907        0.00063014        0.00927077        0.29223489        0.44430672        0.00367950        0.17542804
     127          0.055044        2.000000        0.02114188        0.03145677        0.01062799        0.01492393        0.00041669        0.16204843        0.43976918        0.07980595        0.23945788
     128          0.055081        2.000000        0.03477765        0.04501016        0.02464765        0.00423690        0.03643933        0.64574142        0.09508407        0.02399175        0.06682354
     129          0.055329        2.000000        0.02494490        0.01293113        0.01464649        0.02591523        0.00396647        0.08368840        0.37814721        0.18607435        0.26708093
     130          0.055517        2.000000        0.06502861        0.00285634        0.03980104        0.02125206        0.02227684        0.00362996        0.12151986        0.60343315        0.12004749
     131          0.055578        2.000000        0.06322512        0.02078837        0.04034856        0.00197721        0.01605639        0.60592220        0.12604110        0.00253059        0.12307012
     132          0.055908        2.000000        0.00001305        0.00211893        0.00000962        0.00003805        0.01004404        0.97589653        0.00001384        0.01186168        0.00000417
     133          0.056022        2.000000        0.00000717        0.00003132        0.00000401        0.00213462        0.00999833        0.01221923        0.00000697        0.97559298        0.00000529
     134          0.056054        2.000000        0.02512154        0.00890205        0.00502792        0.02811411        0.08940741        0.01299289        0.08685251        0.67931079        0.05439946
     135          0.056458        2.000000        0.01531846        0.00120192        0.01246448        0.02504243        0.04007423        0.00988517        0.02618995        0.76045229        0.03655464
     136          0.056528        2.000000        0.02392285        0.03018836        0.00362349        0.00890577        0.09192656        0.65404482        0.08960096        0.01452359        0.05581131
     137          0.057833        2.000000        0.00008580        0.00830133        0.00002023        0.00005681        0.03768272        0.95254574        0.00006479        0.00122607        0.00001519
     138          0.057989        2.000000        0.00007922        0.00004747        0.00001802        0.00834728        0.03981701        0.00090538        0.00005569        0.95071891        0.00001064
     139          0.058192        2.000000        0.01050000        0.02185246        0.00469024        0.00251742        0.08419610        0.83696271        0.00418052        0.01909663        0.00773405
     140          0.058671        2.000000        0.03626597        0.00773379        0.03737838        0.01067135        0.02165891        0.10072268        0.09742750        0.19995718        0.45480080
     141          0.058742        2.000000        0.03033868        0.00515758        0.02163906        0.01967813        0.06672378        0.05257411        0.05064021        0.56931094        0.13563765
     142          0.059085        2.000000        0.08097669        0.04025426        0.07093554        0.00998233        0.00178815        0.37484573        0.17399348        0.06935612        0.16205396
     143          0.059565        2.000000        0.08207102        0.00720439        0.07815442        0.04349130        0.00001295        0.09016215        0.18166809        0.40189300        0.11380696
     144          0.059796        2.000000        0.00000359        0.00699097        0.00000218        0.00666805        0.63903012        0.18375338        0.00001412        0.16352790        0.00000646