# Projected DOS for atomic kind C at iteration step i = 0, E(Fermi) =     0.239641 a.u.
#     MO Eigenvalue [a.u.]      Occupation                 s                py                pz                px
       1         -0.435365        2.000000        0.67431065        0.00001090        0.00841890        0.07487833
       2         -0.397719        2.000000        0.32627928        0.00000073        0.10061266        0.02952166
       3         -0.344155        2.000000        0.14174465        0.00000608        0.21456179        0.00650958
       4         -0.310000        2.000000        0.62052315        0.00001176        0.04341653        0.18495765
       5         -0.274479        2.000000        0.33153762        0.00001398        0.14711001        0.04079286
       6         -0.202106        2.000000        0.29274057        0.00002327        0.19945282        0.31503090
       7         -0.172841        2.000000        0.23628437        0.00000390        0.18525594        0.18699927
       8         -0.120621        2.000000        0.02748731        0.00003361        0.19438812        0.33906869
       9         -0.091078        2.000000        0.08376874        0.00016128        0.21972868        0.00074882
      10         -0.070631        2.000000        0.00746447        0.00001860        0.40924794        0.33317148
      11         -0.070244        2.000000        0.00191315        0.00000653        0.00653728        0.00235920
      12         -0.070132        2.000000        0.00022326        0.00000075        0.00159986        0.00028938
      13         -0.060959        2.000000        0.00039976        0.00000177        0.00309783        0.00028480
      14         -0.050389        2.000000        0.00898171        0.00008444        0.00686144        0.00575704
      15         -0.038505        2.000000        0.09470855        0.01055665        0.10850093        0.37234742
      16         -0.035349        2.000000        0.00442825        0.14223024        0.00466940        0.01705875
      17         -0.034755        2.000000        0.00164373        0.00034708        0.01658817        0.00057928
      18         -0.031842        2.000000        0.00000156        0.05629065        0.00002538        0.00000847
      19         -0.023180        2.000000        0.01380194        0.00002383        0.00340061        0.00467856
      20         -0.018379        2.000000        0.00928959        0.00006560        0.01224239        0.47833865
      21         -0.014138        2.000000        0.00051463        0.00000214        0.00449368        0.00087172
      22         -0.005489        2.000000        0.00368059        0.00013583        0.30147535        0.10842306
      23         -0.002682        2.000000        0.00494457        0.00007257        0.10298865        0.00114275
      24         -0.001592        2.000000        0.00006155        0.00000087        0.00101683        0.00002594
      25         -0.000132        2.000000        0.00400137        0.00007277        0.09329290        0.00083206
      26         -0.000044        2.000000        0.00002044        0.00000138        0.00329766        0.00042583
      27         -0.000036        2.000000        0.00000062        0.00073368        0.00001108        0.00000097
      28          0.002627        2.000000        0.00005199        0.00000178        0.00002753        0.00003694
      29          0.003016        2.000000        0.00016096        0.00000151        0.00234050        0.00041910
      30          0.003991        2.000000        0.00000191        0.00000007        0.00003285        0.00000469
      31          0.004104        2.000000        0.00000000        0.00000110        0.00000003        0.00000007
      32          0.004378        2.000000        0.00000081        0.00327388        0.00000226        0.00000304
      33          0.004578        2.000000        0.00000637        0.00000136        0.00425890        0.00059347
      34          0.004650        2.000000        0.00126022        0.00003725        0.02984203        0.00035219
      35          0.004723        2.000000        0.00004447        0.00000040        0.00001076        0.00019619
      36          0.004817        2.000000        0.00000388        0.00023871        0.00007895        0.00000123
      37          0.006799        2.000000        0.00000000        0.00000669        0.00000002        0.00000008
      38          0.007715        2.000000        0.00195366        0.00009918        0.05878319        0.00040003
      39          0.008209        2.000000        0.00001170        0.00181807        0.00027366        0.00000318
      40          0.008366        2.000000        0.00033744        0.00000221        0.00007482        0.00076245
      41          0.009604        2.000000        0.00006590        0.00000138        0.00094175        0.00004615
      42          0.011051        2.000000        0.00011985        0.00000382        0.00135025        0.00020167
      43          0.011268        2.000000        0.00019152        0.00000592        0.00610960        0.00004617
      44          0.011732        2.000000        0.00000000        0.00000472        0.00000014        0.00000019
      45          0.011828        2.000000        0.00000326        0.00000002        0.00012091        0.00018197
      46          0.011846        2.000000        0.00000064        0.00402508        0.00000121        0.00000264
      47          0.012450        2.000000        0.00000937        0.00000050        0.00045111        0.00000078
      48          0.012693        2.000000        0.00000131        0.00000187        0.00010636        0.00008289
      49          0.013165        2.000000        0.00073061        0.00003305        0.02629764        0.00015782
      50          0.013413        2.000000        0.00128723        0.00008676        0.04958736        0.00027644
      51          0.013672        2.000000        0.00000885        0.05326053        0.00005886        0.00003741
      52          0.015453        2.000000        0.00000622        0.00000251        0.00962584        0.00165026
      53          0.015751        2.000000        0.00001957        0.00000019        0.00014986        0.00001280
      54          0.015853        2.000000        0.00004081        0.00000120        0.00001675        0.00003185
      55          0.016751        2.000000        0.00020812        0.00001294        0.01042796        0.00003362
      56          0.017411        2.000000        0.00001418        0.00000023        0.00022871        0.00003555
      57          0.019279        2.000000        0.00003796        0.00000704        0.00000669        0.00007593
      58          0.019478        2.000000        0.00000000        0.00001441        0.00000004        0.00000036
      59          0.019823        2.000000        0.00047474        0.00004313        0.02781322        0.00008397
      60          0.020090        2.000000        0.00009429        0.00000572        0.00090437        0.00009164
      61          0.021178        2.000000        0.00001116        0.00000078        0.00000267        0.00052228
      62          0.021260        2.000000        0.00000006        0.00008774        0.00000125        0.00000002
      63          0.021695        2.000000        0.00001745        0.00000117        0.00028626        0.00001457
      64          0.022364        2.000000        0.00000000        0.00000158        0.00000002        0.00000001
      65          0.022788        2.000000        0.00006790        0.00000129        0.00001038        0.00055049
      66          0.022800        2.000000        0.00000047        0.00109142        0.00000725        0.00000024
      67          0.023720        2.000000        0.00000019        0.00370986        0.00000307        0.00000008
      68          0.023725        2.000000        0.00001346        0.00036171        0.00008143        0.00000448
      69          0.023984        2.000000        0.00053944        0.00000953        0.00008961        0.00392983
      70          0.024094        2.000000        0.00000064        0.00000150        0.00000012        0.00000453
      71          0.026168        2.000000        0.00000166        0.04386749        0.00001723        0.00002815
      72          0.026243        2.000000        0.00000004        0.00000007        0.00017566        0.00002969
      73          0.027020        2.000000        0.00085194        0.00441129        0.00677237        0.00061479
      74          0.027447        2.000000        0.00000033        0.00118840        0.00000076        0.00000043
      75          0.027704        2.000000        0.00008885        0.45530780        0.00017627        0.00016423
      76          0.028871        2.000000        0.00009845        0.00003350        0.01053333        0.00002550
      77          0.029245        2.000000        0.00000000        0.00000678        0.00000009        0.00000012
      78          0.029647        2.000000        0.00002537        0.00000367        0.00031796        0.00002620
      79          0.029799        2.000000        0.00001486        0.00003131        0.00000304        0.00002880
      80          0.029970        2.000000        0.00002870        0.00002488        0.00005045        0.00000300
      81          0.031533        2.000000        0.00000302        0.00000000        0.00002310        0.00012701
      82          0.031606        2.000000        0.00000057        0.00616588        0.00000182        0.00000299
      83          0.032032        2.000000        0.00005838        0.00000078        0.00001137        0.00022206
      84          0.032043        2.000000        0.00000005        0.00045295        0.00000010        0.00000003
      85          0.032570        2.000000        0.00000002        0.00000124        0.00000001        0.00000011
      86          0.034845        2.000000        0.00041110        0.00000328        0.00373992        0.00034290
      87          0.034915        2.000000        0.00003804        0.00000104        0.00317188        0.00080271
      88          0.035373        2.000000        0.00045150        0.00013517        0.06669658        0.00027243
      89          0.036668        2.000000        0.00001273        0.15409362        0.00005003        0.00006092
      90          0.038570        2.000000        0.00000000        0.00002955        0.00000004        0.00000288
      91          0.038800        2.000000        0.00000847        0.00000054        0.00011668        0.00000879
      92          0.038988        2.000000        0.00001634        0.00001062        0.00001031        0.00005239
      93          0.039165        2.000000        0.00000000        0.00000134        0.00000000        0.00000045
      94          0.039471        2.000000        0.00000210        0.00000617        0.00229378        0.00001856
      95          0.040412        2.000000        0.00010311        0.00001874        0.00001519        0.00933900
      96          0.040465        2.000000        0.00000048        0.00066377        0.00000538        0.00000021
      97          0.040518        2.000000        0.00000372        0.00000016        0.00044948        0.00007025
      98          0.040561        2.000000        0.00038624        0.00000923        0.00256615        0.00016404
      99          0.040682        2.000000        0.00000598        0.01253529        0.00001717        0.00000202
     100          0.044433        2.000000        0.00001068        0.00004098        0.01142666        0.00034323
     101          0.045681        2.000000        0.00000005        0.00000376        0.00000004        0.00000386
     102          0.046048        2.000000        0.00000298        0.00000026        0.00000213        0.00001302
     103          0.046273        2.000000        0.00000402        0.00000005        0.00008856        0.00009878
     104          0.046380        2.000000        0.00130643        0.00033112        0.00008695        0.14798585
     105          0.046391        2.000000        0.00000022        0.00191294        0.00000053        0.00001162
     106          0.046984        2.000000        0.00000157        0.00999395        0.00001610        0.00000239
     107          0.047492        2.000000        0.00000716        0.00000015        0.00003832        0.00000990
     108          0.048591        2.000000        0.00001072        0.00000313        0.00212283        0.00006125
     109          0.048677        2.000000        0.00000132        0.00000323        0.00234495        0.00008936
     110          0.048971        2.000000        0.00000231        0.00000798        0.00446398        0.00025871
     111          0.050706        2.000000        0.00099307        0.00079859        0.00007857        0.35645542
     112          0.050753        2.000000        0.00000193        0.00000011        0.00015841        0.00004613
     113          0.050860        2.000000        0.00000009        0.00026792        0.00000076        0.00001193
     114          0.050899        2.000000        0.00000002        0.00090403        0.00000037        0.00000048
     115          0.050928        2.000000        0.00001782        0.00000560        0.00020632        0.00243802
     116          0.050930        2.000000        0.00003101        0.00005223        0.00002272        0.02425455
     117          0.051212        2.000000        0.00015455        0.00000071        0.00152166        0.00044331
     118          0.052075        2.000000        0.00003814        0.00000064        0.00211240        0.00058059
     119          0.052701        2.000000        0.00000108        0.02881002        0.00000781        0.00001005
     120          0.052950        2.000000        0.00000012        0.00001957        0.00000001        0.00001902
     121          0.053233        2.000000        0.00001090        0.00000325        0.00000238        0.00002386
     122          0.053339        2.000000        0.00000805        0.00000115        0.00000104        0.00000935
     123          0.053416        2.000000        0.00000027        0.00000040        0.00000014        0.00021034
     124          0.053585        2.000000        0.00000011        0.00077020        0.00000056        0.00000013
     125          0.053849        2.000000        0.00001892        0.00000153        0.00000270        0.00102544
     126          0.053906        2.000000        0.00000034        0.00228754        0.00000153        0.00000043
     127          0.055044        2.000000        0.00000179        0.00009681        0.00011040        0.00000204
     128          0.055081        2.000000        0.00000177        0.01179090        0.00000315        0.00000131
     129          0.055329        2.000000        0.00000277        0.00001597        0.00181342        0.00000551
     130          0.055517        2.000000        0.00000022        0.00000001        0.00001878        0.00000485
     131          0.055578        2.000000        0.00000000        0.00002082        0.00000001        0.00000001
     132          0.055908        2.000000        0.00000000        0.00000001        0.00000000        0.00000004
     133          0.056022        2.000000        0.00000000        0.00000001        0.00000000        0.00000002
     134          0.056054        2.000000        0.00002883        0.00000045        0.00138715        0.00034546
     135          0.056458        2.000000        0.00001395        0.00010329        0.00002649        0.04760129
     136          0.056528        2.000000        0.00000021        0.01842140        0.00000706        0.00000859
     137          0.057833        2.000000        0.00000000        0.00000074        0.00000000        0.00000039
     138          0.057989        2.000000        0.00000000        0.00000033        0.00000000        0.00000001
     139          0.058192        2.000000        0.00000108        0.00445826        0.00000442        0.00000070
     140          0.058671        2.000000        0.00158889        0.00002806        0.01396879        0.00584868
     141          0.058742        2.000000        0.00038503        0.00005722        0.00294709        0.02580586
     142          0.059085        2.000000        0.00010956        0.00001242        0.00991699        0.00086177
     143          0.059565        2.000000        0.00000153        0.00000258        0.00104995        0.00002439
     144          0.059796        2.000000        0.00000001        0.00000252        0.00000002        0.00000026
     145          0.060633        2.000000        0.00000180        0.00000001        0.00000208        0.00010644
     146          0.060691        2.000000        0.00000000        0.00000027        0.00000000        0.00000001
     147          0.060829        2.000000        0.00000002        0.00052917        0.00000035        0.00000011
     148          0.061151        2.000000        0.00004491        0.00000139        0.00001073        0.00004178
     149          0.061222        2.000000        0.00000000        0.00000331        0.00000003        0.00000014
     150          0.061974        2.000000        0.00042079        0.00000170        0.00241552        0.00009143
     151          0.062435        2.000000        0.00001695        0.00000037        0.00046625        0.00021463
     152          0.062575        2.000000        0.00000210        0.00710002        0.00005361        0.00000097
     153          0.062707        2.000000        0.00000054        0.00516726        0.00000413        0.00000099
     154          0.063454        2.000000        0.00005682        0.00007226        0.00107820        0.02941084
     155          0.064090        2.000000        0.00027298        0.00011059        0.06312420        0.00166264
     156          0.064317        2.000000        0.00000000        0.00000090        0.00000008        0.00000055
     157          0.064504        2.000000        0.00000000        0.00000018        0.00000001        0.00000018
     158          0.066192        2.000000        0.00000005        0.00233804        0.00003829        0.00000019
     159          0.066321        2.000000        0.00004190        0.00001977        0.00006783        0.00801895
     160          0.067464        2.000000        0.00000001        0.00003681        0.00000022        0.00000375
     161          0.068353        2.000000        0.00006095        0.00000061        0.00181148        0.00059491
     162          0.068382        2.000000        0.00000004        0.00000073        0.00000152        0.00000037
     163          0.068617        2.000000        0.00000000        0.00000382        0.00000008        0.00000005
     164          0.068675        2.000000        0.00000011        0.01412276        0.00001222        0.00000856
     165          0.068768        2.000000        0.00019165        0.00009148        0.00160054        0.00016002
     166          0.069252        2.000000        0.00000023        0.00000014        0.00000038        0.00000014
     167          0.070057        2.000000        0.00000000        0.00000001        0.00000364        0.00000198
     168          0.070141        2.000000        0.00000000        0.00000731        0.00000004        0.00000001
     169          0.070187        2.000000        0.00002864        0.00000147        0.00000050        0.00022656
     170          0.070336        2.000000        0.00000002        0.00033026        0.00000068        0.00000003
     171          0.070813        2.000000        0.00000002        0.00000204        0.00000035        0.00000040
     172          0.070855        2.000000        0.00002886        0.00000024        0.00075692        0.00024748
     173          0.071074        2.000000        0.00000039        0.00867412        0.00000231        0.00000224
     174          0.071431        2.000000        0.00000651        0.00000080        0.00025826        0.00000502
     175          0.071651        2.000000        0.00001258        0.00001146        0.00249763        0.00000718
     176          0.071656        2.000000        0.00000000        0.00000018        0.00000005        0.00000001
     177          0.072248        2.000000        0.00000000        0.00000007        0.00000000        0.00000000
     178          0.072444        2.000000        0.00000001        0.00004219        0.00000002        0.00000197
     179          0.073430        2.000000        0.00000316        0.00000002        0.00000003        0.00000002
     180          0.073483        2.000000        0.00000009        0.00025410        0.00000044        0.00000004
     181          0.073707        2.000000        0.00000000        0.00000013        0.00000000        0.00000001
     182          0.073803        2.000000        0.00018845        0.00004175        0.00858504        0.00006592
     183          0.073922        2.000000        0.00000313        0.00000105        0.00002197        0.00029786
     184          0.073970        2.000000        0.00000003        0.00027284        0.00000812        0.00000007
     185          0.074192        2.000000        0.00000000        0.00000405        0.00000000        0.00000017
     186          0.074460        2.000000        0.00000000        0.00001716        0.00000011        0.00000026
     187          0.074712        2.000000        0.00000000        0.00000019        0.00000000        0.00000000
     188          0.074750        2.000000        0.00000061        0.00000145        0.00013843        0.00000104
     189          0.074765        2.000000        0.00000421        0.00000001        0.00002713        0.00000245
     190          0.074891        2.000000        0.00000000        0.00000467        0.00000002        0.00000005
     191          0.075032        2.000000        0.00000120        0.00000002        0.00000044        0.00000099
     192          0.075176        2.000000        0.00000000        0.00000059        0.00000000        0.00000002
     193          0.075209        2.000000        0.00000006        0.00000002        0.00001360        0.00002168
     194          0.075233        2.000000        0.00000000        0.00000381        0.00000005        0.00000000
     195          0.075259        2.000000        0.00000000        0.00000021        0.00000000        0.00000001
     196          0.075745        2.000000        0.00000000        0.00000116        0.00000000        0.00000004
     197          0.075787        2.000000        0.00000000        0.00000023        0.00000000        0.00000000
     198          0.075811        2.000000        0.00000000        0.00000039        0.00000000        0.00000002
     199          0.075879        2.000000        0.00000000        0.00000023        0.00000000        0.00000000
     200          0.075881        2.000000        0.00000000        0.00018848        0.00000066        0.00000001
     201          0.075940        2.000000        0.00000350        0.00000002        0.00000015        0.00000007
     202          0.076451        2.000000        0.00000001        0.00000133        0.00000009        0.00000001
     203          0.076456        2.000000        0.00008672        0.00000051        0.00061853        0.00003913
     204          0.076521        2.000000        0.00000001        0.00000000        0.00000149        0.00000042
     205          0.076728        2.000000        0.00000000        0.00000651        0.00000000        0.00000000
     206          0.076771        2.000000        0.00000008        0.00000000        0.00000613        0.00000117
     207          0.076860        2.000000        0.00000000        0.00000622        0.00000002        0.00000000
     208          0.076921        2.000000        0.00000006        0.00000000        0.00000000        0.00000009
     209          0.077093        2.000000        0.00000000        0.00000005        0.00000000        0.00000000
     210          0.077353        2.000000        0.00000385        0.00000015        0.00019483        0.00003346
     211          0.077549        2.000000        0.00000002        0.00051272        0.00000015        0.00000013
     212          0.079130        2.000000        0.00000026        0.00488666        0.00001031        0.00000036
     213          0.079260        2.000000        0.00003502        0.00000048        0.00000529        0.00029007
     214          0.079495        2.000000        0.00007350        0.00000041        0.00064533        0.00008046
     215          0.080132        2.000000        0.00000003        0.00018037        0.00000005        0.00000422
     216          0.081357        2.000000        0.00001770        0.00003184        0.00091197        0.00000486
     217          0.081488        2.000000        0.00000828        0.00003365        0.00052844        0.00000336
     218          0.081750        2.000000        0.00000042        0.01408110        0.00003691        0.00000062
     219          0.081854        2.000000        0.00000180        0.00001715        0.00001717        0.00001518
     220          0.082177        2.000000        0.00000005        0.00000970        0.00000002        0.00000020
     221          0.082207        2.000000        0.00004481        0.00000388        0.00001467        0.00148529
     222          0.083534        2.000000        0.00008290        0.00000010        0.00080693        0.00009705
     223          0.083807        2.000000        0.00001201        0.00000017        0.00035556        0.00006435
     224          0.083939        2.000000        0.00000005        0.00178649        0.00000048        0.00000041
     225          0.084129        2.000000        0.00000000        0.00001685        0.00000012        0.00000011
     226          0.084259        2.000000        0.00000069        0.01366881        0.00001951        0.00000084
     227          0.084278        2.000000        0.00000688        0.00000799        0.00004876        0.00000329
     228          0.084467        2.000000        0.00017876        0.00000038        0.00001693        0.00005296
     229          0.085518        2.000000        0.00000002        0.00008760        0.00000002        0.00000154
     230          0.086207        2.000000        0.00000000        0.00000094        0.00000000        0.00000000
     231          0.086640        2.000000        0.00000080        0.00872506        0.00000608        0.00000069
     232          0.086699        2.000000        0.00001231        0.00000029        0.00032569        0.00006048
     233          0.086723        2.000000        0.00001136        0.00001027        0.00026677        0.00000348
     234          0.086866        2.000000        0.00004049        0.00000114        0.00000708        0.00049296
     235          0.086873        2.000000        0.00000408        0.00000615        0.00002124        0.00000522
     236          0.086938        2.000000        0.00000004        0.00169703        0.00000048        0.00000042
     237          0.087047        2.000000        0.00000000        0.00000183        0.00000002        0.00000001
     238          0.087056        2.000000        0.00002711        0.00000076        0.00030162        0.00000591
     239          0.088183        2.000000        0.00000265        0.00000014        0.00016337        0.00005336
     240          0.088320        2.000000        0.00000019        0.00000542        0.00000607        0.00000091
     241          0.088363        2.000000        0.00000000        0.00021429        0.00000007        0.00000002
     242          0.088421        2.000000        0.00000063        0.01188081        0.00001284        0.00000067
     243          0.088497        2.000000        0.00000274        0.00000001        0.00002144        0.00000193
     244          0.088675        2.000000        0.00004405        0.00000220        0.00000734        0.00078953
     245          0.088803        2.000000        0.00000000        0.00000027        0.00000000        0.00000000
     246          0.089065        2.000000        0.00000033        0.00000001        0.00001303        0.00000158
     247          0.089190        2.000000        0.00000000        0.00003502        0.00000001        0.00000001
     248          0.089271        2.000000        0.00004833        0.00000020        0.00040244        0.00004224
     249          0.089567        2.000000        0.00000128        0.00000021        0.00000823        0.00000054
     250          0.089653        2.000000        0.00000000        0.00000460        0.00000000        0.00000004
     251          0.089878        2.000000        0.00000052        0.00000000        0.00000284        0.00000158
     252          0.090226        2.000000        0.00000001        0.00002270        0.00000001        0.00000001
     253          0.090236        2.000000        0.00000000        0.00000005        0.00000000        0.00000000
     254          0.090517        2.000000        0.00000068        0.00468952        0.00000138        0.00000041
     255          0.090582        2.000000        0.00000453        0.00000130        0.00000151        0.00030721
     256          0.090661        2.000000        0.00005509        0.00001216        0.00112411        0.00000865
     257          0.090784        2.000000        0.00000006        0.00000010        0.00000886        0.00000015
     258          0.091262        2.000000        0.00000046        0.00025759        0.00001301        0.00000043
     259          0.091316        2.000000        0.00000133        0.02846317        0.00004457        0.00000203