 DBCSR| CPU Multiplication driver                                           XSMM
 DBCSR| Multrec recursion limit                                              512
 DBCSR| Multiplication stack size                                           1000
 DBCSR| Maximum elements for images                                    UNLIMITED
 DBCSR| Multiplicative factor virtual images                                   1
 DBCSR| Use multiplication densification                                       T
 DBCSR| Multiplication size stacks                                             3
 DBCSR| Use memory pool for CPU allocation                                     F
 DBCSR| Number of 3D layers                                               SINGLE
 DBCSR| Use MPI memory allocation                                              F
 DBCSR| Use RMA algorithm                                                      F
 DBCSR| Use Communication thread                                               T
 DBCSR| Communication thread load                                             87
 DBCSR| MPI: My node id                                                        0
 DBCSR| MPI: Number of nodes                                                 240
 DBCSR| OMP: Current number of threads                                         1
 DBCSR| OMP: Max number of threads                                             1
 DBCSR| Split modifier for TAS multiplication algorithm                  1.0E+00


  **** **** ******  **  PROGRAM STARTED AT               2023-02-25 14:50:18.185
 ***** ** ***  *** **   PROGRAM STARTED ON                 cn1142.scarf.rl.ac.uk
 **    ****   ******    PROGRAM STARTED BY                             scarf1157
 ***** **    ** ** **   PROGRAM PROCESS ID                                 60987
  **** **  *******  **  PROGRAM STARTED IN /work4/scd/scarf1157/work/testing/cp2
                                           k-smeagol/bdt/cp2k/hollow-site/transp
                                           ort-cp2k/5-4/geometry-ordered/3x3-4/s
                                           z/bulk_layers-4/pdos/gamma

 CP2K| version string:                 CP2K version 2022.1 (Development Version)
 CP2K| source code revision number:                                  git:1ef701d
 CP2K| cp2kflags: omp fftw3 libxc parallel mpi3 scalapack xsmm spglib           
 CP2K| is freely available from                            https://www.cp2k.org/
 CP2K| Program compiled at                          Thu 26 Jan 13:39:53 GMT 2023
 CP2K| Program compiled on                                 cn1108.scarf.rl.ac.uk
 CP2K| Program compiled for                                                local
 CP2K| Data directory path    /home/vol07/scarf1157/code/smeagol/cp2k-smeagol/sc
 CP2K| Input file name                                             2_dft_wfn.inp

 GLOBAL| Force Environment number                                              1
 GLOBAL| Basis set file name                                        BASIS_MOLOPT
 GLOBAL| Potential file name                                      GTH_POTENTIALS
 GLOBAL| MM Potential file name                                     MM_POTENTIAL
 GLOBAL| Coordinate file name                                             em.xyz
 GLOBAL| Method name                                                        CP2K
 GLOBAL| Project name                                                    dft_wfn
 GLOBAL| Run type                                                         ENERGY
 GLOBAL| FFT library                                                       FFTW3
 GLOBAL| Diagonalization library                                       ScaLAPACK
 GLOBAL| Orthonormality check for eigenvectors                          DISABLED
 GLOBAL| Matrix multiplication library                                 ScaLAPACK
 GLOBAL| All-to-all communication in single precision                          F
 GLOBAL| FFTs using library dependent lengths                                  T
 GLOBAL| Grid backend                                                       AUTO
 GLOBAL| Global print level                                               MEDIUM
 GLOBAL| MPI I/O enabled                                                       T
 GLOBAL| Total number of message passing processes                           240
 GLOBAL| Number of threads for this process                                    1
 GLOBAL| This output is from process                                           0
 GLOBAL| Stack size for threads created by OpenMP (OMP_STACKSIZE)        default
 GLOBAL| CPU model name                         AMD EPYC 7502P 32-Core Processor
 GLOBAL| CPUID                                                              1002

 MEMORY| system memory details [Kb]
 MEMORY|                        rank 0           min           max       average
 MEMORY| MemTotal            263896980     263896980     263896984     263896981
 MEMORY| MemFree             175102484     137942588     225524696     195107572
 MEMORY| Buffers                  2564          2560          2572          2564
 MEMORY| Cached               69214816      23025052     109885196      52571947
 MEMORY| Slab                  1242980       1033792       1349356       1170197
 MEMORY| SReclaimable           686944        520744        822252        642010
 MEMORY| MemLikelyFree       245006808     245006808     249073052     248324095


 *** Fundamental physical constants (SI units) ***

 *** Literature: B. J. Mohr and B. N. Taylor,
 ***             CODATA recommended values of the fundamental physical
 ***             constants: 2006, Web Version 5.1
 ***             http://physics.nist.gov/constants

 Speed of light in vacuum [m/s]                             2.99792458000000E+08
 Magnetic constant or permeability of vacuum [N/A**2]       1.25663706143592E-06
 Electric constant or permittivity of vacuum [F/m]          8.85418781762039E-12
 Planck constant (h) [J*s]                                  6.62606896000000E-34
 Planck constant (h-bar) [J*s]                              1.05457162825177E-34
 Elementary charge [C]                                      1.60217648700000E-19
 Electron mass [kg]                                         9.10938215000000E-31
 Electron g factor [ ]                                     -2.00231930436220E+00
 Proton mass [kg]                                           1.67262163700000E-27
 Fine-structure constant                                    7.29735253760000E-03
 Rydberg constant [1/m]                                     1.09737315685270E+07
 Avogadro constant [1/mol]                                  6.02214179000000E+23
 Boltzmann constant [J/K]                                   1.38065040000000E-23
 Atomic mass unit [kg]                                      1.66053878200000E-27
 Bohr radius [m]                                            5.29177208590000E-11

 *** Conversion factors ***

 [u] -> [a.u.]                                              1.82288848426455E+03
 [Angstrom] -> [Bohr] = [a.u.]                              1.88972613288564E+00
 [a.u.] = [Bohr] -> [Angstrom]                              5.29177208590000E-01
 [a.u.] -> [s]                                              2.41888432650478E-17
 [a.u.] -> [fs]                                             2.41888432650478E-02
 [a.u.] -> [J]                                              4.35974393937059E-18
 [a.u.] -> [N]                                              8.23872205491840E-08
 [a.u.] -> [K]                                              3.15774647902944E+05
 [a.u.] -> [kJ/mol]                                         2.62549961709828E+03
 [a.u.] -> [kcal/mol]                                       6.27509468713739E+02
 [a.u.] -> [Pa]                                             2.94210107994716E+13
 [a.u.] -> [bar]                                            2.94210107994716E+08
 [a.u.] -> [atm]                                            2.90362800883016E+08
 [a.u.] -> [eV]                                             2.72113838565563E+01
 [a.u.] -> [Hz]                                             6.57968392072181E+15
 [a.u.] -> [1/cm] (wave numbers)                            2.19474631370540E+05
 [a.u./Bohr**2] -> [1/cm]                                   5.14048714338585E+03
 

 CELL_TOP| Volume [angstrom^3]:                                      2357.480286
 CELL_TOP| Vector a [angstrom     8.336     0.000     0.000   |a| =     8.336000
 CELL_TOP| Vector b [angstrom     0.000     8.336     0.000   |b| =     8.336000
 CELL_TOP| Vector c [angstrom     0.000     0.000    33.926   |c| =    33.926000
 CELL_TOP| Angle (b,c), alpha [degree]:                                90.000000
 CELL_TOP| Angle (a,c), beta  [degree]:                                90.000000
 CELL_TOP| Angle (a,b), gamma [degree]:                                90.000000
 CELL_TOP| Numerically orthorhombic:                                         YES
 CELL_TOP| Periodicity                                                       XYZ

 GENERATE|  Preliminary Number of Bonds generated:                             0
 GENERATE|  Achieved consistency in connectivity generation.

 CELL| Volume [angstrom^3]:                                          2357.480286
 CELL| Vector a [angstrom]:       8.336     0.000     0.000   |a| =     8.336000
 CELL| Vector b [angstrom]:       0.000     8.336     0.000   |b| =     8.336000
 CELL| Vector c [angstrom]:       0.000     0.000    33.926   |c| =    33.926000
 CELL| Angle (b,c), alpha [degree]:                                    90.000000
 CELL| Angle (a,c), beta  [degree]:                                    90.000000
 CELL| Angle (a,b), gamma [degree]:                                    90.000000
 CELL| Numerically orthorhombic:                                             YES
 CELL| Periodicity                                                           XYZ

 CELL_REF| Volume [angstrom^3]:                                      2357.480286
 CELL_REF| Vector a [angstrom     8.336     0.000     0.000   |a| =     8.336000
 CELL_REF| Vector b [angstrom     0.000     8.336     0.000   |b| =     8.336000
 CELL_REF| Vector c [angstrom     0.000     0.000    33.926   |c| =    33.926000
 CELL_REF| Angle (b,c), alpha [degree]:                                90.000000
 CELL_REF| Angle (a,c), beta  [degree]:                                90.000000
 CELL_REF| Angle (a,b), gamma [degree]:                                90.000000
 CELL_REF| Numerically orthorhombic:                                         YES
 CELL_REF| Periodicity                                                       XYZ

 *******************************************************************************
 *******************************************************************************
 **                                                                           **
 **     #####                         ##              ##                      **
 **    ##   ##            ##          ##              ##                      **
 **   ##     ##                       ##            ######                    **
 **   ##     ##  ##   ##  ##   #####  ##  ##   ####   ##    #####    #####    **
 **   ##     ##  ##   ##  ##  ##      ## ##   ##      ##   ##   ##  ##   ##   **
 **   ##  ## ##  ##   ##  ##  ##      ####     ###    ##   ######   ######    **
 **    ##  ###   ##   ##  ##  ##      ## ##      ##   ##   ##       ##        **
 **     #######   #####   ##   #####  ##  ##  ####    ##    #####   ##        **
 **           ##                                                    ##        **
 **                                                                           **
 **                                                ... make the atoms dance   **
 **                                                                           **
 **            Copyright (C) by CP2K developers group (2000-2022)             **
 **                      J. Chem. Phys. 152, 194103 (2020)                    **
 **                                                                           **
 *******************************************************************************

 DFT| Spin restricted Kohn-Sham (RKS) calculation                            RKS
 DFT| Multiplicity                                                             1
 DFT| Number of spin states                                                    1
 DFT| Charge                                                                   0
 DFT| Self-interaction correction (SIC)                                       NO
 DFT| Cutoffs: density                                              1.000000E-10
 DFT|          gradient                                             1.000000E-10
 DFT|          tau                                                  1.000000E-10
 DFT|          cutoff_smoothing_range                               0.000000E+00
 DFT| XC density smoothing                                                  NONE
 DFT| XC derivatives                                                          PW

 FUNCTIONAL| PADE:
 FUNCTIONAL| S. Goedecker, M. Teter and J. Hutter, Phys. Rev. B 54, 1703 (1996) 


 QS| Method:                                                                 GPW
 QS| Density plane wave grid type                        NON-SPHERICAL FULLSPACE
 QS| Number of grid levels:                                                    4
 QS| Density cutoff [a.u.]:                                                200.0
 QS| Multi grid cutoff [a.u.]: 1) grid level                               200.0
 QS|                           2) grid level                                66.7
 QS|                           3) grid level                                22.2
 QS|                           4) grid level                                 7.4
 QS| Grid level progression factor:                                          3.0
 QS| Relative density cutoff [a.u.]:                                        20.0
 QS| Interaction thresholds: eps_pgf_orb:                                1.0E-05
 QS|                         eps_filter_matrix:                          0.0E+00
 QS|                         eps_core_charge:                            1.0E-12
 QS|                         eps_rho_gspace:                             1.0E-10
 QS|                         eps_rho_rspace:                             1.0E-10
 QS|                         eps_gvg_rspace:                             1.0E-05
 QS|                         eps_ppl:                                    1.0E-02
 QS|                         eps_ppnl:                                   1.0E-07


 ATOMIC KIND INFORMATION

  1. Atomic kind: Au                                    Number of atoms:     104

     Orbital Basis Set                                         SZV-MOLOPT-SR-GTH

       Number of orbital shell sets:                                           1
       Number of orbital shells:                                               3
       Number of primitive Cartesian functions:                                5
       Number of Cartesian basis functions:                                   10
       Number of spherical basis functions:                                    9
       Norm type:                                                              2

       Normalised Cartesian orbitals:

                        Set   Shell   Orbital            Exponent    Coefficient

                          1       1    2s                2.950008       0.074626
                                                         1.563057      -0.007898
                                                         0.666664      -0.297688
                                                         0.251083       0.136809
                                                         0.081714       0.088198

                          1       2    3px               2.950008       0.148824
                                                         1.563057       0.025430
                                                         0.666664      -0.123003
                                                         0.251083       0.033648
                                                         0.081714       0.059008
                          1       2    3py               2.950008       0.148824
                                                         1.563057       0.025430
                                                         0.666664      -0.123003
                                                         0.251083       0.033648
                                                         0.081714       0.059008
                          1       2    3pz               2.950008       0.148824
                                                         1.563057       0.025430
                                                         0.666664      -0.123003
                                                         0.251083       0.033648
                                                         0.081714       0.059008

                          1       3    4dx2              2.950008      -0.139595
                                                         1.563057       1.319655
                                                         0.666664       0.377081
                                                         0.251083       0.046872
                                                         0.081714       0.001393
                          1       3    4dxy              2.950008      -0.241786
                                                         1.563057       2.285709
                                                         0.666664       0.653124
                                                         0.251083       0.081185
                                                         0.081714       0.002412
                          1       3    4dxz              2.950008      -0.241786
                                                         1.563057       2.285709
                                                         0.666664       0.653124
                                                         0.251083       0.081185
                                                         0.081714       0.002412
                          1       3    4dy2              2.950008      -0.139595
                                                         1.563057       1.319655
                                                         0.666664       0.377081
                                                         0.251083       0.046872
                                                         0.081714       0.001393
                          1       3    4dyz              2.950008      -0.241786
                                                         1.563057       2.285709
                                                         0.666664       0.653124
                                                         0.251083       0.081185
                                                         0.081714       0.002412
                          1       3    4dz2              2.950008      -0.139595
                                                         1.563057       1.319655
                                                         0.666664       0.377081
                                                         0.251083       0.046872
                                                         0.081714       0.001393

       Atomic covalent radius [Angstrom]:                                  1.340

       Atomic van der Waals radius [Angstrom]:                             1.660

     GTH Potential information for                                  GTH-PADE-q11

       Description:                       Goedecker-Teter-Hutter pseudopotential
                                           Goedecker et al., PRB 54, 1703 (1996)
                                          Hartwigsen et al., PRB 58, 3641 (1998)
                                                      Krack, TCA 114, 145 (2005)

       Gaussian exponent of the core charge distribution:               1.436369
       Electronic configuration (s p d ...):                           1   0  10

       Parameters of the local part of the GTH pseudopotential:

                          rloc        C1          C2          C3          C4
                        0.590000   11.604428

       Parameters of the non-local part of the GTH pseudopotential:

                   l      r(l)      h(i,j,l)

                   0    0.521180    2.538614   -1.046137
                                   -1.046137    2.701113
                   1    0.630613    0.394853   -0.869592
                                   -0.869592    2.057831
                   2    0.440706   -4.719070    0.727771
                                    0.727771   -1.650429

  2. Atomic kind: S                                     Number of atoms:       2

     Orbital Basis Set                                         SZV-MOLOPT-SR-GTH

       Number of orbital shell sets:                                           1
       Number of orbital shells:                                               2
       Number of primitive Cartesian functions:                                4
       Number of Cartesian basis functions:                                    4
       Number of spherical basis functions:                                    4
       Norm type:                                                              2

       Normalised Cartesian orbitals:

                        Set   Shell   Orbital            Exponent    Coefficient

                          1       1    2s                2.215855       0.308496
                                                         1.131471       0.138505
                                                         0.410168      -0.373736
                                                         0.140587      -0.040370

                          1       2    3px               2.215855       0.420434
                                                         1.131471      -0.319283
                                                         0.410168      -0.335323
                                                         0.140587      -0.030976
                          1       2    3py               2.215855       0.420434
                                                         1.131471      -0.319283
                                                         0.410168      -0.335323
                                                         0.140587      -0.030976
                          1       2    3pz               2.215855       0.420434
                                                         1.131471      -0.319283
                                                         0.410168      -0.335323
                                                         0.140587      -0.030976

       Atomic covalent radius [Angstrom]:                                  1.020

       Atomic van der Waals radius [Angstrom]:                             1.800

     GTH Potential information for                                   GTH-PADE-q6

       Description:                       Goedecker-Teter-Hutter pseudopotential
                                           Goedecker et al., PRB 54, 1703 (1996)
                                          Hartwigsen et al., PRB 58, 3641 (1998)
                                                      Krack, TCA 114, 145 (2005)

       Gaussian exponent of the core charge distribution:               2.834467
       Electronic configuration (s p d ...):                               2   4

       Parameters of the local part of the GTH pseudopotential:

                          rloc        C1          C2          C3          C4
                        0.420000   -6.554492

       Parameters of the non-local part of the GTH pseudopotential:

                   l      r(l)      h(i,j,l)

                   0    0.361757    7.905303   -1.731881
                                   -1.731881    4.471698
                   1    0.405285    3.866579

  3. Atomic kind: C                                     Number of atoms:       6

     Orbital Basis Set                                         SZV-MOLOPT-SR-GTH

       Number of orbital shell sets:                                           1
       Number of orbital shells:                                               2
       Number of primitive Cartesian functions:                                5
       Number of Cartesian basis functions:                                    4
       Number of spherical basis functions:                                    4
       Norm type:                                                              2

       Normalised Cartesian orbitals:

                        Set   Shell   Orbital            Exponent    Coefficient

                          1       1    2s                5.605331       0.322515
                                                         2.113016       0.213043
                                                         0.769911      -0.209686
                                                         0.348157      -0.219794
                                                         0.128212      -0.022789

                          1       2    3px               5.605331      -0.703879
                                                         2.113016      -0.642521
                                                         0.769911      -0.374851
                                                         0.348157      -0.139743
                                                         0.128212      -0.027849
                          1       2    3py               5.605331      -0.703879
                                                         2.113016      -0.642521
                                                         0.769911      -0.374851
                                                         0.348157      -0.139743
                                                         0.128212      -0.027849
                          1       2    3pz               5.605331      -0.703879
                                                         2.113016      -0.642521
                                                         0.769911      -0.374851
                                                         0.348157      -0.139743
                                                         0.128212      -0.027849

       Atomic covalent radius [Angstrom]:                                  0.770

       Atomic van der Waals radius [Angstrom]:                             1.700

     GTH Potential information for                                   GTH-PADE-q4

       Description:                       Goedecker-Teter-Hutter pseudopotential
                                           Goedecker et al., PRB 54, 1703 (1996)
                                          Hartwigsen et al., PRB 58, 3641 (1998)
                                                      Krack, TCA 114, 145 (2005)

       Gaussian exponent of the core charge distribution:               4.109048
       Electronic configuration (s p d ...):                               2   2

       Parameters of the local part of the GTH pseudopotential:

                          rloc        C1          C2          C3          C4
                        0.348830   -8.513771    1.228432

       Parameters of the non-local part of the GTH pseudopotential:

                   l      r(l)      h(i,j,l)

                   0    0.304553    9.522842
                   1    0.232677

  4. Atomic kind: H                                     Number of atoms:       4

     Orbital Basis Set                                         SZV-MOLOPT-SR-GTH

       Number of orbital shell sets:                                           1
       Number of orbital shells:                                               1
       Number of primitive Cartesian functions:                                5
       Number of Cartesian basis functions:                                    1
       Number of spherical basis functions:                                    1
       Norm type:                                                              2

       Normalised Cartesian orbitals:

                        Set   Shell   Orbital            Exponent    Coefficient

                          1       1    2s               10.068468      -0.133023
                                                         2.680223      -0.177618
                                                         0.791502      -0.258419
                                                         0.239116      -0.107525
                                                         0.082193      -0.014019

       Atomic covalent radius [Angstrom]:                                  0.320

       Atomic van der Waals radius [Angstrom]:                             1.090

     GTH Potential information for                                   GTH-PADE-q1

       Description:                       Goedecker-Teter-Hutter pseudopotential
                                           Goedecker et al., PRB 54, 1703 (1996)
                                          Hartwigsen et al., PRB 58, 3641 (1998)
                                                      Krack, TCA 114, 145 (2005)

       Gaussian exponent of the core charge distribution:              12.500000
       Electronic configuration (s p d ...):                                   1

       Parameters of the local part of the GTH pseudopotential:

                          rloc        C1          C2          C3          C4
                        0.200000   -4.180237    0.725075


 MOLECULE KIND INFORMATION


 All atoms are their own molecule, skipping detailed information


 TOTAL NUMBERS AND MAXIMUM NUMBERS

  Total number of            - Atomic kinds:                                   4
                             - Atoms:                                        116
                             - Shell sets:                                   116
                             - Shells:                                       332
                             - Primitive Cartesian functions:                578
                             - Cartesian basis functions:                   1076
                             - Spherical basis functions:                    972

  Maximum angular momentum of- Orbital basis functions:                        2
                             - Local part of the GTH pseudopotential:          2
                             - Non-local part of the GTH pseudopotential:      4


 MODULE QUICKSTEP: ATOMIC COORDINATES IN ANGSTROM

   Atom Kind Element         X             Y             Z       Z(eff)     Mass
      1    1 Au   79      0.000000      0.000000      0.000000  11.0000 196.9666
      2    1 Au   79      0.000000      4.168000      0.000000  11.0000 196.9666
      3    1 Au   79      2.084000      2.084000      0.000000  11.0000 196.9666
      4    1 Au   79      2.084000      6.252000      0.000000  11.0000 196.9666
      5    1 Au   79      4.168000      0.000000      0.000000  11.0000 196.9666
      6    1 Au   79      4.168000      4.168000      0.000000  11.0000 196.9666
      7    1 Au   79      6.252000      2.084000      0.000000  11.0000 196.9666
      8    1 Au   79      6.252000      6.252000      0.000000  11.0000 196.9666
      9    1 Au   79      0.000000      2.084000      2.084000  11.0000 196.9666
     10    1 Au   79      0.000000      6.252000      2.084000  11.0000 196.9666
     11    1 Au   79      2.084000      0.000000      2.084000  11.0000 196.9666
     12    1 Au   79      2.084000      4.168000      2.084000  11.0000 196.9666
     13    1 Au   79      4.168000      2.084000      2.084000  11.0000 196.9666
     14    1 Au   79      4.168000      6.252000      2.084000  11.0000 196.9666
     15    1 Au   79      6.252000      0.000000      2.084000  11.0000 196.9666
     16    1 Au   79      6.252000      4.168000      2.084000  11.0000 196.9666
     17    1 Au   79      0.000000      0.000000      4.168000  11.0000 196.9666
     18    1 Au   79      0.000000      4.168000      4.168000  11.0000 196.9666
     19    1 Au   79      2.084000      2.084000      4.168000  11.0000 196.9666
     20    1 Au   79      2.084000      6.252000      4.168000  11.0000 196.9666
     21    1 Au   79      4.168000      0.000000      4.168000  11.0000 196.9666
     22    1 Au   79      4.168000      4.168000      4.168000  11.0000 196.9666
     23    1 Au   79      6.252000      2.084000      4.168000  11.0000 196.9666
     24    1 Au   79      6.252000      6.252000      4.168000  11.0000 196.9666
     25    1 Au   79      0.000000      2.084000      6.252000  11.0000 196.9666
     26    1 Au   79      0.000000      6.252000      6.252000  11.0000 196.9666
     27    1 Au   79      2.084000      0.000000      6.252000  11.0000 196.9666
     28    1 Au   79      2.084000      4.168000      6.252000  11.0000 196.9666
     29    1 Au   79      4.168000      2.084000      6.252000  11.0000 196.9666
     30    1 Au   79      4.168000      6.252000      6.252000  11.0000 196.9666
     31    1 Au   79      6.252000      0.000000      6.252000  11.0000 196.9666
     32    1 Au   79      6.252000      4.168000      6.252000  11.0000 196.9666
     33    1 Au   79      0.000000      0.000000      8.336000  11.0000 196.9666
     34    1 Au   79      0.000000      4.168000      8.336000  11.0000 196.9666
     35    1 Au   79      2.084000      2.084000      8.336000  11.0000 196.9666
     36    1 Au   79      2.084000      6.252000      8.336000  11.0000 196.9666
     37    1 Au   79      4.168000      0.000000      8.336000  11.0000 196.9666
     38    1 Au   79      4.168000      4.168000      8.336000  11.0000 196.9666
     39    1 Au   79      6.252000      2.084000      8.336000  11.0000 196.9666
     40    1 Au   79      6.252000      6.252000      8.336000  11.0000 196.9666
     41    1 Au   79      0.000000      2.084000     10.420000  11.0000 196.9666
     42    1 Au   79      0.000000      6.252000     10.420000  11.0000 196.9666
     43    1 Au   79      2.084000      0.000000     10.420000  11.0000 196.9666
     44    1 Au   79      2.084000      4.168000     10.420000  11.0000 196.9666
     45    1 Au   79      4.168000      2.084000     10.420000  11.0000 196.9666
     46    1 Au   79      4.168000      6.252000     10.420000  11.0000 196.9666
     47    1 Au   79      6.252000      0.000000     10.420000  11.0000 196.9666
     48    1 Au   79      6.252000      4.168000     10.420000  11.0000 196.9666
     49    1 Au   79      0.000000      0.000000     12.504000  11.0000 196.9666
     50    1 Au   79      0.000000      4.168000     12.504000  11.0000 196.9666
     51    1 Au   79      2.084000      2.084000     12.504000  11.0000 196.9666
     52    1 Au   79      2.084000      6.252000     12.504000  11.0000 196.9666
     53    1 Au   79      4.168000      0.000000     12.504000  11.0000 196.9666
     54    1 Au   79      4.168000      4.168000     12.504000  11.0000 196.9666
     55    1 Au   79      6.252000      2.084000     12.504000  11.0000 196.9666
     56    1 Au   79      6.252000      6.252000     12.504000  11.0000 196.9666
     57    2 S    16      4.171000      2.086000     13.790000   6.0000  32.0650
     58    3 C     6      4.175000      2.089000     15.551000   4.0000  12.0107
     59    4 H     1      2.073000      2.116000     15.734000   1.0000   1.0079
     60    4 H     1      6.269000      2.116000     15.740000   1.0000   1.0079
     61    3 C     6      2.965000      2.095000     16.251000   4.0000  12.0107
     62    3 C     6      5.373000      2.095000     16.251000   4.0000  12.0107
     63    3 C     6      2.959000      2.074000     17.674000   4.0000  12.0107
     64    3 C     6      5.367000      2.074000     17.674000   4.0000  12.0107
     65    4 H     1      2.063000      2.053000     18.186000   1.0000   1.0079
     66    4 H     1      6.259000      2.053000     18.192000   1.0000   1.0079
     67    3 C     6      4.157000      2.080000     18.375000   4.0000  12.0107
     68    2 S    16      4.171000      2.086000     20.136000   6.0000  32.0650
     69    1 Au   79      0.000000      0.000000     21.422000  11.0000 196.9666
     70    1 Au   79      0.000000      4.168000     21.422000  11.0000 196.9666
     71    1 Au   79      2.084000      2.084000     21.422000  11.0000 196.9666
     72    1 Au   79      2.084000      6.252000     21.422000  11.0000 196.9666
     73    1 Au   79      4.168000      0.000000     21.422000  11.0000 196.9666
     74    1 Au   79      4.168000      4.168000     21.422000  11.0000 196.9666
     75    1 Au   79      6.252000      2.084000     21.422000  11.0000 196.9666
     76    1 Au   79      6.252000      6.252000     21.422000  11.0000 196.9666
     77    1 Au   79      0.000000      2.084000     23.506000  11.0000 196.9666
     78    1 Au   79      0.000000      6.252000     23.506000  11.0000 196.9666
     79    1 Au   79      2.084000      0.000000     23.506000  11.0000 196.9666
     80    1 Au   79      2.084000      4.168000     23.506000  11.0000 196.9666
     81    1 Au   79      4.168000      2.084000     23.506000  11.0000 196.9666
     82    1 Au   79      4.168000      6.252000     23.506000  11.0000 196.9666
     83    1 Au   79      6.252000      0.000000     23.506000  11.0000 196.9666
     84    1 Au   79      6.252000      4.168000     23.506000  11.0000 196.9666
     85    1 Au   79      0.000000      0.000000     25.590000  11.0000 196.9666
     86    1 Au   79      0.000000      4.168000     25.590000  11.0000 196.9666
     87    1 Au   79      2.084000      2.084000     25.590000  11.0000 196.9666
     88    1 Au   79      2.084000      6.252000     25.590000  11.0000 196.9666
     89    1 Au   79      4.168000      0.000000     25.590000  11.0000 196.9666
     90    1 Au   79      4.168000      4.168000     25.590000  11.0000 196.9666
     91    1 Au   79      6.252000      2.084000     25.590000  11.0000 196.9666
     92    1 Au   79      6.252000      6.252000     25.590000  11.0000 196.9666
     93    1 Au   79      0.000000      2.084000     27.674000  11.0000 196.9666
     94    1 Au   79      0.000000      6.252000     27.674000  11.0000 196.9666
     95    1 Au   79      2.084000      0.000000     27.674000  11.0000 196.9666
     96    1 Au   79      2.084000      4.168000     27.674000  11.0000 196.9666
     97    1 Au   79      4.168000      2.084000     27.674000  11.0000 196.9666
     98    1 Au   79      4.168000      6.252000     27.674000  11.0000 196.9666
     99    1 Au   79      6.252000      0.000000     27.674000  11.0000 196.9666
    100    1 Au   79      6.252000      4.168000     27.674000  11.0000 196.9666
    101    1 Au   79      0.000000      0.000000     29.758000  11.0000 196.9666
    102    1 Au   79      0.000000      4.168000     29.758000  11.0000 196.9666
    103    1 Au   79      2.084000      2.084000     29.758000  11.0000 196.9666
    104    1 Au   79      2.084000      6.252000     29.758000  11.0000 196.9666
    105    1 Au   79      4.168000      0.000000     29.758000  11.0000 196.9666
    106    1 Au   79      4.168000      4.168000     29.758000  11.0000 196.9666
    107    1 Au   79      6.252000      2.084000     29.758000  11.0000 196.9666
    108    1 Au   79      6.252000      6.252000     29.758000  11.0000 196.9666
    109    1 Au   79      0.000000      2.084000     31.842000  11.0000 196.9666
    110    1 Au   79      0.000000      6.252000     31.842000  11.0000 196.9666
    111    1 Au   79      2.084000      0.000000     31.842000  11.0000 196.9666
    112    1 Au   79      2.084000      4.168000     31.842000  11.0000 196.9666
    113    1 Au   79      4.168000      2.084000     31.842000  11.0000 196.9666
    114    1 Au   79      4.168000      6.252000     31.842000  11.0000 196.9666
    115    1 Au   79      6.252000      0.000000     31.842000  11.0000 196.9666
    116    1 Au   79      6.252000      4.168000     31.842000  11.0000 196.9666



 SCF PARAMETERS         Density guess:                                    ATOMIC
                        --------------------------------------------------------
                        max_scf:                                             100
                        max_scf_history:                                       0
                        max_diis:                                              4
                        --------------------------------------------------------
                        eps_scf:                                        1.00E-07
                        eps_scf_history:                                0.00E+00
                        eps_diis:                                       1.00E-01
                        eps_eigval:                                     1.00E-05
                        --------------------------------------------------------
                        level_shift [a.u.]:                             0.000000
                        added MOs                                       100    0
                        --------------------------------------------------------
                        Mixing method:                            BROYDEN_MIXING
                                                charge density mixing in g-space
                        --------------------------------------------------------
                        Smear method:                                FERMI_DIRAC
                        Electronic temperature [K]:                        293.0
                        Electronic temperature [a.u.]:                  9.28E-04
                        Accuracy threshold:                             1.00E-10
                        --------------------------------------------------------
                        No outer SCF

 PW_GRID| Information for grid number                                          1
 PW_GRID| Grid distributed over                                   240 processors
 PW_GRID| Real space group dimensions                                    12   20
 PW_GRID| the grid is blocked:                                               YES
 PW_GRID| Cutoff [a.u.]                                                    200.0
 PW_GRID| spherical cutoff:                                                   NO
 PW_GRID|   Bounds   1            -52      52                Points:         105
 PW_GRID|   Bounds   2            -52      52                Points:         105
 PW_GRID|   Bounds   3           -210     209                Points:         420
 PW_GRID| Volume element (a.u.^3)  0.3436E-02     Volume (a.u.^3)     15909.0657
 PW_GRID| Grid span                                                    FULLSPACE
 PW_GRID|   Distribution                         Average         Max         Min
 PW_GRID|   G-Vectors                            19293.8       19845       17640
 PW_GRID|   G-Rays                                 183.8         189         168
 PW_GRID|   Real Space Points                    19293.8       19845       17640

 PW_GRID| Information for grid number                                          2
 PW_GRID| Number of the reference grid                                         1
 PW_GRID| Grid distributed over                                   240 processors
 PW_GRID| Real space group dimensions                                    12   20
 PW_GRID| the grid is blocked:                                                NO
 PW_GRID| Cutoff [a.u.]                                                     66.7
 PW_GRID| spherical cutoff:                                                   NO
 PW_GRID|   Bounds   1            -30      29                Points:          60
 PW_GRID|   Bounds   2            -30      29                Points:          60
 PW_GRID|   Bounds   3           -120     119                Points:         240
 PW_GRID| Volume element (a.u.^3)  0.1841E-01     Volume (a.u.^3)     15909.0657
 PW_GRID| Grid span                                                    FULLSPACE
 PW_GRID|   Distribution                         Average         Max         Min
 PW_GRID|   G-Vectors                             3600.0       11340           0
 PW_GRID|   G-Rays                                  60.0         189           0
 PW_GRID|   Real Space Points                     3600.0        3600        3600

 PW_GRID| Information for grid number                                          3
 PW_GRID| Number of the reference grid                                         1
 PW_GRID| Grid distributed over                                   240 processors
 PW_GRID| Real space group dimensions                                    12   20
 PW_GRID| the grid is blocked:                                                NO
 PW_GRID| Cutoff [a.u.]                                                     22.2
 PW_GRID| spherical cutoff:                                                   NO
 PW_GRID|   Bounds   1            -16      16                Points:          33
 PW_GRID|   Bounds   2            -16      16                Points:          33
 PW_GRID|   Bounds   3            -70      69                Points:         140
 PW_GRID| Volume element (a.u.^3)  0.1043         Volume (a.u.^3)     15909.0657
 PW_GRID| Grid span                                                    FULLSPACE
 PW_GRID|   Distribution                         Average         Max         Min
 PW_GRID|   G-Vectors                              635.2        6237           0
 PW_GRID|   G-Rays                                  19.2         189           0
 PW_GRID|   Real Space Points                      635.2         840         280

 PW_GRID| Information for grid number                                          4
 PW_GRID| Number of the reference grid                                         1
 PW_GRID| Grid distributed over                                   240 processors
 PW_GRID| Real space group dimensions                                    12   20
 PW_GRID| the grid is blocked:                                                NO
 PW_GRID| Cutoff [a.u.]                                                      7.4
 PW_GRID| spherical cutoff:                                                   NO
 PW_GRID|   Bounds   1            -10       9                Points:          20
 PW_GRID|   Bounds   2            -10       9                Points:          20
 PW_GRID|   Bounds   3            -40      39                Points:          80
 PW_GRID| Volume element (a.u.^3)  0.4972         Volume (a.u.^3)     15909.0657
 PW_GRID| Grid span                                                    FULLSPACE
 PW_GRID|   Distribution                         Average         Max         Min
 PW_GRID|   G-Vectors                              133.3        3780           0
 PW_GRID|   G-Rays                                   6.7         189           0
 PW_GRID|   Real Space Points                      133.3         160          80

 POISSON| Solver                                                        PERIODIC
 POISSON| Periodicity                                                        XYZ

 RS_GRID| Information for grid number                                          1
 RS_GRID|   Bounds   1            -52      52                Points:         105
 RS_GRID|   Bounds   2            -52      52                Points:         105
 RS_GRID|   Bounds   3           -210     209                Points:         420
 RS_GRID| Real space distribution over                                  8 groups
 RS_GRID| Real space distribution along direction                              2
 RS_GRID| Border size                                                         30
 RS_GRID| Real space distribution over                                 30 groups
 RS_GRID| Real space distribution along direction                              3
 RS_GRID| Border size                                                         30
 RS_GRID|   Distribution                         Average         Max         Min
 RS_GRID|   Planes                                  73.1          74          73
 RS_GRID|   Distribution                         Average         Max         Min
 RS_GRID|   Planes                                  74.0          74          74

 RS_GRID| Information for grid number                                          2
 RS_GRID|   Bounds   1            -30      29                Points:          60
 RS_GRID|   Bounds   2            -30      29                Points:          60
 RS_GRID|   Bounds   3           -120     119                Points:         240
 RS_GRID| Real space distribution over                                  8 groups
 RS_GRID| Real space distribution along direction                              2
 RS_GRID| Border size                                                         21
 RS_GRID| Real space distribution over                                 30 groups
 RS_GRID| Real space distribution along direction                              3
 RS_GRID| Border size                                                         21
 RS_GRID|   Distribution                         Average         Max         Min
 RS_GRID|   Planes                                  49.5          50          49
 RS_GRID|   Distribution                         Average         Max         Min
 RS_GRID|   Planes                                  50.0          50          50

 RS_GRID| Information for grid number                                          3
 RS_GRID|   Bounds   1            -16      16                Points:          33
 RS_GRID|   Bounds   2            -16      16                Points:          33
 RS_GRID|   Bounds   3            -70      69                Points:         140
 RS_GRID| Real space fully replicated
 RS_GRID| Group size                                                           1

 RS_GRID| Information for grid number                                          4
 RS_GRID|   Bounds   1            -10       9                Points:          20
 RS_GRID|   Bounds   2            -10       9                Points:          20
 RS_GRID|   Bounds   3            -40      39                Points:          80
 RS_GRID| Real space fully replicated
 RS_GRID| Group size                                                           1

 Number of electrons:                                                       1184
 Number of occupied orbitals:                                                592
 Number of molecular orbitals:                                               692

 Number of orbital functions:                                                972
 Number of independent orbital functions:                                    972

 Extrapolation method: initial_guess

 Atomic guess: The first density matrix is obtained in terms of atomic orbitals
               and electronic configurations assigned to each atomic kind

 Guess for atomic kind: Au

 Electronic structure
    Total number of core electrons                                         68.00
    Total number of valence electrons                                      11.00
    Total number of electrons                                              79.00
    Multiplicity                                                   not specified
    S   [  2.00  2.00  2.00  2.00  2.00] 1.00
    P   [  6.00  6.00  6.00  6.00]
    D   [ 10.00 10.00]10.00
    F   [ 14.00]


 *******************************************************************************
                  Iteration          Convergence                     Energy [au]
 *******************************************************************************
                          1         0.00000                     -33.033218197848

 Energy components [Hartree]           Total Energy ::          -33.033218197848
                                        Band Energy ::           -1.147505983145
                                     Kinetic Energy ::           24.744064437587
                                   Potential Energy ::          -57.777282635435
                                      Virial (-V/T) ::            2.334995642336
                                        Core Energy ::          -60.197309615488
                                          XC Energy ::           -5.116883226844
                                     Coulomb Energy ::           32.280974644483
                       Total Pseudopotential Energy ::          -85.042885173964
                       Local Pseudopotential Energy ::          -66.341694915099
                    Nonlocal Pseudopotential Energy ::          -18.701190258865
                                        Confinement ::            1.015111208892

 Orbital energies  State     L     Occupation   Energy[a.u.]          Energy[eV]

                       1     0          1.000      -0.213792           -5.817572

                       1     2         10.000      -0.093371           -2.540765


 Total Electron Density at R=0:                                         0.000035

 Guess for atomic kind: S

 Electronic structure
    Total number of core electrons                                         10.00
    Total number of valence electrons                                       6.00
    Total number of electrons                                              16.00
    Multiplicity                                                   not specified
    S   [  2.00  2.00] 2.00
    P   [  6.00] 4.00


 *******************************************************************************
                  Iteration          Convergence                     Energy [au]
 *******************************************************************************
                          1         0.00000                      -9.853460757856

 Energy components [Hartree]           Total Energy ::           -9.853460757856
                                        Band Energy ::           -2.356337656970
                                     Kinetic Energy ::            4.823553161963
                                   Potential Energy ::          -14.677013919818
                                      Virial (-V/T) ::            3.042780586634
                                        Core Energy ::          -17.027141804256
                                          XC Energy ::           -2.306120006027
                                     Coulomb Energy ::            9.479801052427
                       Total Pseudopotential Energy ::          -21.894561428820
                       Local Pseudopotential Energy ::          -24.454849976053
                    Nonlocal Pseudopotential Energy ::            2.560288547233
                                        Confinement ::            0.438664626013

 Orbital energies  State     L     Occupation   Energy[a.u.]          Energy[eV]

                       1     0          2.000      -0.651558          -17.729806

                       1     1          4.000      -0.263305           -7.164899


 Total Electron Density at R=0:                                         0.002164

 Guess for atomic kind: C

 Electronic structure
    Total number of core electrons                                          2.00
    Total number of valence electrons                                       4.00
    Total number of electrons                                               6.00
    Multiplicity                                                   not specified
    S   [  2.00] 2.00
    P      2.00


 *******************************************************************************
                  Iteration          Convergence                     Energy [au]
 *******************************************************************************
                          1         0.00000                      -5.203769106903

 Energy components [Hartree]           Total Energy ::           -5.203769106903
                                        Band Energy ::           -1.102062531975
                                     Kinetic Energy ::            4.436946353555
                                   Potential Energy ::           -9.640715460459
                                      Virial (-V/T) ::            2.172826690306
                                        Core Energy ::           -8.622900759898
                                          XC Energy ::           -1.549179882233
                                     Coulomb Energy ::            4.968311535227
                       Total Pseudopotential Energy ::          -13.085360153352
                       Local Pseudopotential Energy ::          -13.648615018058
                    Nonlocal Pseudopotential Energy ::            0.563254864706
                                        Confinement ::            0.255130398990

 Orbital energies  State     L     Occupation   Energy[a.u.]          Energy[eV]

                       1     0          2.000      -0.416370          -11.330000

                       1     1          2.000      -0.134661           -3.664323


 Total Electron Density at R=0:                                         0.013874

 Guess for atomic kind: H

 Electronic structure
    Total number of core electrons                                          0.00
    Total number of valence electrons                                       1.00
    Total number of electrons                                               1.00
    Multiplicity                                                   not specified
    S      1.00


 *******************************************************************************
                  Iteration          Convergence                     Energy [au]
 *******************************************************************************
                          1         0.00000                      -0.372474116344

 Energy components [Hartree]           Total Energy ::           -0.372474116344
                                        Band Energy ::           -0.184689713228
                                     Kinetic Energy ::            0.795946116619
                                   Potential Energy ::           -1.168420232963
                                      Virial (-V/T) ::            1.467963984706
                                        Core Energy ::           -0.452545141516
                                          XC Energy ::           -0.314416247311
                                     Coulomb Energy ::            0.394487272483
                       Total Pseudopotential Energy ::           -1.259976600556
                       Local Pseudopotential Energy ::           -1.259976600556
                    Nonlocal Pseudopotential Energy ::            0.000000000000
                                        Confinement ::            0.114853424211

 Orbital energies  State     L     Occupation   Energy[a.u.]          Energy[eV]

                       1     0          1.000      -0.184690           -5.025663


 Total Electron Density at R=0:                                         0.476934
 Re-scaling the density matrix to get the right number of electrons
                  # Electrons              Trace(P)               Scaling factor
                         1184              1184.023                        1.000


 SCF WAVEFUNCTION OPTIMIZATION

  Step     Update method      Time    Convergence         Total energy    Change
  ------------------------------------------------------------------------------
     1 NoMix/Diag. 0.30E+00    0.2     1.34449148     -3517.9060183176 -3.52E+03
     2 Broy./Diag. 0.30E+00    0.3     0.59842791     -3601.3970663814 -8.35E+01
     3 Broy./Diag. 0.30E+00    0.3     0.52408792     -3562.8620883766  3.85E+01
     4 Broy./Diag. 0.30E+00    0.3     0.53482144     -3535.7618343224  2.71E+01
     5 Broy./Diag. 0.30E+00    0.3     0.18170227     -3524.8140979796  1.09E+01
     6 Broy./Diag. 0.30E+00    0.2     0.12397471     -3520.7115461668  4.10E+00
     7 Broy./Diag. 0.30E+00    0.3     0.08853341     -3519.1812700896  1.53E+00
     8 Broy./Diag. 0.30E+00    0.2     0.06277067     -3517.9334185751  1.25E+00
     9 Broy./Diag. 0.30E+00    0.2     0.06221673     -3517.5914735625  3.42E-01
    10 Broy./Diag. 0.30E+00    0.2     0.05354699     -3517.5260736275  6.54E-02
    11 Broy./Diag. 0.30E+00    0.2     0.04156520     -3517.5910503253 -6.50E-02
    12 Broy./Diag. 0.30E+00    0.2     0.01702719     -3517.5008683240  9.02E-02
    13 Broy./Diag. 0.30E+00    0.2     0.01681728     -3517.5109292873 -1.01E-02
    14 Broy./Diag. 0.30E+00    0.2     0.01196884     -3517.5879989885 -7.71E-02
    15 Broy./Diag. 0.30E+00    0.2     0.00457186     -3517.6384973340 -5.05E-02
    16 Broy./Diag. 0.30E+00    0.2     0.00443629     -3517.6197609772  1.87E-02
    17 Broy./Diag. 0.30E+00    0.2     0.00372579     -3517.6235335461 -3.77E-03
    18 Broy./Diag. 0.30E+00    0.2     0.00154960     -3517.6331818414 -9.65E-03
    19 Broy./Diag. 0.30E+00    0.2     0.00245933     -3517.6366732908 -3.49E-03
    20 Broy./Diag. 0.30E+00    0.2     0.00269394     -3517.6333474277  3.33E-03
    21 Broy./Diag. 0.30E+00    0.3     0.00101889     -3517.6312179128  2.13E-03
    22 Broy./Diag. 0.30E+00    0.2     0.00078506     -3517.6266021293  4.62E-03
    23 Broy./Diag. 0.30E+00    0.2     0.00081740     -3517.6266019671  1.62E-07
    24 Broy./Diag. 0.30E+00    0.2     0.00072407     -3517.6262708072  3.31E-04
    25 Broy./Diag. 0.30E+00    0.2     0.00055749     -3517.6230268171  3.24E-03
    26 Broy./Diag. 0.30E+00    0.2     0.00042012     -3517.6208740303  2.15E-03
    27 Broy./Diag. 0.30E+00    0.2     0.00073162     -3517.6210251319 -1.51E-04
    28 Broy./Diag. 0.30E+00    0.2     0.00054469     -3517.6199927289  1.03E-03
    29 Broy./Diag. 0.30E+00    0.2     0.00030257     -3517.6209030010 -9.10E-04
    30 Broy./Diag. 0.30E+00    0.2     0.00030577     -3517.6200561705  8.47E-04
    31 Broy./Diag. 0.30E+00    0.2     0.00017566     -3517.6199554531  1.01E-04
    32 Broy./Diag. 0.30E+00    0.2     0.00007188     -3517.6197924731  1.63E-04
    33 Broy./Diag. 0.30E+00    0.2     0.00013014     -3517.6197052776  8.72E-05
    34 Broy./Diag. 0.30E+00    0.3     0.00011256     -3517.6198674083 -1.62E-04
    35 Broy./Diag. 0.30E+00    0.2     0.00008109     -3517.6194389277  4.28E-04
    36 Broy./Diag. 0.30E+00    0.2     0.00007201     -3517.6192512069  1.88E-04
    37 Broy./Diag. 0.30E+00    0.2     0.00003739     -3517.6191945644  5.66E-05
    38 Broy./Diag. 0.30E+00    0.2     0.00004319     -3517.6191554274  3.91E-05
    39 Broy./Diag. 0.30E+00    0.2     0.00004836     -3517.6192594076 -1.04E-04
    40 Broy./Diag. 0.30E+00    0.2     0.00005701     -3517.6191217314  1.38E-04
    41 Broy./Diag. 0.30E+00    0.2     0.00004593     -3517.6190842789  3.75E-05
    42 Broy./Diag. 0.30E+00    0.2     0.00001356     -3517.6190520500  3.22E-05
    43 Broy./Diag. 0.30E+00    0.2     0.00002132     -3517.6190726684 -2.06E-05
    44 Broy./Diag. 0.30E+00    0.2     0.00001824     -3517.6191213995 -4.87E-05
    45 Broy./Diag. 0.30E+00    0.2     0.00000885     -3517.6190893190  3.21E-05
    46 Broy./Diag. 0.30E+00    0.2     0.00000650     -3517.6190984022 -9.08E-06
    47 Broy./Diag. 0.30E+00    0.3     0.00000632     -3517.6191159614 -1.76E-05
    48 Broy./Diag. 0.30E+00    0.2     0.00001385     -3517.6191401518 -2.42E-05
    49 Broy./Diag. 0.30E+00    0.2     0.00001190     -3517.6191805620 -4.04E-05
    50 Broy./Diag. 0.30E+00    0.2     0.00000736     -3517.6191595900  2.10E-05
    51 Broy./Diag. 0.30E+00    0.2     0.00000571     -3517.6191654225 -5.83E-06
    52 Broy./Diag. 0.30E+00    0.2     0.00000230     -3517.6191728870 -7.46E-06
    53 Broy./Diag. 0.30E+00    0.2     0.00000396     -3517.6191793912 -6.50E-06
    54 Broy./Diag. 0.30E+00    0.2     0.00000303     -3517.6191883186 -8.93E-06
    55 Broy./Diag. 0.30E+00    0.2     0.00000242     -3517.6191821076  6.21E-06
    56 Broy./Diag. 0.30E+00    0.2     0.00000152     -3517.6191872170 -5.11E-06
    57 Broy./Diag. 0.30E+00    0.2     0.00000165     -3517.6191919571 -4.74E-06
    58 Broy./Diag. 0.30E+00    0.2     0.00000109     -3517.6191956837 -3.73E-06
    59 Broy./Diag. 0.30E+00    0.2     0.00000127     -3517.6191982083 -2.52E-06
    60 Broy./Diag. 0.30E+00    0.2     0.00000109     -3517.6191947260  3.48E-06
    61 Broy./Diag. 0.30E+00    0.2     0.00000082     -3517.6191973664 -2.64E-06
    62 Broy./Diag. 0.30E+00    0.2     0.00000052     -3517.6191980557 -6.89E-07
    63 Broy./Diag. 0.30E+00    0.2     0.00000057     -3517.6191987718 -7.16E-07
    64 Broy./Diag. 0.30E+00    0.2     0.00000086     -3517.6191983205  4.51E-07
    65 Broy./Diag. 0.30E+00    0.2     0.00000093     -3517.6191962813  2.04E-06
    66 Broy./Diag. 0.30E+00    0.2     0.00000032     -3517.6191975637 -1.28E-06
    67 Broy./Diag. 0.30E+00    0.2     0.00000026     -3517.6191978679 -3.04E-07
    68 Broy./Diag. 0.30E+00    0.2     0.00000018     -3517.6191975218  3.46E-07
    69 Broy./Diag. 0.30E+00    0.2     0.00000052     -3517.6191970523  4.70E-07
    70 Broy./Diag. 0.30E+00    0.2     0.00000047     -3517.6191957634  1.29E-06
    71 Broy./Diag. 0.30E+00    0.3     0.00000016     -3517.6191966816 -9.18E-07
    72 Broy./Diag. 0.30E+00    0.2     0.00000013     -3517.6191966687  1.29E-08
    73 Broy./Diag. 0.30E+00    0.2     0.00000007     -3517.6191963882  2.80E-07

  *** SCF run converged in    73 steps ***


  Electronic density on regular grids:      -1183.9999999948        0.0000000052
  Core density on regular grids:             1183.9999998085       -0.0000001915
  Total charge density on r-space grids:       -0.0000001863
  Total charge density g-space grids:          -0.0000001863

  Overlap energy of the core charge distribution:               0.00001347459308
  Self energy of the core charge distribution:              -6148.38221378166963
  Core Hamiltonian energy:                                   1941.78022158604426
  Hartree energy:                                            1243.99709539650553
  Exchange-correlation energy:                               -554.99740265310857
  Electronic entropic energy:                                  -0.01691041046026
  Fermi energy:                                                 0.23964089217771

  Total energy:                                             -3517.61919638820336

   Calculate PDOS at iteration step                                  0
 OT| Eigensolver reached convergence in 1 iterations

   Compute          280    additional unoccupied KS orbitals

              ---- PDOS: start iteration on the KS states --- 

 The electron density is written in cube file format to the file:

 dft_wfn-ELECTRON_DENSITY-1_0.cube

 !-----------------------------------------------------------------------------!
                     Mulliken Population Analysis

 #  Atom  Element  Kind  Atomic population                           Net charge
       1     Au       1         10.999796                              0.000204
       2     Au       1         10.999833                              0.000167
       3     Au       1         10.999354                              0.000646
       4     Au       1         10.999459                              0.000541
       5     Au       1         10.999700                              0.000300
       6     Au       1         10.999648                              0.000352
       7     Au       1         10.999249                              0.000751
       8     Au       1         10.999530                              0.000470
       9     Au       1         10.999659                              0.000341
      10     Au       1         11.000395                             -0.000395
      11     Au       1         10.989360                              0.010640
      12     Au       1         10.989370                              0.010630
      13     Au       1         11.001328                             -0.001328
      14     Au       1         10.999708                              0.000292
      15     Au       1         10.989377                              0.010623
      16     Au       1         10.989386                              0.010614
      17     Au       1         10.995019                              0.004981
      18     Au       1         10.995076                              0.004924
      19     Au       1         10.995249                              0.004751
      20     Au       1         10.994575                              0.005425
      21     Au       1         10.995360                              0.004640
      22     Au       1         10.995324                              0.004676
      23     Au       1         10.995173                              0.004827
      24     Au       1         10.994677                              0.005323
      25     Au       1         10.997799                              0.002201
      26     Au       1         11.004391                             -0.004391
      27     Au       1         10.989239                              0.010761
      28     Au       1         10.989228                              0.010772
      29     Au       1         11.000041                             -0.000041
      30     Au       1         10.998683                              0.001317
      31     Au       1         10.989214                              0.010786
      32     Au       1         10.989203                              0.010797
      33     Au       1         10.982105                              0.017895
      34     Au       1         10.982200                              0.017800
      35     Au       1         10.998217                              0.001783
      36     Au       1         10.981784                              0.018216
      37     Au       1         10.997033                              0.002967
      38     Au       1         10.996978                              0.003022
      39     Au       1         10.998075                              0.001925
      40     Au       1         10.981941                              0.018059
      41     Au       1         10.975715                              0.024285
      42     Au       1         11.010128                             -0.010128
      43     Au       1         10.950725                              0.049275
      44     Au       1         10.950604                              0.049396
      45     Au       1         10.955582                              0.044418
      46     Au       1         10.976999                              0.023001
      47     Au       1         10.950457                              0.049543
      48     Au       1         10.950334                              0.049666
      49     Au       1         11.083110                             -0.083110
      50     Au       1         11.083638                             -0.083638
      51     Au       1         11.241592                             -0.241592
      52     Au       1         11.076690                             -0.076690
      53     Au       1         11.212635                             -0.212635
      54     Au       1         11.213686                             -0.213686
      55     Au       1         11.242536                             -0.242536
      56     Au       1         11.076771                             -0.076771
      57     S        2          5.297206                              0.702794
      58     C        3          4.073433                             -0.073433
      59     H        4          0.842039                              0.157961
      60     H        4          0.841537                              0.158463
      61     C        3          4.099451                             -0.099451
      62     C        3          4.101816                             -0.101816
      63     C        3          4.101549                             -0.101549
      64     C        3          4.099152                             -0.099152
      65     H        4          0.841499                              0.158501
      66     H        4          0.842241                              0.157759
      67     C        3          4.073465                             -0.073465
      68     S        2          5.297242                              0.702758
      69     Au       1         11.083590                             -0.083590
      70     Au       1         11.083160                             -0.083160
      71     Au       1         11.241620                             -0.241620
      72     Au       1         11.076697                             -0.076697
      73     Au       1         11.213062                             -0.213062
      74     Au       1         11.213277                             -0.213277
      75     Au       1         11.242563                             -0.242563
      76     Au       1         11.076771                             -0.076771
      77     Au       1         10.975708                              0.024292
      78     Au       1         11.010124                             -0.010124
      79     Au       1         10.950774                              0.049226
      80     Au       1         10.950599                              0.049401
      81     Au       1         10.955586                              0.044414
      82     Au       1         10.976993                              0.023007
      83     Au       1         10.950460                              0.049540
      84     Au       1         10.950283                              0.049717
      85     Au       1         10.982109                              0.017891
      86     Au       1         10.982201                              0.017799
      87     Au       1         10.998241                              0.001759
      88     Au       1         10.981767                              0.018233
      89     Au       1         10.997077                              0.002923
      90     Au       1         10.996933                              0.003067
      91     Au       1         10.998049                              0.001951
      92     Au       1         10.981963                              0.018037
      93     Au       1         10.997798                              0.002202
      94     Au       1         11.004389                             -0.004389
      95     Au       1         10.989239                              0.010761
      96     Au       1         10.989220                              0.010780
      97     Au       1         11.000039                             -0.000039
      98     Au       1         10.998682                              0.001318
      99     Au       1         10.989222                              0.010778
     100     Au       1         10.989203                              0.010797
     101     Au       1         10.995031                              0.004969
     102     Au       1         10.995067                              0.004933
     103     Au       1         10.995232                              0.004768
     104     Au       1         10.994586                              0.005414
     105     Au       1         10.995353                              0.004647
     106     Au       1         10.995330                              0.004670
     107     Au       1         10.995189                              0.004811
     108     Au       1         10.994668                              0.005332
     109     Au       1         10.999659                              0.000341
     110     Au       1         11.000394                             -0.000394
     111     Au       1         10.989366                              0.010634
     112     Au       1         10.989368                              0.010632
     113     Au       1         11.001329                             -0.001329
     114     Au       1         10.999708                              0.000292
     115     Au       1         10.989378                              0.010622
     116     Au       1         10.989379                              0.010621
 # Total charge                           1184.000000                  0.000000

 !-----------------------------------------------------------------------------!

 !-----------------------------------------------------------------------------!
                           Hirshfeld Charges

  #Atom  Element  Kind  Ref Charge     Population                    Net charge
      1       Au     1      11.000         11.002                        -0.002
      2       Au     1      11.000         11.002                        -0.002
      3       Au     1      11.000         11.000                        -0.000
      4       Au     1      11.000         11.001                        -0.001
      5       Au     1      11.000         11.001                        -0.001
      6       Au     1      11.000         11.001                        -0.001
      7       Au     1      11.000         11.000                        -0.000
      8       Au     1      11.000         11.001                        -0.001
      9       Au     1      11.000         10.994                         0.006
     10       Au     1      11.000         10.994                         0.006
     11       Au     1      11.000         11.005                        -0.005
     12       Au     1      11.000         11.005                        -0.005
     13       Au     1      11.000         10.996                         0.004
     14       Au     1      11.000         10.994                         0.006
     15       Au     1      11.000         11.005                        -0.005
     16       Au     1      11.000         11.005                        -0.005
     17       Au     1      11.000         11.001                        -0.001
     18       Au     1      11.000         11.001                        -0.001
     19       Au     1      11.000         11.000                         0.000
     20       Au     1      11.000         10.999                         0.001
     21       Au     1      11.000         11.001                        -0.001
     22       Au     1      11.000         11.001                        -0.001
     23       Au     1      11.000         11.000                         0.000
     24       Au     1      11.000         10.999                         0.001
     25       Au     1      11.000         10.991                         0.009
     26       Au     1      11.000         10.995                         0.005
     27       Au     1      11.000         11.006                        -0.006
     28       Au     1      11.000         11.006                        -0.006
     29       Au     1      11.000         10.991                         0.009
     30       Au     1      11.000         10.991                         0.009
     31       Au     1      11.000         11.006                        -0.006
     32       Au     1      11.000         11.006                        -0.006
     33       Au     1      11.000         11.001                        -0.001
     34       Au     1      11.000         11.001                        -0.001
     35       Au     1      11.000         11.001                        -0.001
     36       Au     1      11.000         10.999                         0.001
     37       Au     1      11.000         11.002                        -0.002
     38       Au     1      11.000         11.002                        -0.002
     39       Au     1      11.000         11.001                        -0.001
     40       Au     1      11.000         10.999                         0.001
[...]
 flops     4 x     9 x    20             22075200       0.0%    100.0%      0.0%
 flops     9 x     4 x    20             22495680       0.0%    100.0%      0.0%
 flops    96 x    24 x    18             22892544       0.0%    100.0%      0.0%
 flops    67 x    32 x    32             23052288       0.0%    100.0%      0.0%
 flops    64 x    44 x    18             23316480       0.0%    100.0%      0.0%
 flops     9 x    20 x     9             24675840       0.0%    100.0%      0.0%
 flops    32 x    32 x    13             24707072       0.0%    100.0%      0.0%
 flops    96 x    24 x    32             26542080       0.0%    100.0%      0.0%
 flops    64 x    24 x    32             33325056       0.0%    100.0%      0.0%
 flops    72 x    32 x    32             35389440       0.0%    100.0%      0.0%
 flops    64 x    24 x    18             35610624       0.0%    100.0%      0.0%
 flops    76 x    32 x    32             37355520       0.0%    100.0%      0.0%
 flops    96 x    44 x    18             41969664       0.0%    100.0%      0.0%
 flops    90 x    24 x    32             45204480       0.0%    100.0%      0.0%
 flops    59 x    32 x    32             49299456       0.0%    100.0%      0.0%
 flops    64 x    52 x    18             49600512       0.0%    100.0%      0.0%
 flops    64 x    64 x    13             50266112       0.0%    100.0%      0.0%
 flops     9 x    32 x     4             51775488       0.0%    100.0%      0.0%
 flops     4 x    32 x     9             51775488       0.0%    100.0%      0.0%
 flops    63 x    32 x    32             52641792       0.0%    100.0%      0.0%
 flops     4 x     4 x    32             56512512       0.0%    100.0%      0.0%
 flops    68 x    32 x    32             56819712       0.0%    100.0%      0.0%
 flops     9 x    32 x    32             61341696       0.0%    100.0%      0.0%
 flops    96 x    32 x    13             65175552       0.0%    100.0%      0.0%
 flops    76 x    32 x    18             68465664       0.0%    100.0%      0.0%
 flops    52 x    32 x    18             71645184       0.0%    100.0%      0.0%
 flops    96 x    64 x    13             76677120       0.0%    100.0%      0.0%
 flops    76 x    64 x    18             80547840       0.0%    100.0%      0.0%
 flops     1 x     9 x    32             97130880       0.0%    100.0%      0.0%
 flops     9 x     1 x    32             97130880       0.0%    100.0%      0.0%
 flops    85 x    32 x    32            112803840       0.0%    100.0%      0.0%
 flops     9 x    24 x     9            118444032       0.0%    100.0%      0.0%
 flops    64 x    32 x    13            135888896       0.0%    100.0%      0.0%
 flops    32 x    32 x    18            196706304       0.0%    100.0%      0.0%
 flops    96 x    32 x    32            283115520       0.0%    100.0%      0.0%
 flops    64 x    32 x    32            355467264       0.0%    100.0%      0.0%
 flops    64 x    64 x    18            400195584       0.0%    100.0%      0.0%
 flops    90 x    32 x    32            482181120       0.0%    100.0%      0.0%
 flops    96 x    32 x    18            518897664       0.0%    100.0%      0.0%
 flops    96 x    64 x    18            610467840       0.0%    100.0%      0.0%
 flops     4 x     9 x    32            741726720       0.0%    100.0%      0.0%
 flops     9 x     4 x    32            755854848       0.0%    100.0%      0.0%
 flops     9 x     9 x    20            912967200       0.0%    100.0%      0.0%
 flops    64 x    32 x    18           1081884672       0.0%    100.0%      0.0%
 flops     9 x    32 x     9           2092511232       0.0%    100.0%      0.0%
 flops     9 x     9 x    32          30675697920       0.0%    100.0%      0.0%
 flops inhomo. stacks                   283387392     100.0%      0.0%      0.0%
 flops total                        41.499033E+09       0.7%     99.3%      0.0%
 flops max/rank                    313.391368E+06       0.8%     99.2%      0.0%
 matmuls inhomo. stacks                      3108     100.0%      0.0%      0.0%
 matmuls total                            7945720       0.0%    100.0%      0.0%
 number of processed stacks               1118149       0.3%     99.7%      0.0%
 average stack size                                     1.0       7.1       0.0
 marketing flops                    93.854622E+09
 -------------------------------------------------------------------------------
 # multiplications                             93
 max memory usage/rank             356.700160E+06
 # max total images/rank                        5
 # max 3D layers                                1
 # MPI messages exchanged                 2499840
 MPI messages size (bytes):
  total size                        13.896217E+09
  min size                           0.000000E+00
  max size                          24.576000E+03
  average size                       5.558842E+03
 MPI breakdown and total messages size (bytes):
             size <=      128             1522427                        0
       128 < size <=     8192              191987               1056894120
      8192 < size <=    32768              785426              12839322520
     32768 < size <=   131072                   0                        0
    131072 < size <=  4194304                   0                        0
   4194304 < size <= 16777216                   0                        0
  16777216 < size                               0                        0
 -------------------------------------------------------------------------------

 *** WARNING in dbcsr_mm.F:290 :: Using a non-square number of MPI ranks ***
 *** might lead to poor performance. Used ranks: 240 Suggested: 225 484  ***

 -------------------------------------------------------------------------------
 -                                                                             -
 -                      DBCSR MESSAGE PASSING PERFORMANCE                      -
 -                                                                             -
 -------------------------------------------------------------------------------
 ROUTINE             CALLS      AVE VOLUME [Bytes]
 MP_Bcast              181                     12.
 MP_Allreduce          984                     15.
 MP_Alltoall          2329                 146330.
 MP_ISend            21428                   3394.
 MP_IRecv            21544                   3079.
 -------------------------------------------------------------------------------

 -------------------------------------------------------------------------------
 -                                                                             -
 -                                DBM STATISTICS                               -
 -                                                                             -
 -------------------------------------------------------------------------------
    M  x    N  x    K                                          COUNT     PERCENT
 -------------------------------------------------------------------------------

 -------------------------------------------------------------------------------
 -                                                                             -
 -                                GRID STATISTICS                              -
 -                                                                             -
 -------------------------------------------------------------------------------
 LP    KERNEL             BACKEND                              COUNT     PERCENT
 4     collocate ortho    REF                                7035328      44.63%
 4     integrate ortho    REF                                6940256      44.03%
 3     collocate ortho    REF                                 336774       2.14%
 3     integrate ortho    REF                                 332223       2.11%
 0     collocate general  REF                                 250560       1.59%
 2     collocate ortho    REF                                 242794       1.54%
 2     integrate ortho    REF                                 239513       1.52%
 0     integrate general  REF                                 222720       1.41%
 1     collocate ortho    REF                                  60680       0.38%
 1     integrate ortho    REF                                  59860       0.38%
 0     collocate ortho    REF                                  20868       0.13%
 0     integrate ortho    REF                                  20586       0.13%
 -------------------------------------------------------------------------------

 MEMORY| Estimated peak process memory [MiB]                                 361

 -------------------------------------------------------------------------------
 ----                             MULTIGRID INFO                            ----
 -------------------------------------------------------------------------------
 count for grid        1:         403725          cutoff [a.u.]          200.00
 count for grid        2:         625157          cutoff [a.u.]           66.67
 count for grid        3:         344958          cutoff [a.u.]           22.22
 count for grid        4:         152886          cutoff [a.u.]            7.41
 total gridlevel count  :        1526726

 -------------------------------------------------------------------------------
 -                                                                             -
 -                         MESSAGE PASSING PERFORMANCE                         -
 -                                                                             -
 -------------------------------------------------------------------------------

 ROUTINE             CALLS      AVE VOLUME [Bytes]
 MP_Group                4
 MP_Bcast              257                2472431.
 MP_Allreduce         2446                   3826.
 MP_Sync              1036
 MP_Alltoall          1339              672510456.
 MP_ISendRecv        70266                   4000.
 MP_Wait             86583
 MP_comm_split          75
 MP_ISend            23753                  37287.
 MP_IRecv            23851                  37145.
 MP_Recv                84                 248832.
 MP_Write_All            2                 248850.
 -------------------------------------------------------------------------------


 -------------------------------------------------------------------------------
 -                                                                             -
 -                           R E F E R E N C E S                               -
 -                                                                             -
 -------------------------------------------------------------------------------
 
 CP2K version 2022.1 (Development Version), the CP2K developers group (2022).
 CP2K is freely available from https://www.cp2k.org/ .

 Kuehne,Thomas D.; Iannuzzi,Marcella; Del Ben,Mauro;
 Rybkin,Vladimir V.; Seewald,Patrick; Stein,Frederick; Laino,Teodoro;
 Khaliullin,Rustam Z.; Schuett,Ole; Schiffmann,Florian; Golze,Dorothea;
 Wilhelm,Jan; Chulkov,Sergey; Bani-Hashemian,Mohammad Hossein;
 Weber,Valery; Borstnik,Urban; Taillefumier,Mathieu;
 Jakobovits,Alice Shoshana; Lazzaro,Alfio; Pabst,Hans; Mueller,Tiziano;
 Schade,Robert; Guidon,Manuel; Andermatt,Samuel; Holmberg,Nico;
 Schenter,Gregory K.; Hehn,Anna; Bussy,Augustin; Belleflamme,Fabian;
 Tabacchi,Gloria; Gloess,Andreas; Lass,Michael; Bethune,Iain;
 Mundy,Christopher J.; Plessl,Christian; Watkins,Matt;
 VandeVondele,Joost; Krack,Matthias; Hutter,Juerg. 
 The Journal of Chemical Physics, 152 (19), (2020). 
 CP2K: An electronic structure and molecular dynamics software package -
 Quickstep: Efficient and accurate electronic structure calculations.
 https://doi.org/10.1063/5.0007045

 Schuett, Ole; Messmer, Peter; Hutter, Juerg; VandeVondele, Joost. 
 Electronic Structure Calculations on Graphics Processing Units, John
 Wiley & Sons, Ltd, 173-190 (2016). 
 GPU-Accelerated Sparse Matrix-Matrix Multiplication for
 Linear Scaling Density Functional Theory.
 https://doi.org/10.1002/9781118670712.ch8

 Heinecke, A; Henry, G; Hutchinson, M; Pabst, H. 
 Proceedings of Intl. Supercomputing Conference, 981-991 (2016). 
 LIBXSMM: Accelerating Small Matrix Multiplications
 by Runtime Code Generation.
 https://doi.org/10.1109/SC.2016.83

 Borstnik, U; VandeVondele, J; Weber, V; Hutter, J. 
 PARALLEL COMPUTING, 40 (5-6), 47-58 (2014). 
 Sparse matrix multiplication: The distributed block-compressed sparse
 row library.
 https://doi.org/10.1016/j.parco.2014.03.012

 Hutter, J; Iannuzzi, M; Schiffmann, F; VandeVondele, J. 
 WIREs Comput Mol Sci., 4 (1), 15-25 (2014). 
 CP2K: atomistic simulations of condensed matter systems.
 https://doi.org/10.1002/wcms.1159

 VandeVondele, J; Hutter, J. 
 JOURNAL OF CHEMICAL PHYSICS, 127 (11), 114105 (2007). 
 Gaussian basis sets for accurate calculations on molecular systems in
 gas and condensed phases.
 https://doi.org/10.1063/1.2770708

 Krack, M. 
 THEORETICAL CHEMISTRY ACCOUNTS, 114 (1-3), 145-152 (2005). 
 Pseudopotentials for H to Kr optimized for gradient-corrected
 exchange-correlation functionals.
 https://doi.org/10.1007/s00214-005-0655-y

 VandeVondele, J; Krack, M; Mohamed, F; Parrinello, M; Chassaing, T;
 Hutter, J. COMPUTER PHYSICS COMMUNICATIONS, 167 (2), 103-128 (2005). 
 QUICKSTEP: Fast and accurate density functional calculations using a
 mixed Gaussian and plane waves approach.
 https://doi.org/10.1016/j.cpc.2004.12.014

 Frigo, M; Johnson, SG. 
 PROCEEDINGS OF THE IEEE, 93 (2), 216-231 (2005). 
 The design and implementation of FFTW3.
 https://doi.org/10.1109/JPROC.2004.840301

 VandeVondele, J; Hutter, J. 
 JOURNAL OF CHEMICAL PHYSICS, 118 (10), 4365-4369 (2003). 
 An efficient orbital transformation method for electronic structure
 calculations.
 https://doi.org/10.1063/1.1543154

 Hartwigsen, C; Goedecker, S; Hutter, J. 
 PHYSICAL REVIEW B, 58 (7), 3641-3662 (1998). 
 Relativistic separable dual-space Gaussian pseudopotentials from H to Rn.
 https://doi.org/10.1103/PhysRevB.58.3641

 Lippert, G; Hutter, J; Parrinello, M. 
 MOLECULAR PHYSICS, 92 (3), 477-487 (1997). 
 A hybrid Gaussian and plane wave density functional scheme.
 https://doi.org/10.1080/002689797170220

 Goedecker, S; Teter, M; Hutter, J. 
 PHYSICAL REVIEW B, 54 (3), 1703-1710 (1996). 
 Separable dual-space Gaussian pseudopotentials.
 https://doi.org/10.1103/PhysRevB.54.1703


 -------------------------------------------------------------------------------
 -                                                                             -
 -                                T I M I N G                                  -
 -                                                                             -
 -------------------------------------------------------------------------------
 SUBROUTINE                       CALLS  ASD         SELF TIME        TOTAL TIME
                                MAXIMUM       AVERAGE  MAXIMUM  AVERAGE  MAXIMUM
 CP2K                                 1  1.0    0.034    0.060   19.683   19.687
 qs_energies                          1  2.0    0.001    0.001   19.438   19.445
 scf_env_do_scf                       1  3.0    0.000    0.000   17.341   17.376
 scf_env_do_scf_inner_loop           73  4.0    0.003    0.316   17.340   17.375
 qs_scf_new_mos                      73  5.0    0.001    0.001    8.373    8.404
 eigensolver                         73  6.0    0.003    0.005    7.376    7.394
 cp_fm_syevd                         75  7.0    0.000    0.001    7.074    7.086
 cp_fm_redistribute_end              75  8.0    6.393    6.990    6.415    6.998
 cp_fm_syevd_base                    75  8.0    0.570    6.849    0.570    6.849
 rs_pw_transfer                     591  9.5    0.006    0.008    3.999    4.325
 qs_rho_update_rho_low               74  5.0    0.000    0.000    4.222    4.235
 calculate_rho_elec                  74  6.0    0.007    0.008    4.222    4.235
 qs_ks_update_qs_env                 73  5.0    0.001    0.001    4.128    4.135
 rebuild_ks_matrix                   73  6.0    0.000    0.000    3.811    3.816
 qs_ks_build_kohn_sham_matrix        73  7.0    0.008    0.009    3.810    3.816
 sum_up_and_integrate                73  8.0    0.002    0.003    3.384    3.389
 integrate_v_rspace                  73  9.0    0.001    0.002    3.381    3.387
 mp_waitany                       17856 11.5    2.308    3.073    2.308    3.073
 density_rs2pw                       74  7.0    0.002    0.003    2.582    2.902
 potential_pw2rs                     73 10.0    0.002    0.002    2.534    2.539
 scf_post_calculation_gpw             1  3.0    0.000    0.000    1.870    1.872
 write_available_results              1  4.0    0.000    0.000    1.870    1.871
 rs_pw_transfer_RS2PW_200            76  9.0    0.309    0.483    1.448    1.775
 pw_transfer                        954  8.9    0.028    0.037    1.550    1.629
 fft_wrap_pw1pw2                    808  9.9    0.004    0.005    1.510    1.587
 write_mo_free_results                1  5.0    0.753    0.806    1.462    1.462
 grid_collocate_task_list            74  7.0    1.216    1.371    1.216    1.371
 mp_waitall_1                     86619 11.6    0.476    1.157    0.476    1.157
 rs_pw_transfer_PW2RS_200            74 11.9    0.338    0.485    0.985    1.139
 fft_wrap_pw1pw2_200                367 10.2    0.038    0.052    0.899    1.022
 mp_isend_dm3                      3564 11.5    0.146    0.897    0.146    0.897
 fft3d_pb                           367 11.2    0.183    0.259    0.779    0.897
 pw_to_cube                           2  6.0    0.081    0.487    0.590    0.866
 rs_pw_transfer_PW2RS_70             73 12.0    0.056    0.079    0.731    0.829
 mp_alltoall_d11v                  1140  9.5    0.721    0.818    0.721    0.818
 grid_integrate_task_list            73 10.0    0.731    0.791    0.731    0.791
 mp_alltoall_z22v                  1175 13.7    0.579    0.781    0.579    0.781
 mp_sum_d                          1150  5.5    0.515    0.651    0.515    0.651
 fft3d_ps                           441 12.5    0.016    0.030    0.593    0.639
 calculate_dm_sparse                 73  6.0    0.002    0.002    0.595    0.619
 cp_dbcsr_plus_fm_fm_t_native        73  7.0    0.001    0.001    0.592    0.616
 gspace_mixing                       72  5.0    0.006    0.007    0.574    0.575
 dbcsr_complete_redistribute        244  8.5    0.014    0.020    0.456    0.482
 write_mo_dependent_results           1  5.0    0.000    0.000    0.408    0.425
 calculate_projected_dos              1  6.0    0.035    0.088    0.407    0.425
 dbcsr_multiply_generic              93  8.2    0.004    0.006    0.385    0.419
 cp_fm_cholesky_restore             219  7.0    0.386    0.410    0.386    0.410
 write_mo_set_to_restart             73  5.0    0.002    0.144    0.082    0.408
 rs_scatter_matrices                 74  7.0    0.001    0.002    0.373    0.400
 mp_bcast_l                           2  7.0    0.395    0.397    0.395    0.397
 -------------------------------------------------------------------------------

 The number of warnings for this run is : 1
 
 -------------------------------------------------------------------------------
  **** **** ******  **  PROGRAM ENDED AT                 2023-02-25 14:50:39.080
 ***** ** ***  *** **   PROGRAM RAN ON                     cn1142.scarf.rl.ac.uk
 **    ****   ******    PROGRAM RAN BY                                 scarf1157
 ***** **    ** ** **   PROGRAM PROCESS ID                                 60987
  **** **  *******  **  PROGRAM STOPPED IN /work4/scd/scarf1157/work/testing/cp2
                                           k-smeagol/bdt/cp2k/hollow-site/transp
                                           ort-cp2k/5-4/geometry-ordered/3x3-4/s
                                           z/bulk_layers-4/pdos/gamma
