       9
 i =        0, time =        0.000, E =      -298.8431362844
 Au         0.0000000000        0.0000000000        0.0000000000
 Au         0.0000000000        0.0000000000        0.0000000000
 Au         0.0000000000        0.0000000000        0.0000000000
 Au         0.0142553274        0.0000000001        0.0004760879
 Au        -0.0352277350        0.0000000001       -0.0000000009
 Au         0.0142553270        0.0000000001       -0.0004760871
 Au         0.0000000000        0.0000000000        0.0000000000
 Au         0.0000000000        0.0000000000        0.0000000000
 Au         0.0000000000        0.0000000000        0.0000000000
