Siesta Version: ismeagol.1.0
Architecture  : thomas-intel2017update1-intelmpi-mkl
Compiler flags: mpif90 -O2 -fPIC -g -ftree-vectorize -xHost
PARALLEL version

* Running on    2 nodes in parallel
>> Start of run:  31-OCT-2023  15:29:34

                           ***********************       
                           *  WELCOME TO SIESTA  *       
                           ***********************       

reinit: Reading from standard input
************************** Dump of input data file ****************************
SystemName                   au-chain_szv_zerobias          # Descriptive name of the system
SystemLabel                     au-chain_szv_zerobias               # Short name for naming files
NumberOfAtoms    9
NumberOfSpecies                 1               # Number of species
PAO.BasisType                   split
%block ChemicalSpeciesLabel
1 79 Au
%endblock ChemicalSpeciesLabel
%block PAO.Basis
  Au  2
n=6  0  1
6.500
1.00
n=5  2  1
5.850
1.00
%endblock PAO.Basis
%block PS.lmax
 Au   3
%endblock PS.lmax
LatticeConstant 1.000 Ang
%block LatticeVectors
  8.4    0.000   0.000    1
  0.000   8.4     0.000   1
  0.000   0.000     25.2 1
%endblock LatticeVectors
AtomicCoordinatesFormat Ang
%block AtomicCoordinatesAndAtomicSpecies
0.0 0.0 0.0 1 Au
0.0 0.0 2.8 1 Au
0.0 0.0 5.6 1 Au
0.0 0.0 8.4 1 Au
0.0 0.0 11.2 1 Au
0.0 0.0 14.0 1 Au
0.0 0.0 16.8 1 Au
0.0 0.0 19.6 1 Au
0.0 0.0 22.4 1 Au
%endblock AtomicCoordinatesAndAtomicSpecies
%block GeometryConstraints
   position   from  1 to 3
   position   from  7 to 9
%endblock GeometryConstraints
%block kgrid_Monkhorst_Pack
  1   0   0     0.0
  0   1   0     0.0
  0   0   1     0.0
%endblock kgrid_Monkhorst_Pack
xc.functional		LDA		# 'LDA', 'GGA'
xc.authors 	 		CA		# 'CA'='PZ', 'PW92', 'PBE'
SpinPolarized			F		# 'T', 'F'		
#FixSpin           F
#TotalSpin        0.0
NonCollinearSpin		F		# 'T', 'F'
MeshCutoff 	 		    200 Ry		# Equivalent plane wave cutoff for the grid
MaxSCFIterations                10000                2                10000                10000		10000
DM.MixingWeight			0.1
DM.NumberPulay			4	# Pulay convergency accelerator
DM.MixSCF1			    T
MixHamiltonian      T
DM.PulayOnFile			F		# Store in memory ('F') or in files ('T')
#DM.NumberKick         30
#DM.KickMixingWeight   0.1
DM.Tolerance 		1.0E-4
NeglNonOverlapInt		F		# 'F'=do not neglect
SolutionMethod			diagon
ElectronicTemperature		300 K		# Default value
DM.UseSaveDM 			T
#MD.UseSaveXV			T
#MD.UseSaveCG			T
WriteForces      T
WriteCoorXmol			T		# Write Atoms coordinates
SaveElectrostaticPotential      T
#SaveHS				T		# Save the Hamiltonian and Overlap matrices
SaveRho				T		# Save the valence pseudocharge density
#SaveDeltaRho			T
#WriteDenchar			T		# Write Denchar output
WriteMullikenPop		0 #write mulliken population of aromic and orbital charges
#-----
#smeagol
#-----
# Perform a transport calculation
EMTransport              T
# Set number of energy points for integrals
NEnergReal               64
# Set bias range
VInitial             0.0 eV
VFinal               0.0 eV
NIVPoints                0
# General variables
Delta                    1e-4
EnergLowestBound    -100.0 eV
# Print transmission coefficient
TrCoefficients           T
InitTransmRange      -10.0 eV
FinalTransmRange      10.0 eV
NTransmPoints            800
TRC.EMDOS                T
TRC.LeadsDOS             T
# Matching of Hartree potential with the leads
HartreeLeadsBottom  -1.83726919 eV
%block SaveBiasSteps
 0
%endblock SaveBiasSteps
EM.CalculateForces           T
************************** End of input data file *****************************

reinit: -----------------------------------------------------------------------
reinit: System Name: au-chain_szv_zerobias
reinit: -----------------------------------------------------------------------
reinit: System Label: au-chain_szv_zerobias                                       
reinit: -----------------------------------------------------------------------

initatom: Reading input for the pseudopotentials and atomic orbitals ----------
 Species number:            1  Label: Au Atomic number:          79
Ground state valence configuration:   6s01  5d10
Reading pseudopotential information in formatted form from Au.psf

Pseudopotential generated from a relativistic atomic calculation
There are spin-orbit pseudopotentials available
Spin-orbit interaction is not included in this calculation

Valence configuration for pseudopotential generation:
6s( 1.00) rc: 2.18
6p( 0.00) rc: 2.47
5d(10.00) rc: 1.79
5f( 0.00) rc: 2.00
relmxkb: Read Max KB Ang. Momentum=    3 for species Au
 Warning: Empty PAO shell. l =           1
 Will have a KB projector anyway...

<basis_specs>
===============================================================================
Au                   Z=  79    Mass=  196.97        Charge= 0.17977+309
Lmxo=2 Lmxkb= 3    BasisType=split      Semic=F
L=0  Nsemic=0  Cnfigmx=6
          n=1  nzeta=1  polorb=0
            splnorm:   0.15000    
               vcte:    0.0000    
               rinn:    0.0000    
                rcs:    6.5000    
            lambdas:    1.0000    
L=1  Nsemic=0  Cnfigmx=6
L=2  Nsemic=0  Cnfigmx=5
          n=1  nzeta=1  polorb=0
            splnorm:   0.15000    
               vcte:    0.0000    
               rinn:    0.0000    
                rcs:    5.8500    
            lambdas:    1.0000    
-------------------------------------------------------------------------------
L=0  Nkbl=1  erefs: 0.17977+309
L=1  Nkbl=1  erefs: 0.17977+309
L=2  Nkbl=1  erefs: 0.17977+309
L=3  Nkbl=1  erefs: 0.17977+309
===============================================================================
</basis_specs>

atom: Called for Au                    (Z =  79)

read_vps: Pseudopotential generation method:
read_vps: ATM3      Troullier-Martins                       
Total valence charge:   11.00000

read_vps: Pseudopotential includes a core correction:
read_vps: Pseudo-core for xc-correction

xc_check: Exchange-correlation functional:
xc_check: Ceperley-Alder
V l=0 = -2*Zval/r beyond r=  2.9833
V l=1 = -2*Zval/r beyond r=  2.9833
V l=2 = -2*Zval/r beyond r=  2.9833
V l=3 = -2*Zval/r beyond r=  2.9833
All V_l potentials equal beyond r=  2.4425
This should be close to max(r_c) in ps generation
All pots = -2*Zval/r beyond r=  2.9833

VLOCAL1: 99.0% of the norm of Vloc inside      7.276 Ry
VLOCAL1: 99.9% of the norm of Vloc inside     16.582 Ry
atom: Maximum radius for 4*pi*r*r*local-pseudopot. charge    2.94627
atom: Maximum radius for r*vlocal+2*Zval:    2.60007
GHOST: No ghost state for L =  0
GHOST: No ghost state for L =  1
GHOST: No ghost state for L =  2
GHOST: No ghost state for L =  3

KBgen: Kleinman-Bylander projectors: 
   l= 0   rc=  3.175745   el= -0.445638   Ekb=  5.072790   kbcos=  0.276607
   l= 1   rc=  3.256140   el= -0.066324   Ekb=  2.703235   kbcos=  0.227171
   l= 2   rc=  3.020861   el= -0.526103   Ekb= -4.704026   kbcos= -0.643795
   l= 3   rc=  3.466145   el=  0.003438   Ekb= -2.516122   kbcos= -0.010529

KBgen: Total number of  Kleinman-Bylander projectors:   16
atom: -------------------------------------------------------------------------

atom: SANKEY-TYPE ORBITALS:

SPLIT: Orbitals with angular momentum L= 0

SPLIT: Basis orbitals for state 6s

   izeta = 1
                 lambda =    1.000000
                     rc =    6.557093
                 energy =   -0.435455
                kinetic =    0.389259
    potential(screened) =   -0.824714
       potential(ionic) =   -8.467175

SPLIT: Orbitals with angular momentum L= 2

SPLIT: Basis orbitals for state 5d

   izeta = 1
                 lambda =    1.000000
                     rc =    5.933100
                 energy =   -0.524775
                kinetic =    4.913203
    potential(screened) =   -5.437978
       potential(ionic) =  -15.883506
atom: Total number of Sankey-type orbitals:  6

atm_pop: Valence configuration (for local Pseudopot. screening):
 6s( 1.00)                                                            
 6p( 0.00)                                                            
 5d(10.00)                                                            
Vna: chval, zval:   11.00000  11.00000

Vna:  Cut-off radius for the neutral-atom potential:   6.557093
comcore: Pseudo-core radius Rcore=  4.027091

atom: _________________________________________________________________________

prinput: Basis input ----------------------------------------------------------

PAO.BasisType split     

%block ChemicalSpeciesLabel
    1   79 Au                      # Species index, atomic number, species label
%endblock ChemicalSpeciesLabel

%block PAO.Basis                 # Define Basis set
Au                    2                    # Species label, number of l-shells
 n=6   0   1                         # n, l, Nzeta 
   6.557   
   1.000   
 n=5   2   1                         # n, l, Nzeta 
   5.933   
   1.000   
%endblock PAO.Basis

prinput: ----------------------------------------------------------------------

coor:   Atomic-coordinates input format  =     Cartesian coordinates
coor:                                          (in Angstroms)

siesta: Atomic coordinates (Bohr) and species
siesta:      0.00000   0.00000   0.00000  1        1
siesta:      0.00000   0.00000   5.29124  1        2
siesta:      0.00000   0.00000  10.58247  1        3
siesta:      0.00000   0.00000  15.87371  1        4
siesta:      0.00000   0.00000  21.16494  1        5
siesta:      0.00000   0.00000  26.45618  1        6
siesta:      0.00000   0.00000  31.74741  1        7
siesta:      0.00000   0.00000  37.03865  1        8
siesta:      0.00000   0.00000  42.32988  1        9

siesta: System type = chain     

initatomlists: Number of atoms, orbitals, and projectors:      9    54   144

SMEAGOL: ******************* SMEAGOL Simulation parameters ********************
SMEAGOL:
SMEAGOL:       The following are some of the SMEAGOL parameters of the
SMEAGOL:       simulation. A complete list of the parameters used,
SMEAGOL:       including default values, can be found in file fdf.log.
SMEAGOL:
redata: Transport in extended molecule                =      T
redata: # of points in real energy axis integral      =     64
redata: # of contour points in semi-circle            =     34
redata: # of contour points in line region            =     20
redata: # of poles in the Fermi function              =      5
redata: Initial value of the bias potential           =      0.0000 Ry
redata: Final value of the bias potential             =      0.0000 Ry
redata: # of bias potential points                    =      0
redata: Small imaginary part                          =      0.00010
redata: Lower bound for the contour integral          =     -7.3498 Ry
redata: 1 = Leads with different spin                 =      0
redata: Atom of the lead where bias slope starts      =      1
redata: Atom of the lead where bias slope ends        =      9
redata: # of bulk slices to include in EM             =      1
redata: Calculate transmission coefficients           =      T
redata: Set bulk transversal cell                     =      F
redata: Bulk transversal cell size                    =      3
redata: Write leads H and S matrices at .HSL          =      F
redata: Init transport                                =      F
redata: Force super cell in z direction = 3           =      F
redata: Calculated electronic structure for           =     LR
redata: Write converged DM (at bias/MD selected step) =      F
redata: Hartree Leads Left                            =      0.0000 Bohr
redata: Hartree Leads Right                           =      0.0000 Bohr
redata: Hartree Leads Bottom                          =     -0.1350 Ry
redata: Periodic leads in perpendicular directions    =      F
redata: Thresholds at generalized SVD                 =      0.000000001000
redata: Write .orb, .ef and .gHS files                =      F
redata: Write .onlyS files                            =      F
redata: Electron-phonon interaction                   =      F
redata: Invert only central region    =      F
redata: Calculate Forces    =      F
redata: ***********************************************************************

siesta: ******************** SIESTA Simulation parameters *********************
siesta:
siesta:       The following are some of the SIESTA parameters of the
siesta:       simulation. A complete list of the parameters used,
siesta:       including default values, can be found in file fdf.log.
siesta:
redata: Non-Collinear-spin run             =       F
redata: SpinPolarized (Up/Down) run        =       F
redata: Number of spin components          =       1
redata: Long output                        =       F
redata: Number of Atomic Species           =       1
redata: Charge density info will appear in .RHO file
redata: Write Mulliken Pop.                =      NO
redata: Mesh Cutoff                        =     200.0000  Ry
redata: Net charge of the system           =       0.0000 |e|
redata: Max. number of SCF Iter            =   10000
redata: Performing Pulay mixing using      =       4 iterations
redata: Mix DM in first SCF step ?         =       T
redata: Write Pulay info on disk?          =       F
redata: Discard 1st Pulay DM after kick    =       F
redata: New DM Mixing Weight               =       0.1000
redata: New DM Occupancy tolerance         =       0.000000000001
redata: No kicks to SCF
redata: DM Mixing Weight for Kicks         =       0.5000
redata: DM Tolerance for SCF               =       0.000100
redata: Require Energy convergence for SCF =       F
redata: DM Energy tolerance for SCF        =       0.000100 eV
redata: Require Harris convergence for SCF =       F
redata: DM Harris energy tolerance for SCF =       0.000100 eV
redata: Using Saved Data (generic)         =       F
redata: Use continuation files for DM      =       T
redata: Neglect nonoverlap interactions    =       F
redata: Method of Calculation              =     Diagonalization
redata: Divide and Conquer                 =       T
redata: Electronic Temperature             =       0.0019  Ry
redata: Fix the spin of the system         =       F
redata: Dynamics option                    =     Verlet MD run
redata: Initial MD time step               =       1
redata: Final MD time step                 =       1
redata: Length of MD time step             =       1.0000  fs
redata: Initial Temperature of MD run      =       0.0000  K
redata: Perform a MD quench                =       F
redata: ***********************************************************************

Total number of electrons:    99.000000
Total ionic charge:    99.000000

* ProcessorY, Blocksize:    1  24

 Kpoints in:            1 . Kpoints trimmed:            1

siesta: k-grid: Number of k-points =     1
siesta: k-grid: Cutoff (effective) =     4.200 Ang
siesta: k-grid: Supercell and displacements
siesta: k-grid:    1   0   0      0.000
siesta: k-grid:    0   1   0      0.000
siesta: k-grid:    0   0   1      0.000

* Maximum dynamic memory allocated =     1 MB

siesta:                 ===============================
SMEAGOL                 Bias step =    0, V =  0.000 Ry
                            Begin MD step =      1
                        ===============================

outcell: Unit cell vectors (Ang):
        8.400000    0.000000    0.000000
        0.000000    8.400000    0.000000
        0.000000    0.000000   25.200000

outcell: Cell vector modules (Ang)   :    8.400000    8.400000   25.200000
outcell: Cell angles (23,13,12) (deg):     90.0000     90.0000     90.0000
outcell: Cell volume (Ang**3)        :   1778.1120
New_DM. Step:     1
Initializing Density Matrix...

InitMesh: MESH =    72 x    72 x   216 =     1119744
InitMesh: Mesh cutoff (required, used) =   200.000   203.052 Ry
SMEAGOL: average =  -0.13694, shift =  -0.13504, count =   5184
SMEAGOL: minL =   0.00000, maxR =   0.00000

* Maximum dynamic memory allocated =    49 MB
ERROR: The left supercell along parallel
directions is different of the supercell
of the EM. Change the size of it
nsc =    1   1
nscL =    3   3
ERROR: The right supercell along parallel
directions is different of the supercell
of the EM. Change the size of it
nsc =    1   1
nscR =    3   3

SMEAGOL: Integral method for real-axis = Traditional 


Intel MKL ERROR: Parameter 4 was incorrect on entry to ZGETRF.
Intel MKL ERROR: Parameter 4 was incorrect on entry to ZGETRF.

Intel MKL ERROR: Parameter 4 was incorrect on entry to ZGECON.

Intel MKL ERROR: Parameter 6 was incorrect on entry to ZGESVD.

Intel MKL ERROR: Parameter 8 was incorrect on entry to ZGEMM .

Intel MKL ERROR: Parameter 8 was incorrect on entry to ZGEMM .

Intel MKL ERROR: Parameter 4 was incorrect on entry to ZGECON.

Intel MKL ERROR: Parameter 6 was incorrect on entry to ZGESVD.

Intel MKL ERROR: Parameter 8 was incorrect on entry to ZGEMM .

Intel MKL ERROR: Parameter 6 was incorrect on entry to ZGESVD.

Intel MKL ERROR: Parameter 8 was incorrect on entry to ZGEMM .

Intel MKL ERROR: Parameter 8 was incorrect on entry to ZGEMM .

Intel MKL ERROR: Parameter 6 was incorrect on entry to ZGESVD.

Intel MKL ERROR: Parameter 8 was incorrect on entry to ZGEMM .

Intel MKL ERROR: Parameter 7 was incorrect on entry to ZGEEVX.

Intel MKL ERROR: Parameter 7 was incorrect on entry to ZGEEVX.


Intel MKL ERROR: Parameter 4 was incorrect on entry to ZGETRF.

Intel MKL ERROR: Parameter 4 was incorrect on entry to ZGECON.

Intel MKL ERROR: Parameter 6 was incorrect on entry to ZGESVD.
Intel MKL ERROR: Parameter 4 was incorrect on entry to ZGETRF.

Intel MKL ERROR: Parameter 4 was incorrect on entry to ZGECON.

Intel MKL ERROR: Parameter 6 was incorrect on entry to ZGESVD.

Intel MKL ERROR: Parameter 4 was incorrect on entry to ZGETRF.


Intel MKL ERROR: Parameter 4 was incorrect on entry to ZGETRF.

Intel MKL ERROR: Parameter 4 was incorrect on entry to ZGECON.

Intel MKL ERROR: Parameter 6 was incorrect on entry to ZGESVD.

Intel MKL ERROR: Parameter 8 was incorrect on entry to ZGEMM .
Intel MKL ERROR: Parameter 4 was incorrect on entry to ZGECON.

Intel MKL ERROR: Parameter 6 was incorrect on entry to ZGESVD.

Intel MKL ERROR: Parameter 8 was incorrect on entry to ZGEMM .

Intel MKL ERROR: Parameter 4 was incorrect on entry to ZGETRF.

Intel MKL ERROR: Parameter 4 was incorrect on entry to ZGECON.

Intel MKL ERROR: Parameter 4 was incorrect on entry to ZGETRF.

Intel MKL ERROR: Parameter 4 was incorrect on entry to ZGECON.

Intel MKL ERROR: Parameter 6 was incorrect on entry to ZGESVD.

Intel MKL ERROR: Parameter 8 was incorrect on entry to ZGEMM .

Intel MKL ERROR: Parameter 8 was incorrect on entry to ZGEMM .
Intel MKL ERROR: Parameter 6 was incorrect on entry to ZGESVD.

Intel MKL ERROR: Parameter 8 was incorrect on entry to ZGEMM .

Intel MKL ERROR: Parameter 8 was incorrect on entry to ZGEMM .

Intel MKL ERROR: Parameter 8 was incorrect on entry to ZGEMM .


Intel MKL ERROR: Parameter 8 was incorrect on entry to ZGEMM .

Intel MKL ERROR: Parameter 6 was incorrect on entry to ZLASWP.

Intel MKL ERROR: Parameter 6 was incorrect on entry to ZLASWP.

Intel MKL ERROR: Parameter 4 was incorrect on entry to ZGETRF.

Intel MKL ERROR: Parameter 4 was incorrect on entry to ZGECON.

Intel MKL ERROR: Parameter 6 was incorrect on entry to ZGESVD.

Intel MKL ERROR: Parameter 8 was incorrect on entry to ZGEMM .

Intel MKL ERROR: Parameter 8 was incorrect on entry to ZGEMM .

Intel MKL ERROR: Parameter 6 was incorrect on entry to ZGESVD.

Intel MKL ERROR: Parameter 8 was incorrect on entry to ZGEMM .

Intel MKL ERROR: Parameter 7 was incorrect on entry to ZGEEVX.

Intel MKL ERROR: Parameter 4 was incorrect on entry to ZGETRF.

Intel MKL ERROR: Parameter 4 was incorrect on entry to ZGECON.

Intel MKL ERROR: Parameter 6 was incorrect on entry to ZGESVD.

Intel MKL ERROR: Parameter 4 was incorrect on entry to ZGETRF.

Intel MKL ERROR: Parameter 4 was incorrect on entry to ZGECON.

Intel MKL ERROR: Parameter 6 was incorrect on entry to ZGESVD.

Intel MKL ERROR: Parameter 8 was incorrect on entry to ZGEMM .

Intel MKL ERROR: Parameter 4 was incorrect on entry to ZGETRF.

Intel MKL ERROR: Parameter 4 was incorrect on entry to ZGECON.

Intel MKL ERROR: Parameter 6 was incorrect on entry to ZGESVD.

Intel MKL ERROR: Parameter 8 was incorrect on entry to ZGEMM .

Intel MKL ERROR: Parameter 8 was incorrect on entry to ZGEMM .

Intel MKL ERROR: Parameter 8 was incorrect on entry to ZGEMM .

Intel MKL ERROR: Parameter 4 was incorrect on entry to ZGETRF.

Intel MKL ERROR: Parameter 3 was incorrect on entry to ZGETRI.

Intel MKL ERROR: Parameter 4 was incorrect on entry to ZGETRF.

Intel MKL ERROR: Parameter 3 was incorrect on entry to ZGETRI.
 The condition number of the matrix H1 was too large
 The Matrix is possibly singular
 (-1.94356190166373,2.80500334562357)           1

Intel MKL ERROR: Parameter 4 was incorrect on entry to ZGETRF.

Intel MKL ERROR: Parameter 4 was incorrect on entry to ZGECON.

Intel MKL ERROR: Parameter 6 was incorrect on entry to ZGESVD.

Intel MKL ERROR: Parameter 8 was incorrect on entry to ZGEMM .

Intel MKL ERROR: Parameter 8 was incorrect on entry to ZGEMM .

Intel MKL ERROR: Parameter 6 was incorrect on entry to ZGESVD.

Intel MKL ERROR: Parameter 8 was incorrect on entry to ZGEMM .

Intel MKL ERROR: Parameter 7 was incorrect on entry to ZGEEVX.

Intel MKL ERROR: Parameter 4 was incorrect on entry to ZGETRF.

Intel MKL ERROR: Parameter 4 was incorrect on entry to ZGECON.

Intel MKL ERROR: Parameter 6 was incorrect on entry to ZGESVD.

Intel MKL ERROR: Parameter 4 was incorrect on entry to ZGETRF.

Intel MKL ERROR: Parameter 4 was incorrect on entry to ZGECON.

Intel MKL ERROR: Parameter 6 was incorrect on entry to ZGESVD.

Intel MKL ERROR: Parameter 8 was incorrect on entry to ZGEMM .

Intel MKL ERROR: Parameter 4 was incorrect on entry to ZGETRF.

Intel MKL ERROR: Parameter 4 was incorrect on entry to ZGECON.

Intel MKL ERROR: Parameter 6 was incorrect on entry to ZGESVD.

Intel MKL ERROR: Parameter 8 was incorrect on entry to ZGEMM .

Intel MKL ERROR: Parameter 8 was incorrect on entry to ZGEMM .

Intel MKL ERROR: Parameter 8 was incorrect on entry to ZGEMM .

Intel MKL ERROR: Parameter 4 was incorrect on entry to ZGETRF.

Intel MKL ERROR: Parameter 3 was incorrect on entry to ZGETRI.

Intel MKL ERROR: Parameter 4 was incorrect on entry to ZGETRF.

Intel MKL ERROR: Parameter 3 was incorrect on entry to ZGETRI.
 The condition number of the matrix H1 was too large
 The Matrix is possibly singular
 (-0.412975374739103,5.969243656534377E-002)           0
