     116
 i =        1, E =     -3518.0841077458
 Au         0.0000000000        0.0000000000        0.0000000000
 Au         0.0000000000        4.1460000000        0.0000000000
 Au         2.0730000000        2.0730000000        0.0000000000
 Au         2.0730000000        6.2190000000        0.0000000000
 Au         4.1460000000        0.0000000000        0.0000000000
 Au         4.1460000000        4.1460000000        0.0000000000
 Au         6.2190000000        2.0730000000        0.0000000000
 Au         6.2190000000        6.2190000000        0.0000000000
 Au         0.0000000000        2.0730000000        2.0730000000
 Au         0.0000000000        6.2190000000        2.0730000000
 Au         2.0730000000        0.0000000000        2.0730000000
 Au         2.0730000000        4.1460000000        2.0730000000
 Au         4.1460000000        2.0730000000        2.0730000000
 Au         4.1460000000        6.2190000000        2.0730000000
 Au         6.2190000000        0.0000000000        2.0730000000
 Au         6.2190000000        4.1460000000        2.0730000000
 Au         0.0000000000        0.0000000000        4.1460000000
 Au         0.0000000000        4.1460000000        4.1460000000
 Au         2.0730000000        2.0730000000        4.1460000000
 Au         2.0730000000        6.2190000000        4.1460000000
 Au         4.1460000000        0.0000000000        4.1460000000
 Au         4.1460000000        4.1460000000        4.1460000000
 Au         6.2190000000        2.0730000000        4.1460000000
 Au         6.2190000000        6.2190000000        4.1460000000
 Au         0.0000000000        2.0730000000        6.2190000000
 Au         0.0000000000        6.2190000000        6.2190000000
 Au         2.0730000000        0.0000000000        6.2190000000
 Au         2.0730000000        4.1460000000        6.2190000000
 Au         4.1460000000        2.0730000000        6.2190000000
 Au         4.1460000000        6.2190000000        6.2190000000
 Au         6.2190000000        0.0000000000        6.2190000000
 Au         6.2190000000        4.1460000000        6.2190000000
 Au         0.0000000000        0.0000000000        8.2920000000
 Au         0.0000000000        4.1460000000        8.2920000000
 Au         2.0730000000        2.0730000000        8.2920000000
 Au         2.0730000000        6.2190000000        8.2920000000
 Au         4.1460000000        0.0000000000        8.2920000000
 Au         4.1460000000        4.1460000000        8.2920000000
 Au         6.2190000000        2.0730000000        8.2920000000
 Au         6.2190000000        6.2190000000        8.2920000000
 Au        -0.0000164403        2.0729855912       10.3745122449
 Au        -0.0000137211        6.2189542458       10.3618980741
 Au         2.0700546419       -0.0022373259       10.3519396298
 Au         2.0700695365        4.1483265539       10.3518896235
 Au         4.1459892433        2.0729078350       10.2863242633
 Au         4.1459954411        6.2188235779       10.3730927024
 Au         6.2219419296       -0.0022420273       10.3519067128
 Au         6.2219275853        4.1483314914       10.3518557576
 Au         0.0000378004       -0.0128033345       12.4408139190
 Au         0.0000383656        4.1588956257       12.4409086333
 Au         1.9317090013        2.0730232975       12.4240395986
 Au         2.0592935534        6.2189424369       12.4399054825
 Au         4.1459844791       -0.1492217603       12.4104261949
 Au         4.1459853028        4.2953802133       12.4100968104
 Au         6.3602579143        2.0730255890       12.4239853735
 Au         6.2327074513        6.2189431168       12.4399107749
  S         4.1462141174        2.0754642841       13.8879827996
  C         4.1432178375        2.0903638989       15.6687187429
  H         1.9701150759        2.0978103436       15.7502818687
  H         6.3181975164        2.0976545446       15.7603025273
  C         2.8926505811        2.0746792319       16.3067917636
  C         5.3904394813        2.0748427758       16.3087671426
  C         2.8918294377        2.0693846280       17.7082248583
  C         5.3888461565        2.0694535884       17.7095846084
  H         1.9624746096        2.0463972587       18.2568397158
  H         6.3121393535        2.0462131656       18.2666867563
  C         4.1391235974        2.0545136358       18.3490317667
  S         4.1416957436        2.0702466292       20.1298436582
 Au         0.0005953655       -0.0106416516       21.5779865071
 Au         0.0005874857        4.1565472087       21.5780895863
 Au         1.9294244216        2.0730118120       21.5953284845
 Au         2.0610367011        6.2190263902       21.5789939223
 Au         4.1466893671       -0.1525457844       21.6094340499
 Au         4.1466963386        4.2984632086       21.6090704635
 Au         6.3620978887        2.0730143349       21.5946506101
 Au         6.2190000000        6.2190000000       21.5800000000
 Au         0.0000000000        2.0730000000       23.6530000000
 Au         0.0000000000        6.2190000000       23.6530000000
 Au         2.0730000000        0.0000000000       23.6530000000
 Au         2.0730000000        4.1460000000       23.6530000000
 Au         4.1460000000        2.0730000000       23.6530000000
 Au         4.1460000000        6.2190000000       23.6530000000
 Au         6.2190000000        0.0000000000       23.6530000000
 Au         6.2190000000        4.1460000000       23.6530000000
 Au         0.0000000000        0.0000000000       25.7260000000
 Au         0.0000000000        4.1460000000       25.7260000000
 Au         2.0730000000        2.0730000000       25.7260000000
 Au         2.0730000000        6.2190000000       25.7260000000
 Au         4.1460000000        0.0000000000       25.7260000000
 Au         4.1460000000        4.1460000000       25.7260000000
 Au         6.2190000000        2.0730000000       25.7260000000
 Au         6.2190000000        6.2190000000       25.7260000000
 Au         0.0000000000        2.0730000000       27.7990000000
 Au         0.0000000000        6.2190000000       27.7990000000
 Au         2.0730000000        0.0000000000       27.7990000000
 Au         2.0730000000        4.1460000000       27.7990000000
 Au         4.1460000000        2.0730000000       27.7990000000
 Au         4.1460000000        6.2190000000       27.7990000000
 Au         6.2190000000        0.0000000000       27.7990000000
 Au         6.2190000000        4.1460000000       27.7990000000
 Au         0.0000000000        0.0000000000       29.8720000000
 Au         0.0000000000        4.1460000000       29.8720000000
 Au         2.0730000000        2.0730000000       29.8720000000
 Au         2.0730000000        6.2190000000       29.8720000000
 Au         4.1460000000        0.0000000000       29.8720000000
 Au         4.1460000000        4.1460000000       29.8720000000
 Au         6.2190000000        2.0730000000       29.8720000000
 Au         6.2190000000        6.2190000000       29.8720000000
 Au         0.0000000000        2.0730000000       31.9450000000
 Au         0.0000000000        6.2190000000       31.9450000000
 Au         2.0730000000        0.0000000000       31.9450000000
 Au         2.0730000000        4.1460000000       31.9450000000
 Au         4.1460000000        2.0730000000       31.9450000000
 Au         4.1460000000        6.2190000000       31.9450000000
 Au         6.2190000000        0.0000000000       31.9450000000
 Au         6.2190000000        4.1460000000       31.9450000000
     116
 i =        2, E =     -3518.0911412016
 Au         0.0000000000        0.0000000000        0.0000000000
 Au         0.0000000000        4.1460000000        0.0000000000
 Au         2.0730000000        2.0730000000        0.0000000000
 Au         2.0730000000        6.2190000000        0.0000000000
 Au         4.1460000000        0.0000000000        0.0000000000
 Au         4.1460000000        4.1460000000        0.0000000000
 Au         6.2190000000        2.0730000000        0.0000000000
 Au         6.2190000000        6.2190000000        0.0000000000
 Au         0.0000000000        2.0730000000        2.0730000000
 Au         0.0000000000        6.2190000000        2.0730000000
 Au         2.0730000000        0.0000000000        2.0730000000
 Au         2.0730000000        4.1460000000        2.0730000000
 Au         4.1460000000        2.0730000000        2.0730000000
 Au         4.1460000000        6.2190000000        2.0730000000
 Au         6.2190000000        0.0000000000        2.0730000000
 Au         6.2190000000        4.1460000000        2.0730000000
 Au         0.0000000000        0.0000000000        4.1460000000
 Au         0.0000000000        4.1460000000        4.1460000000
 Au         2.0730000000        2.0730000000        4.1460000000
 Au         2.0730000000        6.2190000000        4.1460000000
 Au         4.1460000000        0.0000000000        4.1460000000
 Au         4.1460000000        4.1460000000        4.1460000000
 Au         6.2190000000        2.0730000000        4.1460000000
 Au         6.2190000000        6.2190000000        4.1460000000
 Au         0.0000000000        2.0730000000        6.2190000000
 Au         0.0000000000        6.2190000000        6.2190000000
 Au         2.0730000000        0.0000000000        6.2190000000
 Au         2.0730000000        4.1460000000        6.2190000000
 Au         4.1460000000        2.0730000000        6.2190000000
 Au         4.1460000000        6.2190000000        6.2190000000
 Au         6.2190000000        0.0000000000        6.2190000000
 Au         6.2190000000        4.1460000000        6.2190000000
 Au         0.0000000000        0.0000000000        8.2920000000
 Au         0.0000000000        4.1460000000        8.2920000000
 Au         2.0730000000        2.0730000000        8.2920000000
 Au         2.0730000000        6.2190000000        8.2920000000
 Au         4.1460000000        0.0000000000        8.2920000000
 Au         4.1460000000        4.1460000000        8.2920000000
 Au         6.2190000000        2.0730000000        8.2920000000
 Au         6.2190000000        6.2190000000        8.2920000000
 Au         0.0000082718        2.0730095518       10.3437850930
 Au        -0.0000200077        6.2189371395       10.3610645580
 Au         2.0743811804        0.0043391760       10.3542749283
 Au         2.0743606845        4.1417191604       10.3541166489
 Au         4.1460115152        2.0727783550       10.3093894717
 Au         4.1459902372        6.2186126962       10.3333164549
 Au         6.2176297531        0.0043340598       10.3542792887
 Au         6.2176521695        4.1417254886       10.3541189452
 Au         0.0000496871       -0.0453514363       12.4489356114
 Au         0.0000516369        4.1915153958       12.4491045061
 Au         1.9243469327        2.0728414739       12.4369688459
 Au         2.0230434212        6.2190763526       12.4482272858
 Au         4.1459677263       -0.1580868004       12.4167882763
 Au         4.1459680130        4.3051274083       12.4157658390
 Au         6.3675553655        2.0728433505       12.4370810687
 Au         6.2689441748        6.2190780773       12.4481898130
  S         4.1459099649        2.0800087213       13.8431727072
  C         4.1437969215        2.0752897683       15.6280343126
  H         1.9844716977        2.0906757493       15.7505540952
  H         6.3028188630        2.0906142714       15.7582290890
  C         2.9177327799        2.0932404073       16.3089087755
  C         5.3672963021        2.0930694388       16.3131007940
  C         2.9145475202        2.0515741573       17.7039024309
  C         5.3647682325        2.0515002439       17.7077308052
  H         1.9782794850        2.0534428099       18.2588367931
  H         6.2984067382        2.0533076428       18.2663544980
  C         4.1386040268        2.0693260505       18.3879625480
  S         4.1404340534        2.0656719360       20.1717988642
 Au        -0.0008955085       -0.0447922031       21.5680252293
 Au        -0.0009023707        4.1905864317       21.5682085595
 Au         1.9193220546        2.0732499781       21.5750855345
 Au         2.0237170747        6.2188892279       21.5681409779
 Au         4.1448568727       -0.1623746863       21.5951753291
 Au         4.1448616798        4.3072946492       21.5940656024
 Au         6.3719863773        2.0732489437       21.5743424209
 Au         6.2190000000        6.2190000000       21.5800000000
 Au         0.0000000000        2.0730000000       23.6530000000
 Au         0.0000000000        6.2190000000       23.6530000000
 Au         2.0730000000        0.0000000000       23.6530000000
 Au         2.0730000000        4.1460000000       23.6530000000
 Au         4.1460000000        2.0730000000       23.6530000000
 Au         4.1460000000        6.2190000000       23.6530000000
 Au         6.2190000000        0.0000000000       23.6530000000
 Au         6.2190000000        4.1460000000       23.6530000000
 Au         0.0000000000        0.0000000000       25.7260000000
 Au         0.0000000000        4.1460000000       25.7260000000
 Au         2.0730000000        2.0730000000       25.7260000000
 Au         2.0730000000        6.2190000000       25.7260000000
 Au         4.1460000000        0.0000000000       25.7260000000
 Au         4.1460000000        4.1460000000       25.7260000000
 Au         6.2190000000        2.0730000000       25.7260000000
 Au         6.2190000000        6.2190000000       25.7260000000
 Au         0.0000000000        2.0730000000       27.7990000000
 Au         0.0000000000        6.2190000000       27.7990000000
 Au         2.0730000000        0.0000000000       27.7990000000
 Au         2.0730000000        4.1460000000       27.7990000000
 Au         4.1460000000        2.0730000000       27.7990000000
 Au         4.1460000000        6.2190000000       27.7990000000
 Au         6.2190000000        0.0000000000       27.7990000000
 Au         6.2190000000        4.1460000000       27.7990000000
 Au         0.0000000000        0.0000000000       29.8720000000
 Au         0.0000000000        4.1460000000       29.8720000000
 Au         2.0730000000        2.0730000000       29.8720000000
 Au         2.0730000000        6.2190000000       29.8720000000
 Au         4.1460000000        0.0000000000       29.8720000000
 Au         4.1460000000        4.1460000000       29.8720000000
 Au         6.2190000000        2.0730000000       29.8720000000
 Au         6.2190000000        6.2190000000       29.8720000000
 Au         0.0000000000        2.0730000000       31.9450000000
 Au         0.0000000000        6.2190000000       31.9450000000
 Au         2.0730000000        0.0000000000       31.9450000000
 Au         2.0730000000        4.1460000000       31.9450000000
 Au         4.1460000000        2.0730000000       31.9450000000
 Au         4.1460000000        6.2190000000       31.9450000000
 Au         6.2190000000        0.0000000000       31.9450000000
 Au         6.2190000000        4.1460000000       31.9450000000
     116
 i =        3, E =     -3518.0904704152
 Au         0.0000000000        0.0000000000        0.0000000000
 Au         0.0000000000        4.1460000000        0.0000000000
 Au         2.0730000000        2.0730000000        0.0000000000
 Au         2.0730000000        6.2190000000        0.0000000000
 Au         4.1460000000        0.0000000000        0.0000000000
 Au         4.1460000000        4.1460000000        0.0000000000
 Au         6.2190000000        2.0730000000        0.0000000000
 Au         6.2190000000        6.2190000000        0.0000000000
 Au         0.0000000000        2.0730000000        2.0730000000
 Au         0.0000000000        6.2190000000        2.0730000000
 Au         2.0730000000        0.0000000000        2.0730000000
 Au         2.0730000000        4.1460000000        2.0730000000
 Au         4.1460000000        2.0730000000        2.0730000000
 Au         4.1460000000        6.2190000000        2.0730000000
 Au         6.2190000000        0.0000000000        2.0730000000
 Au         6.2190000000        4.1460000000        2.0730000000
 Au         0.0000000000        0.0000000000        4.1460000000
 Au         0.0000000000        4.1460000000        4.1460000000
 Au         2.0730000000        2.0730000000        4.1460000000
 Au         2.0730000000        6.2190000000        4.1460000000
 Au         4.1460000000        0.0000000000        4.1460000000
 Au         4.1460000000        4.1460000000        4.1460000000
 Au         6.2190000000        2.0730000000        4.1460000000
 Au         6.2190000000        6.2190000000        4.1460000000
 Au         0.0000000000        2.0730000000        6.2190000000
 Au         0.0000000000        6.2190000000        6.2190000000
 Au         2.0730000000        0.0000000000        6.2190000000
 Au         2.0730000000        4.1460000000        6.2190000000
 Au         4.1460000000        2.0730000000        6.2190000000
 Au         4.1460000000        6.2190000000        6.2190000000
 Au         6.2190000000        0.0000000000        6.2190000000
 Au         6.2190000000        4.1460000000        6.2190000000
 Au         0.0000000000        0.0000000000        8.2920000000
 Au         0.0000000000        4.1460000000        8.2920000000
 Au         2.0730000000        2.0730000000        8.2920000000
 Au         2.0730000000        6.2190000000        8.2920000000
 Au         4.1460000000        0.0000000000        8.2920000000
 Au         4.1460000000        4.1460000000        8.2920000000
 Au         6.2190000000        2.0730000000        8.2920000000
 Au         6.2190000000        6.2190000000        8.2920000000
 Au        -0.0000480377        2.0730902756       10.3346142024
 Au        -0.0000263334        6.2189332144       10.3436297858
 Au         2.0791868165        0.0112482972       10.3638462653
 Au         2.0789080971        4.1344430836       10.3636033162
 Au         4.1460122756        2.0728231791       10.3366556243
 Au         4.1459727086        6.2190904255       10.3167537164
 Au         6.2129086630        0.0112630454       10.3639067793
 Au         6.2131894900        4.1344309348       10.3636636444
 Au         0.0000519930       -0.0603214202       12.4566990567
 Au         0.0000525735        4.2064526878       12.4567903608
 Au         1.9135482293        2.0723614014       12.4483918938
 Au         2.0044558835        6.2195217263       12.4549221546
 Au         4.1459547234       -0.1710380293       12.4193393414
 Au         4.1459555268        4.3194726807       12.4184809155
 Au         6.3784332747        2.0723642223       12.4485705979
 Au         6.2875030390        6.2195220742       12.4548562374
  S         4.1458481220        2.0807340173       13.8170762034
  C         4.1435824701        2.1068633047       15.6093051377
  H         1.9892570559        2.0917294843       15.7540938812
  H         6.2974738645        2.0916399435       15.7609069481
  C         2.9258764998        2.0570845556       16.3080332546
  C         5.3595259685        2.0569909273       16.3124337644
  C         2.9218507817        2.0875956158       17.7035038116
  C         5.3576794180        2.0873621522       17.7077956405
  H         1.9845019465        2.0525401833       18.2563641662
  H         6.2937202129        2.0524457204       18.2629899050
  C         4.1388970803        2.0386730248       18.4033754335
  S         4.1395777405        2.0647590723       20.1922743298
 Au        -0.0065570602       -0.0701639669       21.5561981740
 Au        -0.0065798147        4.2159618003       21.5563130584
 Au         1.9098456553        2.0737791380       21.5554066830
 Au         1.9971254957        6.2184236077       21.5537949438
 Au         4.1365997196       -0.1634625597       21.5781681912
 Au         4.1366638771        4.3068955914       21.5771454602
 Au         6.3803139708        2.0737752867       21.5541902153
 Au         6.2190000000        6.2190000000       21.5800000000
 Au         0.0000000000        2.0730000000       23.6530000000
 Au         0.0000000000        6.2190000000       23.6530000000
 Au         2.0730000000        0.0000000000       23.6530000000
 Au         2.0730000000        4.1460000000       23.6530000000
 Au         4.1460000000        2.0730000000       23.6530000000
 Au         4.1460000000        6.2190000000       23.6530000000
 Au         6.2190000000        0.0000000000       23.6530000000
 Au         6.2190000000        4.1460000000       23.6530000000
 Au         0.0000000000        0.0000000000       25.7260000000
 Au         0.0000000000        4.1460000000       25.7260000000
 Au         2.0730000000        2.0730000000       25.7260000000
 Au         2.0730000000        6.2190000000       25.7260000000
 Au         4.1460000000        0.0000000000       25.7260000000
 Au         4.1460000000        4.1460000000       25.7260000000
 Au         6.2190000000        2.0730000000       25.7260000000
 Au         6.2190000000        6.2190000000       25.7260000000
 Au         0.0000000000        2.0730000000       27.7990000000
 Au         0.0000000000        6.2190000000       27.7990000000
 Au         2.0730000000        0.0000000000       27.7990000000
 Au         2.0730000000        4.1460000000       27.7990000000
 Au         4.1460000000        2.0730000000       27.7990000000
 Au         4.1460000000        6.2190000000       27.7990000000
 Au         6.2190000000        0.0000000000       27.7990000000
 Au         6.2190000000        4.1460000000       27.7990000000
 Au         0.0000000000        0.0000000000       29.8720000000
 Au         0.0000000000        4.1460000000       29.8720000000
 Au         2.0730000000        2.0730000000       29.8720000000
 Au         2.0730000000        6.2190000000       29.8720000000
 Au         4.1460000000        0.0000000000       29.8720000000
 Au         4.1460000000        4.1460000000       29.8720000000
 Au         6.2190000000        2.0730000000       29.8720000000
 Au         6.2190000000        6.2190000000       29.8720000000
 Au         0.0000000000        2.0730000000       31.9450000000
 Au         0.0000000000        6.2190000000       31.9450000000
 Au         2.0730000000        0.0000000000       31.9450000000
 Au         2.0730000000        4.1460000000       31.9450000000
 Au         4.1460000000        2.0730000000       31.9450000000
 Au         4.1460000000        6.2190000000       31.9450000000
 Au         6.2190000000        0.0000000000       31.9450000000
 Au         6.2190000000        4.1460000000       31.9450000000
     116
 i =        4, E =     -3518.0931349992
 Au         0.0000000000        0.0000000000        0.0000000000
 Au         0.0000000000        4.1460000000        0.0000000000
 Au         2.0730000000        2.0730000000        0.0000000000
 Au         2.0730000000        6.2190000000        0.0000000000
 Au         4.1460000000        0.0000000000        0.0000000000
 Au         4.1460000000        4.1460000000        0.0000000000
 Au         6.2190000000        2.0730000000        0.0000000000
 Au         6.2190000000        6.2190000000        0.0000000000
 Au         0.0000000000        2.0730000000        2.0730000000
 Au         0.0000000000        6.2190000000        2.0730000000
 Au         2.0730000000        0.0000000000        2.0730000000
 Au         2.0730000000        4.1460000000        2.0730000000
 Au         4.1460000000        2.0730000000        2.0730000000
 Au         4.1460000000        6.2190000000        2.0730000000
 Au         6.2190000000        0.0000000000        2.0730000000
 Au         6.2190000000        4.1460000000        2.0730000000
 Au         0.0000000000        0.0000000000        4.1460000000
 Au         0.0000000000        4.1460000000        4.1460000000
 Au         2.0730000000        2.0730000000        4.1460000000
 Au         2.0730000000        6.2190000000        4.1460000000
 Au         4.1460000000        0.0000000000        4.1460000000
 Au         4.1460000000        4.1460000000        4.1460000000
 Au         6.2190000000        2.0730000000        4.1460000000
 Au         6.2190000000        6.2190000000        4.1460000000
 Au         0.0000000000        2.0730000000        6.2190000000
 Au         0.0000000000        6.2190000000        6.2190000000
 Au         2.0730000000        0.0000000000        6.2190000000
 Au         2.0730000000        4.1460000000        6.2190000000
 Au         4.1460000000        2.0730000000        6.2190000000
 Au         4.1460000000        6.2190000000        6.2190000000
 Au         6.2190000000        0.0000000000        6.2190000000
 Au         6.2190000000        4.1460000000        6.2190000000
 Au         0.0000000000        0.0000000000        8.2920000000
 Au         0.0000000000        4.1460000000        8.2920000000
 Au         2.0730000000        2.0730000000        8.2920000000
 Au         2.0730000000        6.2190000000        8.2920000000
 Au         4.1460000000        0.0000000000        8.2920000000
 Au         4.1460000000        4.1460000000        8.2920000000
 Au         6.2190000000        2.0730000000        8.2920000000
 Au         6.2190000000        6.2190000000        8.2920000000
 Au        -0.0000602500        2.0730204462       10.3428971935
 Au        -0.0000136748        6.2188887175       10.3346695045
 Au         2.0796492322        0.0124618794       10.3684746540
 Au         2.0794532764        4.1332478750       10.3683086420
 Au         4.1460032694        2.0727880355       10.3398781885
 Au         4.1459702037        6.2189661630       10.3240714149
 Au         6.2124669831        0.0124763936       10.3685528128
 Au         6.2126667793        4.1332356288       10.3683866028
 Au         0.0000515477       -0.0548797409       12.4579916795
 Au         0.0000518917        4.2010398843       12.4580478702
 Au         1.9071261901        2.0720378847       12.4514245723
 Au         2.0089150617        6.2197011205       12.4552282903
 Au         4.1459678100       -0.1777061360       12.4198568752
 Au         4.1459672592        4.3273520333       12.4184749453
 Au         6.3849073623        2.0720431413       12.4516205659
 Au         6.2830187680        6.2197024249       12.4551890224
  S         4.1458531634        2.0835084220       13.8248433015
  C         4.1432238614        2.0848905065       15.6201828306
  H         1.9830447176        2.0876013302       15.7549252344
  H         6.3037392540        2.0874882772       15.7621853426
  C         2.9182245146        2.0784565926       16.3068647898
  C         5.3665521374        2.0784494850       16.3105341620
  C         2.9156276498        2.0662673380       17.7036160821
  C         5.3647058762        2.0661696938       17.7071777814
  H         1.9795355491        2.0567392080       18.2542120989
  H         6.2987722230        2.0566095580       18.2612916669
  C         4.1393434966        2.0602802959       18.3917189039
  S         4.1398575552        2.0621183348       20.1834386946
 Au        -0.0103014676       -0.0674389108       21.5527353582
 Au        -0.0104036729        4.2133065199       21.5528001192
 Au         1.9030866087        2.0741131314       21.5531890305
 Au         2.0010753591        6.2181874302       21.5491253732
 Au         4.1312735085       -0.1645069874       21.5760097285
 Au         4.1314534159        4.3067719166       21.5745541430
 Au         6.3853772387        2.0741135389       21.5517895653
 Au         6.2190000000        6.2190000000       21.5800000000
 Au         0.0000000000        2.0730000000       23.6530000000
 Au         0.0000000000        6.2190000000       23.6530000000
 Au         2.0730000000        0.0000000000       23.6530000000
 Au         2.0730000000        4.1460000000       23.6530000000
 Au         4.1460000000        2.0730000000       23.6530000000
 Au         4.1460000000        6.2190000000       23.6530000000
 Au         6.2190000000        0.0000000000       23.6530000000
 Au         6.2190000000        4.1460000000       23.6530000000
 Au         0.0000000000        0.0000000000       25.7260000000
 Au         0.0000000000        4.1460000000       25.7260000000
 Au         2.0730000000        2.0730000000       25.7260000000
 Au         2.0730000000        6.2190000000       25.7260000000
 Au         4.1460000000        0.0000000000       25.7260000000
 Au         4.1460000000        4.1460000000       25.7260000000
 Au         6.2190000000        2.0730000000       25.7260000000
 Au         6.2190000000        6.2190000000       25.7260000000
 Au         0.0000000000        2.0730000000       27.7990000000
 Au         0.0000000000        6.2190000000       27.7990000000
 Au         2.0730000000        0.0000000000       27.7990000000
 Au         2.0730000000        4.1460000000       27.7990000000
 Au         4.1460000000        2.0730000000       27.7990000000
 Au         4.1460000000        6.2190000000       27.7990000000
 Au         6.2190000000        0.0000000000       27.7990000000
 Au         6.2190000000        4.1460000000       27.7990000000
 Au         0.0000000000        0.0000000000       29.8720000000
 Au         0.0000000000        4.1460000000       29.8720000000
 Au         2.0730000000        2.0730000000       29.8720000000
 Au         2.0730000000        6.2190000000       29.8720000000
 Au         4.1460000000        0.0000000000       29.8720000000
 Au         4.1460000000        4.1460000000       29.8720000000
 Au         6.2190000000        2.0730000000       29.8720000000
 Au         6.2190000000        6.2190000000       29.8720000000
 Au         0.0000000000        2.0730000000       31.9450000000
 Au         0.0000000000        6.2190000000       31.9450000000