     116
 i =        1, E =     -3518.3387102820
 Au         0.0000000000        0.0000000000        0.0000000000
 Au         0.0000000000        4.1460000000        0.0000000000
 Au         2.0730000000        2.0730000000        0.0000000000
 Au         2.0730000000        6.2190000000        0.0000000000
 Au         4.1460000000        0.0000000000        0.0000000000
 Au         4.1460000000        4.1460000000        0.0000000000
 Au         6.2190000000        2.0730000000        0.0000000000
 Au         6.2190000000        6.2190000000        0.0000000000
 Au         0.0000000000        2.0730000000        2.0730000000
 Au         0.0000000000        6.2190000000        2.0730000000
 Au         2.0730000000        0.0000000000        2.0730000000
 Au         2.0730000000        4.1460000000        2.0730000000
 Au         4.1460000000        2.0730000000        2.0730000000
 Au         4.1460000000        6.2190000000        2.0730000000
 Au         6.2190000000        0.0000000000        2.0730000000
 Au         6.2190000000        4.1460000000        2.0730000000
 Au         0.0000000000        0.0000000000        4.1460000000
 Au         0.0000000000        4.1460000000        4.1460000000
 Au         2.0730000000        2.0730000000        4.1460000000
 Au         2.0730000000        6.2190000000        4.1460000000
 Au         4.1460000000        0.0000000000        4.1460000000
 Au         4.1460000000        4.1460000000        4.1460000000
 Au         6.2190000000        2.0730000000        4.1460000000
 Au         6.2190000000        6.2190000000        4.1460000000
 Au         0.0000000000        2.0730000000        6.2190000000
 Au         0.0000000000        6.2190000000        6.2190000000
 Au         2.0730000000        0.0000000000        6.2190000000
 Au         2.0730000000        4.1460000000        6.2190000000
 Au         4.1460000000        2.0730000000        6.2190000000
 Au         4.1460000000        6.2190000000        6.2190000000
 Au         6.2190000000        0.0000000000        6.2190000000
 Au         6.2190000000        4.1460000000        6.2190000000
 Au         0.0000000000        0.0000000000        8.2920000000
 Au         0.0000000000        4.1460000000        8.2920000000
 Au         2.0730000000        2.0730000000        8.2920000000
 Au         2.0730000000        6.2190000000        8.2920000000
 Au         4.1460000000        0.0000000000        8.2920000000
 Au         4.1460000000        4.1460000000        8.2920000000
 Au         6.2190000000        2.0730000000        8.2920000000
 Au         6.2190000000        6.2190000000        8.2920000000
 Au        -0.0000286394        2.0729841632       10.3805869413
 Au        -0.0000168933        6.2189505245       10.3612303468
 Au         2.0690971679       -0.0028346817       10.3520287608
 Au         2.0690990293        4.1489252367       10.3519615142
 Au         4.1459935748        2.0728953350       10.2747090215
 Au         4.1459900703        6.2188356874       10.3783191182
 Au         6.2229019420       -0.0028349926       10.3519842003
 Au         6.2229008038        4.1489259415       10.3519156939
 Au         0.0000428219       -0.0097255133       12.4385296468
 Au         0.0000436308        4.1558257463       12.4386543070
 Au         1.9584383725        2.0730781638       12.4460770872
 Au         2.0617357205        6.2189281032       12.4375364216
 Au         4.1459798632       -0.1176396514       12.4366136184
 Au         4.1459814366        4.2638361431       12.4363170578
 Au         6.3334847084        2.0730805886       12.4460620324
 Au         6.2302723918        6.2189291460       12.4375420702
  S         4.1461969625        2.0750488022       13.7916629796
  C         4.1442691607        2.0882602869       15.5550847186
  H         1.9955257165        2.0984020122       15.6657974463
  H         6.2932486428        2.0982680349       15.6746932552
  C         2.9175086015        2.0759283425       16.2181800426
  C         5.3664178348        2.0760550963       16.2196236826
  C         2.9159561336        2.0680872088       17.6143707467
  C         5.3635644536        2.0681550643       17.6153979162
  H         1.9877527019        2.0457823014       18.1593205160
  H         6.2860602904        2.0456284401       18.1689714467
  C         4.1377683391        2.0562290305       18.2794265647
  S         4.1427386691        2.0707379111       20.0440490138
 Au         0.0004735876       -0.0082191846       21.3960403567
 Au         0.0004677897        4.1541139978       21.3961794186
 Au         1.9564352277        2.0729550273       21.3889420662
 Au         2.0628954438        6.2190418210       21.3971720690
 Au         4.1465585101       -0.1204548027       21.3988411759
 Au         4.1465660191        4.2663018156       21.3985323102
 Au         6.3351324838        2.0729584711       21.3886258159
 Au         6.2190000000        6.2190000000       21.3960000000
 Au         0.0000000000        2.0730000000       23.4690000000
 Au         0.0000000000        6.2190000000       23.4690000000
 Au         2.0730000000        0.0000000000       23.4690000000
 Au         2.0730000000        4.1460000000       23.4690000000
 Au         4.1460000000        2.0730000000       23.4690000000
 Au         4.1460000000        6.2190000000       23.4690000000
 Au         6.2190000000        0.0000000000       23.4690000000
 Au         6.2190000000        4.1460000000       23.4690000000
 Au         0.0000000000        0.0000000000       25.5420000000
 Au         0.0000000000        4.1460000000       25.5420000000
 Au         2.0730000000        2.0730000000       25.5420000000
 Au         2.0730000000        6.2190000000       25.5420000000
 Au         4.1460000000        0.0000000000       25.5420000000
 Au         4.1460000000        4.1460000000       25.5420000000
 Au         6.2190000000        2.0730000000       25.5420000000
 Au         6.2190000000        6.2190000000       25.5420000000
 Au         0.0000000000        2.0730000000       27.6150000000
 Au         0.0000000000        6.2190000000       27.6150000000
 Au         2.0730000000        0.0000000000       27.6150000000
 Au         2.0730000000        4.1460000000       27.6150000000
 Au         4.1460000000        2.0730000000       27.6150000000
 Au         4.1460000000        6.2190000000       27.6150000000
 Au         6.2190000000        0.0000000000       27.6150000000
 Au         6.2190000000        4.1460000000       27.6150000000
 Au         0.0000000000        0.0000000000       29.6880000000
 Au         0.0000000000        4.1460000000       29.6880000000
 Au         2.0730000000        2.0730000000       29.6880000000
 Au         2.0730000000        6.2190000000       29.6880000000
 Au         4.1460000000        0.0000000000       29.6880000000
 Au         4.1460000000        4.1460000000       29.6880000000
 Au         6.2190000000        2.0730000000       29.6880000000
 Au         6.2190000000        6.2190000000       29.6880000000
 Au         0.0000000000        2.0730000000       31.7610000000
 Au         0.0000000000        6.2190000000       31.7610000000
 Au         2.0730000000        0.0000000000       31.7610000000
 Au         2.0730000000        4.1460000000       31.7610000000
 Au         4.1460000000        2.0730000000       31.7610000000
 Au         4.1460000000        6.2190000000       31.7610000000
 Au         6.2190000000        0.0000000000       31.7610000000
 Au         6.2190000000        4.1460000000       31.7610000000
     116
 i =        2, E =     -3518.3431342658
 Au         0.0000000000        0.0000000000        0.0000000000
 Au         0.0000000000        4.1460000000        0.0000000000
 Au         2.0730000000        2.0730000000        0.0000000000
 Au         2.0730000000        6.2190000000        0.0000000000
 Au         4.1460000000        0.0000000000        0.0000000000
 Au         4.1460000000        4.1460000000        0.0000000000
 Au         6.2190000000        2.0730000000        0.0000000000
 Au         6.2190000000        6.2190000000        0.0000000000
 Au         0.0000000000        2.0730000000        2.0730000000
 Au         0.0000000000        6.2190000000        2.0730000000
 Au         2.0730000000        0.0000000000        2.0730000000
 Au         2.0730000000        4.1460000000        2.0730000000
 Au         4.1460000000        2.0730000000        2.0730000000
 Au         4.1460000000        6.2190000000        2.0730000000
 Au         6.2190000000        0.0000000000        2.0730000000
 Au         6.2190000000        4.1460000000        2.0730000000
 Au         0.0000000000        0.0000000000        4.1460000000
 Au         0.0000000000        4.1460000000        4.1460000000
 Au         2.0730000000        2.0730000000        4.1460000000
 Au         2.0730000000        6.2190000000        4.1460000000
 Au         4.1460000000        0.0000000000        4.1460000000
 Au         4.1460000000        4.1460000000        4.1460000000
 Au         6.2190000000        2.0730000000        4.1460000000
 Au         6.2190000000        6.2190000000        4.1460000000
 Au         0.0000000000        2.0730000000        6.2190000000
 Au         0.0000000000        6.2190000000        6.2190000000
 Au         2.0730000000        0.0000000000        6.2190000000
 Au         2.0730000000        4.1460000000        6.2190000000
 Au         4.1460000000        2.0730000000        6.2190000000
 Au         4.1460000000        6.2190000000        6.2190000000
 Au         6.2190000000        0.0000000000        6.2190000000
 Au         6.2190000000        4.1460000000        6.2190000000
 Au         0.0000000000        0.0000000000        8.2920000000
 Au         0.0000000000        4.1460000000        8.2920000000
 Au         2.0730000000        2.0730000000        8.2920000000
 Au         2.0730000000        6.2190000000        8.2920000000
 Au         4.1460000000        0.0000000000        8.2920000000
 Au         4.1460000000        4.1460000000        8.2920000000
 Au         6.2190000000        2.0730000000        8.2920000000
 Au         6.2190000000        6.2190000000        8.2920000000
 Au        -0.0000070224        2.0730043523       10.3624132338
 Au        -0.0000305887        6.2189336195       10.3612438214
 Au         2.0758827366        0.0056271360       10.3578996655
 Au         2.0758476685        4.1404417407       10.3576568075
 Au         4.1460216510        2.0727517020       10.3076533770
 Au         4.1459927079        6.2185704673       10.3544466149
 Au         6.2161220337        0.0056174395       10.3579093131
 Au         6.2161598144        4.1404532552       10.3576639554
 Au         0.0000606123       -0.0411223915       12.4459106449
 Au         0.0000627471        4.1873423970       12.4461617035
 Au         1.9398696369        2.0728748155       12.4515522068
 Au         2.0275672606        6.2190848054       12.4440876129
 Au         4.1459560483       -0.1370406357       12.4345287397
 Au         4.1459559500        4.2841215003       12.4337787958
 Au         6.3519635721        2.0728757539       12.4516332868
 Au         6.2644289838        6.2190868405       12.4440224572
  S         4.1458679296        2.0790263670       13.7873889374
  C         4.1440969339        2.0782713912       15.5454216295
  H         1.9973325559        2.0921108237       15.6590927521
  H         6.2903835705        2.0920201384       15.6667418904
  C         2.9300811671        2.0894013868       16.2244457442
  C         5.3551472251        2.0892359774       16.2282768945
  C         2.9265375675        2.0551762018       17.6048209304
  C         5.3524306832        2.0550611332       17.6083455368
  H         1.9910339988        2.0520565461       18.1674318996
  H         6.2849129906        2.0519176260       18.1753706227
  C         4.1381847009        2.0662414621       18.2862220346
  S         4.1411577829        2.0666301724       20.0439847621
 Au        -0.0009929579       -0.0388301906       21.3874772749
 Au        -0.0009918983        4.1845482315       21.3877555007
 Au         1.9306105264        2.0732324043       21.3748906251
 Au         2.0298613275        6.2188775457       21.3885254142
 Au         4.1452283480       -0.1457520679       21.3914138299
 Au         4.1452255116        4.2905617895       21.3906220336
 Au         6.3608639133        2.0732301391       21.3745517861
 Au         6.2190000000        6.2190000000       21.3960000000
 Au         0.0000000000        2.0730000000       23.4690000000
 Au         0.0000000000        6.2190000000       23.4690000000
 Au         2.0730000000        0.0000000000       23.4690000000
 Au         2.0730000000        4.1460000000       23.4690000000
 Au         4.1460000000        2.0730000000       23.4690000000
 Au         4.1460000000        6.2190000000       23.4690000000
 Au         6.2190000000        0.0000000000       23.4690000000
 Au         6.2190000000        4.1460000000       23.4690000000
 Au         0.0000000000        0.0000000000       25.5420000000
 Au         0.0000000000        4.1460000000       25.5420000000
 Au         2.0730000000        2.0730000000       25.5420000000
 Au         2.0730000000        6.2190000000       25.5420000000
 Au         4.1460000000        0.0000000000       25.5420000000
 Au         4.1460000000        4.1460000000       25.5420000000
 Au         6.2190000000        2.0730000000       25.5420000000
 Au         6.2190000000        6.2190000000       25.5420000000
 Au         0.0000000000        2.0730000000       27.6150000000
 Au         0.0000000000        6.2190000000       27.6150000000
 Au         2.0730000000        0.0000000000       27.6150000000
 Au         2.0730000000        4.1460000000       27.6150000000
 Au         4.1460000000        2.0730000000       27.6150000000
 Au         4.1460000000        6.2190000000       27.6150000000
 Au         6.2190000000        0.0000000000       27.6150000000
 Au         6.2190000000        4.1460000000       27.6150000000
 Au         0.0000000000        0.0000000000       29.6880000000
 Au         0.0000000000        4.1460000000       29.6880000000
 Au         2.0730000000        2.0730000000       29.6880000000
 Au         2.0730000000        6.2190000000       29.6880000000
 Au         4.1460000000        0.0000000000       29.6880000000
 Au         4.1460000000        4.1460000000       29.6880000000
 Au         6.2190000000        2.0730000000       29.6880000000
 Au         6.2190000000        6.2190000000       29.6880000000
 Au         0.0000000000        2.0730000000       31.7610000000
 Au         0.0000000000        6.2190000000       31.7610000000
 Au         2.0730000000        0.0000000000       31.7610000000
 Au         2.0730000000        4.1460000000       31.7610000000
 Au         4.1460000000        2.0730000000       31.7610000000
 Au         4.1460000000        6.2190000000       31.7610000000
 Au         6.2190000000        0.0000000000       31.7610000000
 Au         6.2190000000        4.1460000000       31.7610000000
     116
 i =        3, E =     -3518.3436994531
 Au         0.0000000000        0.0000000000        0.0000000000
 Au         0.0000000000        4.1460000000        0.0000000000
 Au         2.0730000000        2.0730000000        0.0000000000
 Au         2.0730000000        6.2190000000        0.0000000000
 Au         4.1460000000        0.0000000000        0.0000000000
 Au         4.1460000000        4.1460000000        0.0000000000
 Au         6.2190000000        2.0730000000        0.0000000000
 Au         6.2190000000        6.2190000000        0.0000000000
 Au         0.0000000000        2.0730000000        2.0730000000
 Au         0.0000000000        6.2190000000        2.0730000000
 Au         2.0730000000        0.0000000000        2.0730000000
 Au         2.0730000000        4.1460000000        2.0730000000
 Au         4.1460000000        2.0730000000        2.0730000000
 Au         4.1460000000        6.2190000000        2.0730000000
 Au         6.2190000000        0.0000000000        2.0730000000
 Au         6.2190000000        4.1460000000        2.0730000000
 Au         0.0000000000        0.0000000000        4.1460000000
 Au         0.0000000000        4.1460000000        4.1460000000
 Au         2.0730000000        2.0730000000        4.1460000000
 Au         2.0730000000        6.2190000000        4.1460000000
 Au         4.1460000000        0.0000000000        4.1460000000
 Au         4.1460000000        4.1460000000        4.1460000000
 Au         6.2190000000        2.0730000000        4.1460000000
 Au         6.2190000000        6.2190000000        4.1460000000
 Au         0.0000000000        2.0730000000        6.2190000000
 Au         0.0000000000        6.2190000000        6.2190000000
 Au         2.0730000000        0.0000000000        6.2190000000
 Au         2.0730000000        4.1460000000        6.2190000000
 Au         4.1460000000        2.0730000000        6.2190000000
 Au         4.1460000000        6.2190000000        6.2190000000
 Au         6.2190000000        0.0000000000        6.2190000000
 Au         6.2190000000        4.1460000000        6.2190000000
 Au         0.0000000000        0.0000000000        8.2920000000
 Au         0.0000000000        4.1460000000        8.2920000000
 Au         2.0730000000        2.0730000000        8.2920000000
 Au         2.0730000000        6.2190000000        8.2920000000
 Au         4.1460000000        0.0000000000        8.2920000000
 Au         4.1460000000        4.1460000000        8.2920000000
 Au         6.2190000000        2.0730000000        8.2920000000
 Au         6.2190000000        6.2190000000        8.2920000000
 Au        -0.0000499583        2.0730653289       10.3571150519
 Au        -0.0000326887        6.2189189799       10.3408673408
 Au         2.0815627569        0.0132293356       10.3664199408
 Au         2.0813104919        4.1325130996       10.3661399622
 Au         4.1460230824        2.0727785870       10.3393401338
 Au         4.1459738958        6.2188891666       10.3430884972
 Au         6.2105235646        0.0132323888       10.3664896826
 Au         6.2107787787        4.1325127704       10.3662100205
 Au         0.0000649593       -0.0548422038       12.4547561364
 Au         0.0000650522        4.2011052134       12.4549358928
 Au         1.9219343427        2.0724602680       12.4605289600
 Au         2.0108392862        6.2194969238       12.4511936992
 Au         4.1459317231       -0.1562508766       12.4339580941
 Au         4.1459324302        4.3042445367       12.4334943511
 Au         6.3699462773        2.0724632136       12.4606147915
 Au         6.2811256397        6.2194970068       12.4510967658
  S         4.1457726003        2.0809806920       13.7850017249
  C         4.1434399097        2.0986656784       15.5385985679
  H         1.9970913772        2.0900982527       15.6559577619
  H         6.2898242203        2.0899703233       15.6633739266
  C         2.9342797040        2.0675100558       16.2264309881
  C         5.3509192015        2.0673732618       16.2309888284
  C         2.9309330285        2.0771329561       17.6007542984
  C         5.3486416300        2.0769376871       17.6051700739
  H         1.9926729147        2.0541786082       18.1701533535
  H         6.2850709841        2.0540324235       18.1774264530
  C         4.1389530483        2.0463345123       18.2910342323
  S         4.1396161028        2.0644814024       20.0421632647
 Au        -0.0063639656       -0.0621778133       21.3763205622
 Au        -0.0063907622        4.2078298120       21.3765447446
 Au         1.9124221096        2.0737068226       21.3611856744
 Au         2.0061427770        6.2184217286       21.3755719098
 Au         4.1379073768       -0.1566656396       21.3821354645
 Au         4.1379728814        4.3004801595       21.3815804781
 Au         6.3783437576        2.0737113916       21.3606321672
 Au         6.2190000000        6.2190000000       21.3960000000
 Au         0.0000000000        2.0730000000       23.4690000000
 Au         0.0000000000        6.2190000000       23.4690000000
 Au         2.0730000000        0.0000000000       23.4690000000
 Au         2.0730000000        4.1460000000       23.4690000000
 Au         4.1460000000        2.0730000000       23.4690000000
 Au         4.1460000000        6.2190000000       23.4690000000
 Au         6.2190000000        0.0000000000       23.4690000000
 Au         6.2190000000        4.1460000000       23.4690000000
 Au         0.0000000000        0.0000000000       25.5420000000
 Au         0.0000000000        4.1460000000       25.5420000000
 Au         2.0730000000        2.0730000000       25.5420000000
 Au         2.0730000000        6.2190000000       25.5420000000
 Au         4.1460000000        0.0000000000       25.5420000000
 Au         4.1460000000        4.1460000000       25.5420000000
 Au         6.2190000000        2.0730000000       25.5420000000
 Au         6.2190000000        6.2190000000       25.5420000000
 Au         0.0000000000        2.0730000000       27.6150000000
 Au         0.0000000000        6.2190000000       27.6150000000
 Au         2.0730000000        0.0000000000       27.6150000000
 Au         2.0730000000        4.1460000000       27.6150000000
 Au         4.1460000000        2.0730000000       27.6150000000
 Au         4.1460000000        6.2190000000       27.6150000000
 Au         6.2190000000        0.0000000000       27.6150000000
 Au         6.2190000000        4.1460000000       27.6150000000
 Au         0.0000000000        0.0000000000       29.6880000000
 Au         0.0000000000        4.1460000000       29.6880000000
 Au         2.0730000000        2.0730000000       29.6880000000
 Au         2.0730000000        6.2190000000       29.6880000000
 Au         4.1460000000        0.0000000000       29.6880000000
 Au         4.1460000000        4.1460000000       29.6880000000
 Au         6.2190000000        2.0730000000       29.6880000000
 Au         6.2190000000        6.2190000000       29.6880000000
 Au         0.0000000000        2.0730000000       31.7610000000
 Au         0.0000000000        6.2190000000       31.7610000000
 Au         2.0730000000        0.0000000000       31.7610000000
 Au         2.0730000000        4.1460000000       31.7610000000
 Au         4.1460000000        2.0730000000       31.7610000000
 Au         4.1460000000        6.2190000000       31.7610000000
 Au         6.2190000000        0.0000000000       31.7610000000
 Au         6.2190000000        4.1460000000       31.7610000000
     116
 i =        4, E =     -3518.3444742516
 Au         0.0000000000        0.0000000000        0.0000000000
 Au         0.0000000000        4.1460000000        0.0000000000
 Au         2.0730000000        2.0730000000        0.0000000000
 Au         2.0730000000        6.2190000000        0.0000000000
 Au         4.1460000000        0.0000000000        0.0000000000
 Au         4.1460000000        4.1460000000        0.0000000000
 Au         6.2190000000        2.0730000000        0.0000000000
 Au         6.2190000000        6.2190000000        0.0000000000
 Au         0.0000000000        2.0730000000        2.0730000000
 Au         0.0000000000        6.2190000000        2.0730000000
 Au         2.0730000000        0.0000000000        2.0730000000
 Au         2.0730000000        4.1460000000        2.0730000000
 Au         4.1460000000        2.0730000000        2.0730000000
 Au         4.1460000000        6.2190000000        2.0730000000
 Au         6.2190000000        0.0000000000        2.0730000000
 Au         6.2190000000        4.1460000000        2.0730000000
 Au         0.0000000000        0.0000000000        4.1460000000
 Au         0.0000000000        4.1460000000        4.1460000000
 Au         2.0730000000        2.0730000000        4.1460000000
 Au         2.0730000000        6.2190000000        4.1460000000
 Au         4.1460000000        0.0000000000        4.1460000000
 Au         4.1460000000        4.1460000000        4.1460000000
 Au         6.2190000000        2.0730000000        4.1460000000
 Au         6.2190000000        6.2190000000        4.1460000000
 Au         0.0000000000        2.0730000000        6.2190000000
 Au         0.0000000000        6.2190000000        6.2190000000
 Au         2.0730000000        0.0000000000        6.2190000000
 Au         2.0730000000        4.1460000000        6.2190000000
 Au         4.1460000000        2.0730000000        6.2190000000
 Au         4.1460000000        6.2190000000        6.2190000000
 Au         6.2190000000        0.0000000000        6.2190000000
 Au         6.2190000000        4.1460000000        6.2190000000
 Au         0.0000000000        0.0000000000        8.2920000000
 Au         0.0000000000        4.1460000000        8.2920000000
 Au         2.0730000000        2.0730000000        8.2920000000
 Au         2.0730000000        6.2190000000        8.2920000000
 Au         4.1460000000        0.0000000000        8.2920000000
 Au         4.1460000000        4.1460000000        8.2920000000
 Au         6.2190000000        2.0730000000        8.2920000000
 Au         6.2190000000        6.2190000000        8.2920000000
 Au        -0.0000432447        2.0729865184       10.3607270753
 Au        -0.0000077075        6.2188653034       10.3301723149
 Au         2.0818266375        0.0148005306       10.3703021549
 Au         2.0816758734        4.1309591752       10.3701352523
 Au         4.1460131153        2.0727513274       10.3454269993
 Au         4.1459675902        6.2186574214       10.3439991403
 Au         6.2102809605        0.0147986247       10.3703930378
 Au         6.2104365874        4.1309636238       10.3702260611
 Au         0.0000620869       -0.0519604738       12.4575828081
 Au         0.0000623580        4.1982663382       12.4576791471
 Au         1.9157922594        2.0720684551       12.4678408145
 Au         2.0123720207        6.2197262832       12.4526943460
 Au         4.1459446624       -0.1627816280       12.4369637014
 Au         4.1459435060        4.3119305734       12.4364381199
 Au         6.3761549755        2.0720740469       12.4679278624
 Au         6.2795514333        6.2197274769       12.4526522074
  S         4.1457826452        2.0836643927       13.7870365773
  C         4.1431718946        2.0850597591       15.5395661953
  H         1.9947821140        2.0870026579       15.6566025628
  H         6.2920055395        2.0868484997       15.6642421328
  C         2.9312286484        2.0797473142       16.2250330588
  C         5.3534820303        2.0796946408       16.2291027625
  C         2.9291689806        2.0649712275       17.6015283465
  C         5.3509770798        2.0648785160       17.6055217436
  H         1.9914399812        2.0573589938       18.1680564467
  H         6.2866554927        2.0571858967       18.1754814960
  C         4.1391942174        2.0597993964       18.2903401797
  S         4.1392499104        2.0618413138       20.0401375354
 Au        -0.0105546632       -0.0624485784       21.3710746546
 Au        -0.0106775537        4.2081755372       21.3712023409
 Au         1.9073708325        2.0741091003       21.3571667234
 Au         2.0070375201        6.2181137633       21.3688986332
 Au         4.1316253005       -0.1551216182       21.3792084376
 Au         4.1318284027        4.2978442870       21.3786827076
 Au         6.3815154713        2.0741186924       21.3566310008
 Au         6.2190000000        6.2190000000       21.3960000000
 Au         0.0000000000        2.0730000000       23.4690000000
 Au         0.0000000000        6.2190000000       23.4690000000
 Au         2.0730000000        0.0000000000       23.4690000000
 Au         2.0730000000        4.1460000000       23.4690000000
 Au         4.1460000000        2.0730000000       23.4690000000
 Au         4.1460000000        6.2190000000       23.4690000000
 Au         6.2190000000        0.0000000000       23.4690000000
 Au         6.2190000000        4.1460000000       23.4690000000
 Au         0.0000000000        0.0000000000       25.5420000000
 Au         0.0000000000        4.1460000000       25.5420000000
 Au         2.0730000000        2.0730000000       25.5420000000
 Au         2.0730000000        6.2190000000       25.5420000000
 Au         4.1460000000        0.0000000000       25.5420000000
 Au         4.1460000000        4.1460000000       25.5420000000
 Au         6.2190000000        2.0730000000       25.5420000000
 Au         6.2190000000        6.2190000000       25.5420000000
 Au         0.0000000000        2.0730000000       27.6150000000
 Au         0.0000000000        6.2190000000       27.6150000000
 Au         2.0730000000        0.0000000000       27.6150000000
 Au         2.0730000000        4.1460000000       27.6150000000
 Au         4.1460000000        2.0730000000       27.6150000000
 Au         4.1460000000        6.2190000000       27.6150000000
 Au         6.2190000000        0.0000000000       27.6150000000
 Au         6.2190000000        4.1460000000       27.6150000000
 Au         0.0000000000        0.0000000000       29.6880000000
 Au         0.0000000000        4.1460000000       29.6880000000
 Au         2.0730000000        2.0730000000       29.6880000000
 Au         2.0730000000        6.2190000000       29.6880000000
 Au         4.1460000000        0.0000000000       29.6880000000
 Au         4.1460000000        4.1460000000       29.6880000000
 Au         6.2190000000        2.0730000000       29.6880000000
 Au         6.2190000000        6.2190000000       29.6880000000
 Au         0.0000000000        2.0730000000       31.7610000000
 Au         0.0000000000        6.2190000000       31.7610000000