ATOMS
H             3.25353201      5.72009504     18.92650888            -0.02702693      0.70657444     -0.00470207
H             3.25943367      5.72541275     19.67645804             0.02702693     -0.70657444      0.00470207
