ATOMS
H             3.25353201      5.72009504     18.92650888            -0.00073628      0.67311040      0.21661451
H             3.25943367      5.72541275     19.67645804            -0.00073628      0.67311040      0.21661451
