ATOMS
H             3.25353201      5.72009504     18.92650888            -0.00008653     -0.21661471      0.67311073
H             3.25943367      5.72541275     19.67645804            -0.00008653     -0.21661471      0.67311073
