     116
 i =        1, E =     -3518.0757555780
 Au         0.0000000000        0.0000000000        0.0000000000
 Au         0.0000000000        4.1460000000        0.0000000000
 Au         2.0730000000        2.0730000000        0.0000000000
 Au         2.0730000000        6.2190000000        0.0000000000
 Au         4.1460000000        0.0000000000        0.0000000000
 Au         4.1460000000        4.1460000000        0.0000000000
 Au         6.2190000000        2.0730000000        0.0000000000
 Au         6.2190000000        6.2190000000        0.0000000000
 Au         0.0000000000        2.0730000000        2.0730000000
 Au         0.0000000000        6.2190000000        2.0730000000
 Au         2.0730000000        0.0000000000        2.0730000000
 Au         2.0730000000        4.1460000000        2.0730000000
 Au         4.1460000000        2.0730000000        2.0730000000
 Au         4.1460000000        6.2190000000        2.0730000000
 Au         6.2190000000        0.0000000000        2.0730000000
 Au         6.2190000000        4.1460000000        2.0730000000
 Au         0.0000000000        0.0000000000        4.1460000000
 Au         0.0000000000        4.1460000000        4.1460000000
 Au         2.0730000000        2.0730000000        4.1460000000
 Au         2.0730000000        6.2190000000        4.1460000000
 Au         4.1460000000        0.0000000000        4.1460000000
 Au         4.1460000000        4.1460000000        4.1460000000
 Au         6.2190000000        2.0730000000        4.1460000000
 Au         6.2190000000        6.2190000000        4.1460000000
 Au         0.0000000000        2.0730000000        6.2190000000
 Au         0.0000000000        6.2190000000        6.2190000000
 Au         2.0730000000        0.0000000000        6.2190000000
 Au         2.0730000000        4.1460000000        6.2190000000
 Au         4.1460000000        2.0730000000        6.2190000000
 Au         4.1460000000        6.2190000000        6.2190000000
 Au         6.2190000000        0.0000000000        6.2190000000
 Au         6.2190000000        4.1460000000        6.2190000000
 Au         0.0000000000        0.0000000000        8.2920000000
 Au         0.0000000000        4.1460000000        8.2920000000
 Au         2.0730000000        2.0730000000        8.2920000000
 Au         2.0730000000        6.2190000000        8.2920000000
 Au         4.1460000000        0.0000000000        8.2920000000
 Au         4.1460000000        4.1460000000        8.2920000000
 Au         6.2190000000        2.0730000000        8.2920000000
 Au         6.2190000000        6.2190000000        8.2920000000
 Au        -0.0000675827        2.0730039437       10.3774022769
 Au        -0.0000132193        6.2189489368       10.3569423737
 Au         2.0733833765        0.0011803253       10.3571543328
 Au         2.0733643429        4.1448962494       10.3570796010
 Au         4.1459841498        2.0729379762       10.3298270379
 Au         4.1459882166        6.2188694600       10.3767601140
 Au         6.2186460082        0.0011970795       10.3571528868
 Au         6.2186656044        4.1448795511       10.3570769290
 Au         0.0000050984       -0.0043735492       12.4432098482
 Au         0.0000056996        4.1504477110       12.4432652426
 Au         2.0158006927        2.0730803828       12.4714377070
 Au         2.0685376690        6.2190038917       12.4430105807
 Au         4.1459865001       -0.0655111128       12.4570701227
 Au         4.1459878157        4.2107608425       12.4576428247
 Au         6.2760918378        2.0730822855       12.4715616948
 Au         6.2234781145        6.2190045343       12.4430192196
  S         4.1464974617        2.0759325011       14.2025763802
  C         4.1432504989        2.0911341447       15.9957337796
  H         1.9957635841        2.0971690685       16.1787781273
  H         6.2925627695        2.0970134329       16.1888433811
  C         2.9301935817        2.0743694345       16.7135429330
  C         5.3528288391        2.0745364596       16.7150107392
  C         2.9289614076        2.0696043511       18.1219821919
  C         5.3519019590        2.0696908295       18.1229493039
  H         1.9872614329        2.0470224595       18.6480389547
  H         6.2873766615        2.0468388237       18.6583963010
  C         4.1390658128        2.0539133422       18.8404589356
  S         4.1403057916        2.0695874164       20.6342414020
 Au        -0.0000631829       -0.0044080813       22.3937162648
 Au        -0.0000631644        4.1503284789       22.3937745345
 Au         2.0162039786        2.0729464182       22.3651761640
 Au         2.0685463203        6.2189581208       22.3939706576
 Au         4.1460206603       -0.0648992577       22.3793872260
 Au         4.1460205024        4.2118213878       22.3800576805
 Au         6.2770113141        2.0729471305       22.3660551431
 Au         6.2190000000        6.2190000000       22.3990000000
 Au         0.0000000000        2.0730000000       24.4720000000
 Au         0.0000000000        6.2190000000       24.4720000000
 Au         2.0730000000        0.0000000000       24.4720000000
 Au         2.0730000000        4.1460000000       24.4720000000
 Au         4.1460000000        2.0730000000       24.4720000000
 Au         4.1460000000        6.2190000000       24.4720000000
 Au         6.2190000000        0.0000000000       24.4720000000
 Au         6.2190000000        4.1460000000       24.4720000000
 Au         0.0000000000        0.0000000000       26.5450000000
 Au         0.0000000000        4.1460000000       26.5450000000
 Au         2.0730000000        2.0730000000       26.5450000000
 Au         2.0730000000        6.2190000000       26.5450000000
 Au         4.1460000000        0.0000000000       26.5450000000
 Au         4.1460000000        4.1460000000       26.5450000000
 Au         6.2190000000        2.0730000000       26.5450000000
 Au         6.2190000000        6.2190000000       26.5450000000
 Au         0.0000000000        2.0730000000       28.6180000000
 Au         0.0000000000        6.2190000000       28.6180000000
 Au         2.0730000000        0.0000000000       28.6180000000
 Au         2.0730000000        4.1460000000       28.6180000000
 Au         4.1460000000        2.0730000000       28.6180000000
 Au         4.1460000000        6.2190000000       28.6180000000
 Au         6.2190000000        0.0000000000       28.6180000000
 Au         6.2190000000        4.1460000000       28.6180000000
 Au         0.0000000000        0.0000000000       30.6910000000
 Au         0.0000000000        4.1460000000       30.6910000000
 Au         2.0730000000        2.0730000000       30.6910000000
 Au         2.0730000000        6.2190000000       30.6910000000
 Au         4.1460000000        0.0000000000       30.6910000000
 Au         4.1460000000        4.1460000000       30.6910000000
 Au         6.2190000000        2.0730000000       30.6910000000
 Au         6.2190000000        6.2190000000       30.6910000000
 Au         0.0000000000        2.0730000000       32.7640000000
 Au         0.0000000000        6.2190000000       32.7640000000
 Au         2.0730000000        0.0000000000       32.7640000000
 Au         2.0730000000        4.1460000000       32.7640000000
 Au         4.1460000000        2.0730000000       32.7640000000
 Au         4.1460000000        6.2190000000       32.7640000000
 Au         6.2190000000        0.0000000000       32.7640000000
 Au         6.2190000000        4.1460000000       32.7640000000
     116
 i =        2, E =     -3518.0779476811
 Au         0.0000000000        0.0000000000        0.0000000000
 Au         0.0000000000        4.1460000000        0.0000000000
 Au         2.0730000000        2.0730000000        0.0000000000
 Au         2.0730000000        6.2190000000        0.0000000000
 Au         4.1460000000        0.0000000000        0.0000000000
 Au         4.1460000000        4.1460000000        0.0000000000
 Au         6.2190000000        2.0730000000        0.0000000000
 Au         6.2190000000        6.2190000000        0.0000000000
 Au         0.0000000000        2.0730000000        2.0730000000
 Au         0.0000000000        6.2190000000        2.0730000000
 Au         2.0730000000        0.0000000000        2.0730000000
 Au         2.0730000000        4.1460000000        2.0730000000
 Au         4.1460000000        2.0730000000        2.0730000000
 Au         4.1460000000        6.2190000000        2.0730000000
 Au         6.2190000000        0.0000000000        2.0730000000
 Au         6.2190000000        4.1460000000        2.0730000000
 Au         0.0000000000        0.0000000000        4.1460000000
 Au         0.0000000000        4.1460000000        4.1460000000
 Au         2.0730000000        2.0730000000        4.1460000000
 Au         2.0730000000        6.2190000000        4.1460000000
 Au         4.1460000000        0.0000000000        4.1460000000
 Au         4.1460000000        4.1460000000        4.1460000000
 Au         6.2190000000        2.0730000000        4.1460000000
 Au         6.2190000000        6.2190000000        4.1460000000
 Au         0.0000000000        2.0730000000        6.2190000000
 Au         0.0000000000        6.2190000000        6.2190000000
 Au         2.0730000000        0.0000000000        6.2190000000
 Au         2.0730000000        4.1460000000        6.2190000000
 Au         4.1460000000        2.0730000000        6.2190000000
 Au         4.1460000000        6.2190000000        6.2190000000
 Au         6.2190000000        0.0000000000        6.2190000000
 Au         6.2190000000        4.1460000000        6.2190000000
 Au         0.0000000000        0.0000000000        8.2920000000
 Au         0.0000000000        4.1460000000        8.2920000000
 Au         2.0730000000        2.0730000000        8.2920000000
 Au         2.0730000000        6.2190000000        8.2920000000
 Au         4.1460000000        0.0000000000        8.2920000000
 Au         4.1460000000        4.1460000000        8.2920000000
 Au         6.2190000000        2.0730000000        8.2920000000
 Au         6.2190000000        6.2190000000        8.2920000000
 Au         0.0000410060        2.0730430158       10.3788676908
 Au         0.0000159662        6.2189457420       10.3596132905
 Au         2.0785336305        0.0094622116       10.3637373921
 Au         2.0786106096        4.1367236024       10.3635895166
 Au         4.1460328884        2.0728162211       10.3578483850
 Au         4.1460105772        6.2182305114       10.3694819641
 Au         6.2134129171        0.0094610223       10.3637762769
 Au         6.2133378685        4.1367259739       10.3636254905
 Au         0.0000282359       -0.0253813089       12.4487836808
 Au         0.0000311200        4.1716355335       12.4488924786
 Au         2.0025726404        2.0728066883       12.5005604578
 Au         2.0439452359        6.2190773427       12.4490618467
 Au         4.1459772869       -0.0841009672       12.4739510925
 Au         4.1459781321        4.2288915833       12.4753213565
 Au         6.2896137266        2.0728080833       12.5006356123
 Au         6.2480128189        6.2190798222       12.4490493727
  S         4.1456683658        2.0838352342       14.1762324020
  C         4.1445497440        2.0672361390       15.9931095401
  H         1.9776267202        2.0873524446       16.1808114472
  H         6.3085216306        2.0873177247       16.1876940200
  C         2.9288403558        2.1005214931       16.7138838301
  C         5.3570737429        2.1002123157       16.7203625002
  C         2.9257113390        2.0448941200       18.1155299492
  C         5.3530207123        2.0447415624       18.1218054347
  H         1.9739260287        2.0566743626       18.6485949437
  H         6.3043628044        2.0565600197       18.6554350582
  C         4.1378867381        2.0769752413       18.8434679621
  S         4.1392638489        2.0616916144       20.6604496115
 Au        -0.0002958954       -0.0215544466       22.3864650916
 Au        -0.0003016329        4.1672517549       22.3865687112
 Au         1.9958058719        2.0733249736       22.3330143205
 Au         2.0478434892        6.2188884859       22.3857383888
 Au         4.1458023107       -0.0884104191       22.3580104034
 Au         4.1458050410        4.2354303503       22.3594253237
 Au         6.2953189805        2.0733237423       22.3337279694
 Au         6.2190000000        6.2190000000       22.3990000000
 Au         0.0000000000        2.0730000000       24.4720000000
 Au         0.0000000000        6.2190000000       24.4720000000
 Au         2.0730000000        0.0000000000       24.4720000000
 Au         2.0730000000        4.1460000000       24.4720000000
 Au         4.1460000000        2.0730000000       24.4720000000
 Au         4.1460000000        6.2190000000       24.4720000000
 Au         6.2190000000        0.0000000000       24.4720000000
 Au         6.2190000000        4.1460000000       24.4720000000
 Au         0.0000000000        0.0000000000       26.5450000000
 Au         0.0000000000        4.1460000000       26.5450000000
 Au         2.0730000000        2.0730000000       26.5450000000
 Au         2.0730000000        6.2190000000       26.5450000000
 Au         4.1460000000        0.0000000000       26.5450000000
 Au         4.1460000000        4.1460000000       26.5450000000
 Au         6.2190000000        2.0730000000       26.5450000000
 Au         6.2190000000        6.2190000000       26.5450000000
 Au         0.0000000000        2.0730000000       28.6180000000
 Au         0.0000000000        6.2190000000       28.6180000000
 Au         2.0730000000        0.0000000000       28.6180000000
 Au         2.0730000000        4.1460000000       28.6180000000
 Au         4.1460000000        2.0730000000       28.6180000000
 Au         4.1460000000        6.2190000000       28.6180000000
 Au         6.2190000000        0.0000000000       28.6180000000
 Au         6.2190000000        4.1460000000       28.6180000000
 Au         0.0000000000        0.0000000000       30.6910000000
 Au         0.0000000000        4.1460000000       30.6910000000
 Au         2.0730000000        2.0730000000       30.6910000000
 Au         2.0730000000        6.2190000000       30.6910000000
 Au         4.1460000000        0.0000000000       30.6910000000
 Au         4.1460000000        4.1460000000       30.6910000000
 Au         6.2190000000        2.0730000000       30.6910000000
 Au         6.2190000000        6.2190000000       30.6910000000
 Au         0.0000000000        2.0730000000       32.7640000000
 Au         0.0000000000        6.2190000000       32.7640000000
 Au         2.0730000000        0.0000000000       32.7640000000
 Au         2.0730000000        4.1460000000       32.7640000000
 Au         4.1460000000        2.0730000000       32.7640000000
 Au         4.1460000000        6.2190000000       32.7640000000
 Au         6.2190000000        0.0000000000       32.7640000000
 Au         6.2190000000        4.1460000000       32.7640000000
     116
 i =        3, E =     -3518.0796835173
 Au         0.0000000000        0.0000000000        0.0000000000
 Au         0.0000000000        4.1460000000        0.0000000000
 Au         2.0730000000        2.0730000000        0.0000000000
 Au         2.0730000000        6.2190000000        0.0000000000
 Au         4.1460000000        0.0000000000        0.0000000000
 Au         4.1460000000        4.1460000000        0.0000000000
 Au         6.2190000000        2.0730000000        0.0000000000
 Au         6.2190000000        6.2190000000        0.0000000000
 Au         0.0000000000        2.0730000000        2.0730000000
 Au         0.0000000000        6.2190000000        2.0730000000
 Au         2.0730000000        0.0000000000        2.0730000000
 Au         2.0730000000        4.1460000000        2.0730000000
 Au         4.1460000000        2.0730000000        2.0730000000
 Au         4.1460000000        6.2190000000        2.0730000000
 Au         6.2190000000        0.0000000000        2.0730000000
 Au         6.2190000000        4.1460000000        2.0730000000
 Au         0.0000000000        0.0000000000        4.1460000000
 Au         0.0000000000        4.1460000000        4.1460000000
 Au         2.0730000000        2.0730000000        4.1460000000
 Au         2.0730000000        6.2190000000        4.1460000000
 Au         4.1460000000        0.0000000000        4.1460000000
 Au         4.1460000000        4.1460000000        4.1460000000
 Au         6.2190000000        2.0730000000        4.1460000000
 Au         6.2190000000        6.2190000000        4.1460000000
 Au         0.0000000000        2.0730000000        6.2190000000
 Au         0.0000000000        6.2190000000        6.2190000000
 Au         2.0730000000        0.0000000000        6.2190000000
 Au         2.0730000000        4.1460000000        6.2190000000
 Au         4.1460000000        2.0730000000        6.2190000000
 Au         4.1460000000        6.2190000000        6.2190000000
 Au         6.2190000000        0.0000000000        6.2190000000
 Au         6.2190000000        4.1460000000        6.2190000000
 Au         0.0000000000        0.0000000000        8.2920000000
 Au         0.0000000000        4.1460000000        8.2920000000
 Au         2.0730000000        2.0730000000        8.2920000000
 Au         2.0730000000        6.2190000000        8.2920000000
 Au         4.1460000000        0.0000000000        8.2920000000
 Au         4.1460000000        4.1460000000        8.2920000000
 Au         6.2190000000        2.0730000000        8.2920000000
 Au         6.2190000000        6.2190000000        8.2920000000
 Au         0.0000927641        2.0731873526       10.3867416231
 Au         0.0000272503        6.2189768509       10.3549981561
 Au         2.0850448148        0.0192602584       10.3745100337
 Au         2.0851879308        4.1267224503       10.3744867063
 Au         4.1460481702        2.0728705598       10.3937258105
 Au         4.1459888593        6.2177547774       10.3671650129
 Au         6.2069137587        0.0192711493       10.3745974281
 Au         6.2067734132        4.1267137882       10.3745721239
 Au         0.0000352322       -0.0419517929       12.4556334354
 Au         0.0000377897        4.1883309247       12.4556865286
 Au         1.9892429179        2.0720957855       12.5290622565
 Au         2.0230254964        6.2191841252       12.4554037815
 Au         4.1459925994       -0.1010111205       12.4903303160
 Au         4.1459941245        4.2485597787       12.4915352968
 Au         6.3031296783        2.0720981034       12.5290690403
 Au         6.2688928279        6.2191865064       12.4553765035
  S         4.1455710449        2.0852618574       14.1590183481
  C         4.1444933628        2.0932717590       15.9964031296
  H         1.9692042935        2.0862428178       16.1829387333
  H         6.3162925543        2.0861922305       16.1884316239
  C         2.9256212301        2.0702168443       16.7140643252
  C         5.3614210162        2.0697831613       16.7216328578
  C         2.9214528301        2.0752907789       18.1141802183
  C         5.3567485704        2.0748838793       18.1218498337
  H         1.9676973089        2.0579899737       18.6477158786
  H         6.3125036328        2.0579155278       18.6528565336
  C         4.1379760389        2.0517910588       18.8401180084
  S         4.1383518602        2.0599695739       20.6771181943
 Au        -0.0020256570       -0.0375607764       22.3789097445
 Au        -0.0020493367        4.1830898109       22.3789676294
 Au         1.9790793297        2.0741328764       22.3045183084
 Au         2.0272764197        6.2187973659       22.3762697606
 Au         4.1434525539       -0.1063844450       22.3391152873
 Au         4.1434531479        4.2502081003       22.3402077408
 Au         6.3098157118        2.0741250513       22.3049513092
 Au         6.2190000000        6.2190000000       22.3990000000
 Au         0.0000000000        2.0730000000       24.4720000000
 Au         0.0000000000        6.2190000000       24.4720000000
 Au         2.0730000000        0.0000000000       24.4720000000
 Au         2.0730000000        4.1460000000       24.4720000000
 Au         4.1460000000        2.0730000000       24.4720000000
 Au         4.1460000000        6.2190000000       24.4720000000
 Au         6.2190000000        0.0000000000       24.4720000000
 Au         6.2190000000        4.1460000000       24.4720000000
 Au         0.0000000000        0.0000000000       26.5450000000
 Au         0.0000000000        4.1460000000       26.5450000000
 Au         2.0730000000        2.0730000000       26.5450000000
 Au         2.0730000000        6.2190000000       26.5450000000
 Au         4.1460000000        0.0000000000       26.5450000000
 Au         4.1460000000        4.1460000000       26.5450000000
 Au         6.2190000000        2.0730000000       26.5450000000
 Au         6.2190000000        6.2190000000       26.5450000000
 Au         0.0000000000        2.0730000000       28.6180000000
 Au         0.0000000000        6.2190000000       28.6180000000
 Au         2.0730000000        0.0000000000       28.6180000000
 Au         2.0730000000        4.1460000000       28.6180000000
 Au         4.1460000000        2.0730000000       28.6180000000
 Au         4.1460000000        6.2190000000       28.6180000000
 Au         6.2190000000        0.0000000000       28.6180000000
 Au         6.2190000000        4.1460000000       28.6180000000
 Au         0.0000000000        0.0000000000       30.6910000000
 Au         0.0000000000        4.1460000000       30.6910000000
 Au         2.0730000000        2.0730000000       30.6910000000
 Au         2.0730000000        6.2190000000       30.6910000000
 Au         4.1460000000        0.0000000000       30.6910000000
 Au         4.1460000000        4.1460000000       30.6910000000
 Au         6.2190000000        2.0730000000       30.6910000000
 Au         6.2190000000        6.2190000000       30.6910000000
 Au         0.0000000000        2.0730000000       32.7640000000
 Au         0.0000000000        6.2190000000       32.7640000000
 Au         2.0730000000        0.0000000000       32.7640000000
 Au         2.0730000000        4.1460000000       32.7640000000
 Au         4.1460000000        2.0730000000       32.7640000000
 Au         4.1460000000        6.2190000000       32.7640000000
 Au         6.2190000000        0.0000000000       32.7640000000
 Au         6.2190000000        4.1460000000       32.7640000000
     116
 i =        4, E =     -3518.0807491836
 Au         0.0000000000        0.0000000000        0.0000000000
 Au         0.0000000000        4.1460000000        0.0000000000
 Au         2.0730000000        2.0730000000        0.0000000000
 Au         2.0730000000        6.2190000000        0.0000000000
 Au         4.1460000000        0.0000000000        0.0000000000
 Au         4.1460000000        4.1460000000        0.0000000000
 Au         6.2190000000        2.0730000000        0.0000000000
 Au         6.2190000000        6.2190000000        0.0000000000
 Au         0.0000000000        2.0730000000        2.0730000000
 Au         0.0000000000        6.2190000000        2.0730000000
 Au         2.0730000000        0.0000000000        2.0730000000
 Au         2.0730000000        4.1460000000        2.0730000000
 Au         4.1460000000        2.0730000000        2.0730000000
 Au         4.1460000000        6.2190000000        2.0730000000
 Au         6.2190000000        0.0000000000        2.0730000000
 Au         6.2190000000        4.1460000000        2.0730000000
 Au         0.0000000000        0.0000000000        4.1460000000
 Au         0.0000000000        4.1460000000        4.1460000000
 Au         2.0730000000        2.0730000000        4.1460000000
 Au         2.0730000000        6.2190000000        4.1460000000
 Au         4.1460000000        0.0000000000        4.1460000000
 Au         4.1460000000        4.1460000000        4.1460000000
 Au         6.2190000000        2.0730000000        4.1460000000
 Au         6.2190000000        6.2190000000        4.1460000000
 Au         0.0000000000        2.0730000000        6.2190000000
 Au         0.0000000000        6.2190000000        6.2190000000
 Au         2.0730000000        0.0000000000        6.2190000000
 Au         2.0730000000        4.1460000000        6.2190000000
 Au         4.1460000000        2.0730000000        6.2190000000
 Au         4.1460000000        6.2190000000        6.2190000000
 Au         6.2190000000        0.0000000000        6.2190000000
 Au         6.2190000000        4.1460000000        6.2190000000
 Au         0.0000000000        0.0000000000        8.2920000000
 Au         0.0000000000        4.1460000000        8.2920000000
 Au         2.0730000000        2.0730000000        8.2920000000
 Au         2.0730000000        6.2190000000        8.2920000000
 Au         4.1460000000        0.0000000000        8.2920000000
 Au         4.1460000000        4.1460000000        8.2920000000
 Au         6.2190000000        2.0730000000        8.2920000000
 Au         6.2190000000        6.2190000000        8.2920000000
 Au         0.0000218309        2.0732990873       10.3978095638
 Au         0.0000036244        6.2189625898       10.3417873172
 Au         2.0860149027        0.0201804360       10.3781224837
 Au         2.0860331512        4.1254467607       10.3783090648
 Au         4.1459946552        2.0729955440       10.3938738768
 Au         4.1459420701        6.2180584728       10.3772822300
 Au         6.2060747762        0.0202203815       10.3782063102
 Au         6.2060582594        4.1254090253       10.3783928290
 Au         0.0000177617       -0.0312303718       12.4582325587
 Au         0.0000188075        4.1773463951       12.4581654019
 Au         1.9809766560        2.0716512541       12.5311929787
 Au         2.0330854836        6.2195253090       12.4560155660
 Au         4.1460190474       -0.1087936506       12.4912459777
 Au         4.1460221015        4.2581017654       12.4924634343
 Au         6.3112540159        2.0716559724       12.5312016996
 Au         6.2588621298        6.2195268970       12.4560070284
  S         4.1464065565        2.0850326022       14.1688388934
  C         4.1420622768        2.0853032086       16.0027294897
  H         1.9781423680        2.0854181423       16.1803007638
  H         6.3090916325        2.0851767042       16.1889971598
  C         2.9242392091        2.0764105997       16.7154177183
  C         5.3594945961        2.0764971562       16.7178146257
  C         2.9227000479        2.0683036117       18.1193378999
  C         5.3587998647        2.0682379040       18.1216667027
  H         1.9732267681        2.0592338342       18.6475692762
  H         6.3048073594        2.0590133367       18.6560979678
  C         4.1405306328        2.0604662536       18.8339396616
  S         4.1383607041        2.0601320799       20.6678619853
 Au        -0.0049854915       -0.0312809922       22.3786196912
 Au        -0.0050328998        4.1771967268       22.3785676030
 Au         1.9764999281        2.0745275358       22.3103477505
 Au         2.0327424050        6.2184111782       22.3746892842
 Au         4.1393301368       -0.1041748557       22.3429071697
 Au         4.1393924850        4.2461706837       22.3438258550
 Au         6.3120808121        2.0745154963       22.3107407782
 Au         6.2190000000        6.2190000000       22.3990000000
 Au         0.0000000000        2.0730000000       24.4720000000
 Au         0.0000000000        6.2190000000       24.4720000000
 Au         2.0730000000        0.0000000000       24.4720000000
 Au         2.0730000000        4.1460000000       24.4720000000
 Au         4.1460000000        2.0730000000       24.4720000000
 Au         4.1460000000        6.2190000000       24.4720000000
 Au         6.2190000000        0.0000000000       24.4720000000
 Au         6.2190000000        4.1460000000       24.4720000000
 Au         0.0000000000        0.0000000000       26.5450000000
 Au         0.0000000000        4.1460000000       26.5450000000
 Au         2.0730000000        2.0730000000       26.5450000000
 Au         2.0730000000        6.2190000000       26.5450000000
 Au         4.1460000000        0.0000000000       26.5450000000
 Au         4.1460000000        4.1460000000       26.5450000000
 Au         6.2190000000        2.0730000000       26.5450000000
 Au         6.2190000000        6.2190000000       26.5450000000
 Au         0.0000000000        2.0730000000       28.6180000000
 Au         0.0000000000        6.2190000000       28.6180000000
 Au         2.0730000000        0.0000000000       28.6180000000
 Au         2.0730000000        4.1460000000       28.6180000000
 Au         4.1460000000        2.0730000000       28.6180000000
 Au         4.1460000000        6.2190000000       28.6180000000
 Au         6.2190000000        0.0000000000       28.6180000000
 Au         6.2190000000        4.1460000000       28.6180000000
 Au         0.0000000000        0.0000000000       30.6910000000
 Au         0.0000000000        4.1460000000       30.6910000000
 Au         2.0730000000        2.0730000000       30.6910000000
 Au         2.0730000000        6.2190000000       30.6910000000
 Au         4.1460000000        0.0000000000       30.6910000000
 Au         4.1460000000        4.1460000000       30.6910000000
 Au         6.2190000000        2.0730000000       30.6910000000
 Au         6.2190000000        6.2190000000       30.6910000000
 Au         0.0000000000        2.0730000000       32.7640000000
 Au         0.0000000000        6.2190000000       32.7640000000