ATOMS
H             0.00000000      0.00000000     -0.01205252            -0.70710623     -0.00087149      0.00014877
H             0.00000000      0.00000000      0.74206735            -0.70710623     -0.00087149      0.00014877
