 DBCSR| CPU Multiplication driver                                           XSMM
 DBCSR| Multrec recursion limit                                              512
 DBCSR| Multiplication stack size                                           1000
 DBCSR| Maximum elements for images                                    UNLIMITED
 DBCSR| Multiplicative factor virtual images                                   1
 DBCSR| Use multiplication densification                                       T
 DBCSR| Multiplication size stacks                                             3
 DBCSR| Use memory pool for CPU allocation                                     F
 DBCSR| Number of 3D layers                                               SINGLE
 DBCSR| Use MPI memory allocation                                              F
 DBCSR| Use RMA algorithm                                                      F
 DBCSR| Use Communication thread                                               T
 DBCSR| Communication thread load                                             87
 DBCSR| MPI: My node id                                                        0
 DBCSR| MPI: Number of nodes                                                 120
 DBCSR| OMP: Current number of threads                                         1
 DBCSR| OMP: Max number of threads                                             1
 DBCSR| Split modifier for TAS multiplication algorithm                  1.0E+00


  **** **** ******  **  PROGRAM STARTED AT               2023-03-23 13:07:47.258
 ***** ** ***  *** **   PROGRAM STARTED ON                 cn1048.scarf.rl.ac.uk
 **    ****   ******    PROGRAM STARTED BY                             scarf1157
 ***** **    ** ** **   PROGRAM PROCESS ID                                 33163
  **** **  *******  **  PROGRAM STARTED IN /work4/scd/scarf1157/work/testing/cp2
                                           k-smeagol/bdt/cp2k/hollow-site/transp
                                           ort-cp2k/5-4/geometry-ordered/3x3-4/s
                                           z/bulk_layers-4/transmission/exp/capa
                                           citor/sergey-2d-equal/x-4.168/kpoints
                                           -10-10-20_hlb-auto

 CP2K| version string:                 CP2K version 2022.1 (Development Version)
 CP2K| source code revision number:                                  git:e136ce5
 CP2K| cp2kflags: omp fftw3 libxc parallel mpi3 scalapack xsmm spglib           
 CP2K| is freely available from                            https://www.cp2k.org/
 CP2K| Program compiled at                          Thu  9 Mar 17:17:16 GMT 2023
 CP2K| Program compiled on                                 cn1108.scarf.rl.ac.uk
 CP2K| Program compiled for                                                local
 CP2K| Data directory path    /home/vol07/scarf1157/code/smeagol/cp2k-smeagol/sc
 CP2K| Input file name                                             2_dft_wfn.inp

 GLOBAL| Force Environment number                                              1
 GLOBAL| Basis set file name                                        BASIS_MOLOPT
 GLOBAL| Potential file name                                      GTH_POTENTIALS
 GLOBAL| MM Potential file name                                     MM_POTENTIAL
 GLOBAL| Coordinate file name                                             em.xyz
 GLOBAL| Method name                                                        CP2K
 GLOBAL| Project name                                                    dft_wfn
 GLOBAL| Run type                                                         ENERGY
 GLOBAL| FFT library                                                       FFTW3
 GLOBAL| Diagonalization library                                       ScaLAPACK
 GLOBAL| Orthonormality check for eigenvectors                          DISABLED
 GLOBAL| Matrix multiplication library                                 ScaLAPACK
 GLOBAL| All-to-all communication in single precision                          F
 GLOBAL| FFTs using library dependent lengths                                  T
 GLOBAL| Grid backend                                                       AUTO
 GLOBAL| Global print level                                               MEDIUM
 GLOBAL| MPI I/O enabled                                                       T
 GLOBAL| Total number of message passing processes                           120
 GLOBAL| Number of threads for this process                                    1
 GLOBAL| This output is from process                                           0
 GLOBAL| Stack size for threads created by OpenMP (OMP_STACKSIZE)        default
 GLOBAL| CPU model name                         AMD EPYC 7502P 32-Core Processor
 GLOBAL| CPUID                                                              1002

 MEMORY| system memory details [Kb]
 MEMORY|                        rank 0           min           max       average
 MEMORY| MemTotal            263896984     263896984     263896984     263896984
 MEMORY| MemFree             218325484     176944516     218325484     198000003
 MEMORY| Buffers                  2568           204          3452          2197
 MEMORY| Cached               29994108      29993356      71394188      50324311
 MEMORY| Slab                  1129060       1129060       1234324       1182644
 MEMORY| SReclaimable           622752        622752        713116        671958
 MEMORY| MemLikelyFree       248944912     248938324     249055976     248998470


 *** Fundamental physical constants (SI units) ***

 *** Literature: B. J. Mohr and B. N. Taylor,
 ***             CODATA recommended values of the fundamental physical
 ***             constants: 2006, Web Version 5.1
 ***             http://physics.nist.gov/constants

 Speed of light in vacuum [m/s]                             2.99792458000000E+08
 Magnetic constant or permeability of vacuum [N/A**2]       1.25663706143592E-06
 Electric constant or permittivity of vacuum [F/m]          8.85418781762039E-12
 Planck constant (h) [J*s]                                  6.62606896000000E-34
 Planck constant (h-bar) [J*s]                              1.05457162825177E-34
 Elementary charge [C]                                      1.60217648700000E-19
 Electron mass [kg]                                         9.10938215000000E-31
 Electron g factor [ ]                                     -2.00231930436220E+00
 Proton mass [kg]                                           1.67262163700000E-27
 Fine-structure constant                                    7.29735253760000E-03
 Rydberg constant [1/m]                                     1.09737315685270E+07
 Avogadro constant [1/mol]                                  6.02214179000000E+23
 Boltzmann constant [J/K]                                   1.38065040000000E-23
 Atomic mass unit [kg]                                      1.66053878200000E-27
 Bohr radius [m]                                            5.29177208590000E-11

 *** Conversion factors ***

 [u] -> [a.u.]                                              1.82288848426455E+03
 [Angstrom] -> [Bohr] = [a.u.]                              1.88972613288564E+00
 [a.u.] = [Bohr] -> [Angstrom]                              5.29177208590000E-01
 [a.u.] -> [s]                                              2.41888432650478E-17
 [a.u.] -> [fs]                                             2.41888432650478E-02
 [a.u.] -> [J]                                              4.35974393937059E-18
 [a.u.] -> [N]                                              8.23872205491840E-08
 [a.u.] -> [K]                                              3.15774647902944E+05
 [a.u.] -> [kJ/mol]                                         2.62549961709828E+03
 [a.u.] -> [kcal/mol]                                       6.27509468713739E+02
 [a.u.] -> [Pa]                                             2.94210107994716E+13
 [a.u.] -> [bar]                                            2.94210107994716E+08
 [a.u.] -> [atm]                                            2.90362800883016E+08
 [a.u.] -> [eV]                                             2.72113838565563E+01
 [a.u.] -> [Hz]                                             6.57968392072181E+15
 [a.u.] -> [1/cm] (wave numbers)                            2.19474631370540E+05
 [a.u./Bohr**2] -> [1/cm]                                   5.14048714338585E+03
 

 CELL_TOP| Volume [angstrom^3]:                                      2357.480286
 CELL_TOP| Vector a [angstrom     8.336     0.000     0.000   |a| =     8.336000
 CELL_TOP| Vector b [angstrom     0.000     8.336     0.000   |b| =     8.336000
 CELL_TOP| Vector c [angstrom     0.000     0.000    33.926   |c| =    33.926000
 CELL_TOP| Angle (b,c), alpha [degree]:                                90.000000
 CELL_TOP| Angle (a,c), beta  [degree]:                                90.000000
 CELL_TOP| Angle (a,b), gamma [degree]:                                90.000000
 CELL_TOP| Numerically orthorhombic:                                         YES
 CELL_TOP| Periodicity                                                       XYZ

 GENERATE|  Preliminary Number of Bonds generated:                             0
 GENERATE|  Achieved consistency in connectivity generation.

 CELL| Volume [angstrom^3]:                                          2357.480286
 CELL| Vector a [angstrom]:       8.336     0.000     0.000   |a| =     8.336000
 CELL| Vector b [angstrom]:       0.000     8.336     0.000   |b| =     8.336000
 CELL| Vector c [angstrom]:       0.000     0.000    33.926   |c| =    33.926000
 CELL| Angle (b,c), alpha [degree]:                                    90.000000
 CELL| Angle (a,c), beta  [degree]:                                    90.000000
 CELL| Angle (a,b), gamma [degree]:                                    90.000000
 CELL| Numerically orthorhombic:                                             YES
 CELL| Periodicity                                                           XYZ

 CELL_REF| Volume [angstrom^3]:                                      2357.480286
 CELL_REF| Vector a [angstrom     8.336     0.000     0.000   |a| =     8.336000
 CELL_REF| Vector b [angstrom     0.000     8.336     0.000   |b| =     8.336000
 CELL_REF| Vector c [angstrom     0.000     0.000    33.926   |c| =    33.926000
 CELL_REF| Angle (b,c), alpha [degree]:                                90.000000
 CELL_REF| Angle (a,c), beta  [degree]:                                90.000000
 CELL_REF| Angle (a,b), gamma [degree]:                                90.000000
 CELL_REF| Numerically orthorhombic:                                         YES
 CELL_REF| Periodicity                                                       XYZ

 *******************************************************************************
                                    Kpoints
 *******************************************************************************
 BRILLOUIN| K-point scheme                                        Monkhorst-Pack
 BRILLOUIN| K-Point grid                                            10   10    1
 BRILLOUIN| Accuracy in Symmetry determination                      0.100000E-07
 BRILLOUIN| K-Point point group symmetrization                               OFF
 BRILLOUIN| Wavefunction type                                            COMPLEX
 BRILLOUIN| Use full k-point grid     
 BRILLOUIN| List of Kpoints [2 Pi/Bohr]                                      100
 BRILLOUIN| Number           Weight            X              Y              Z
 BRILLOUIN|     1           0.01000       -0.45000       -0.45000        0.00000
 BRILLOUIN|     2           0.01000       -0.45000       -0.35000        0.00000
 BRILLOUIN|     3           0.01000       -0.45000       -0.25000        0.00000
 BRILLOUIN|     4           0.01000       -0.45000       -0.15000        0.00000
 BRILLOUIN|     5           0.01000       -0.45000       -0.05000        0.00000
 BRILLOUIN|     6           0.01000       -0.45000        0.05000        0.00000
 BRILLOUIN|     7           0.01000       -0.45000        0.15000        0.00000
 BRILLOUIN|     8           0.01000       -0.45000        0.25000        0.00000
 BRILLOUIN|     9           0.01000       -0.45000        0.35000        0.00000
 BRILLOUIN|    10           0.01000       -0.45000        0.45000        0.00000
 BRILLOUIN|    11           0.01000       -0.35000       -0.45000        0.00000
 BRILLOUIN|    12           0.01000       -0.35000       -0.35000        0.00000
 BRILLOUIN|    13           0.01000       -0.35000       -0.25000        0.00000
 BRILLOUIN|    14           0.01000       -0.35000       -0.15000        0.00000
 BRILLOUIN|    15           0.01000       -0.35000       -0.05000        0.00000
 BRILLOUIN|    16           0.01000       -0.35000        0.05000        0.00000
 BRILLOUIN|    17           0.01000       -0.35000        0.15000        0.00000
 BRILLOUIN|    18           0.01000       -0.35000        0.25000        0.00000
 BRILLOUIN|    19           0.01000       -0.35000        0.35000        0.00000
 BRILLOUIN|    20           0.01000       -0.35000        0.45000        0.00000
 BRILLOUIN|    21           0.01000       -0.25000       -0.45000        0.00000
 BRILLOUIN|    22           0.01000       -0.25000       -0.35000        0.00000
 BRILLOUIN|    23           0.01000       -0.25000       -0.25000        0.00000
 BRILLOUIN|    24           0.01000       -0.25000       -0.15000        0.00000
 BRILLOUIN|    25           0.01000       -0.25000       -0.05000        0.00000
 BRILLOUIN|    26           0.01000       -0.25000        0.05000        0.00000
 BRILLOUIN|    27           0.01000       -0.25000        0.15000        0.00000
 BRILLOUIN|    28           0.01000       -0.25000        0.25000        0.00000
 BRILLOUIN|    29           0.01000       -0.25000        0.35000        0.00000
 BRILLOUIN|    30           0.01000       -0.25000        0.45000        0.00000
 BRILLOUIN|    31           0.01000       -0.15000       -0.45000        0.00000
 BRILLOUIN|    32           0.01000       -0.15000       -0.35000        0.00000
 BRILLOUIN|    33           0.01000       -0.15000       -0.25000        0.00000
 BRILLOUIN|    34           0.01000       -0.15000       -0.15000        0.00000
 BRILLOUIN|    35           0.01000       -0.15000       -0.05000        0.00000
 BRILLOUIN|    36           0.01000       -0.15000        0.05000        0.00000
 BRILLOUIN|    37           0.01000       -0.15000        0.15000        0.00000
 BRILLOUIN|    38           0.01000       -0.15000        0.25000        0.00000
 BRILLOUIN|    39           0.01000       -0.15000        0.35000        0.00000
 BRILLOUIN|    40           0.01000       -0.15000        0.45000        0.00000
 BRILLOUIN|    41           0.01000       -0.05000       -0.45000        0.00000
 BRILLOUIN|    42           0.01000       -0.05000       -0.35000        0.00000
 BRILLOUIN|    43           0.01000       -0.05000       -0.25000        0.00000
 BRILLOUIN|    44           0.01000       -0.05000       -0.15000        0.00000
 BRILLOUIN|    45           0.01000       -0.05000       -0.05000        0.00000
 BRILLOUIN|    46           0.01000       -0.05000        0.05000        0.00000
 BRILLOUIN|    47           0.01000       -0.05000        0.15000        0.00000
 BRILLOUIN|    48           0.01000       -0.05000        0.25000        0.00000
 BRILLOUIN|    49           0.01000       -0.05000        0.35000        0.00000
 BRILLOUIN|    50           0.01000       -0.05000        0.45000        0.00000
 BRILLOUIN|    51           0.01000        0.05000       -0.45000        0.00000
 BRILLOUIN|    52           0.01000        0.05000       -0.35000        0.00000
 BRILLOUIN|    53           0.01000        0.05000       -0.25000        0.00000
 BRILLOUIN|    54           0.01000        0.05000       -0.15000        0.00000
 BRILLOUIN|    55           0.01000        0.05000       -0.05000        0.00000
 BRILLOUIN|    56           0.01000        0.05000        0.05000        0.00000
 BRILLOUIN|    57           0.01000        0.05000        0.15000        0.00000
 BRILLOUIN|    58           0.01000        0.05000        0.25000        0.00000
 BRILLOUIN|    59           0.01000        0.05000        0.35000        0.00000
 BRILLOUIN|    60           0.01000        0.05000        0.45000        0.00000
 BRILLOUIN|    61           0.01000        0.15000       -0.45000        0.00000
 BRILLOUIN|    62           0.01000        0.15000       -0.35000        0.00000
 BRILLOUIN|    63           0.01000        0.15000       -0.25000        0.00000
 BRILLOUIN|    64           0.01000        0.15000       -0.15000        0.00000
 BRILLOUIN|    65           0.01000        0.15000       -0.05000        0.00000
 BRILLOUIN|    66           0.01000        0.15000        0.05000        0.00000
 BRILLOUIN|    67           0.01000        0.15000        0.15000        0.00000
 BRILLOUIN|    68           0.01000        0.15000        0.25000        0.00000
 BRILLOUIN|    69           0.01000        0.15000        0.35000        0.00000
 BRILLOUIN|    70           0.01000        0.15000        0.45000        0.00000
 BRILLOUIN|    71           0.01000        0.25000       -0.45000        0.00000
 BRILLOUIN|    72           0.01000        0.25000       -0.35000        0.00000
 BRILLOUIN|    73           0.01000        0.25000       -0.25000        0.00000
 BRILLOUIN|    74           0.01000        0.25000       -0.15000        0.00000
 BRILLOUIN|    75           0.01000        0.25000       -0.05000        0.00000
 BRILLOUIN|    76           0.01000        0.25000        0.05000        0.00000
 BRILLOUIN|    77           0.01000        0.25000        0.15000        0.00000
 BRILLOUIN|    78           0.01000        0.25000        0.25000        0.00000
 BRILLOUIN|    79           0.01000        0.25000        0.35000        0.00000
 BRILLOUIN|    80           0.01000        0.25000        0.45000        0.00000
 BRILLOUIN|    81           0.01000        0.35000       -0.45000        0.00000
 BRILLOUIN|    82           0.01000        0.35000       -0.35000        0.00000
 BRILLOUIN|    83           0.01000        0.35000       -0.25000        0.00000
 BRILLOUIN|    84           0.01000        0.35000       -0.15000        0.00000
 BRILLOUIN|    85           0.01000        0.35000       -0.05000        0.00000
 BRILLOUIN|    86           0.01000        0.35000        0.05000        0.00000
 BRILLOUIN|    87           0.01000        0.35000        0.15000        0.00000
 BRILLOUIN|    88           0.01000        0.35000        0.25000        0.00000
 BRILLOUIN|    89           0.01000        0.35000        0.35000        0.00000
 BRILLOUIN|    90           0.01000        0.35000        0.45000        0.00000
 BRILLOUIN|    91           0.01000        0.45000       -0.45000        0.00000
 BRILLOUIN|    92           0.01000        0.45000       -0.35000        0.00000
 BRILLOUIN|    93           0.01000        0.45000       -0.25000        0.00000
 BRILLOUIN|    94           0.01000        0.45000       -0.15000        0.00000
 BRILLOUIN|    95           0.01000        0.45000       -0.05000        0.00000
 BRILLOUIN|    96           0.01000        0.45000        0.05000        0.00000
 BRILLOUIN|    97           0.01000        0.45000        0.15000        0.00000
 BRILLOUIN|    98           0.01000        0.45000        0.25000        0.00000
 BRILLOUIN|    99           0.01000        0.45000        0.35000        0.00000
 BRILLOUIN|   100           0.01000        0.45000        0.45000        0.00000
 *******************************************************************************

 *******************************************************************************
 *******************************************************************************
 **                                                                           **
 **     #####                         ##              ##                      **
 **    ##   ##            ##          ##              ##                      **
 **   ##     ##                       ##            ######                    **
 **   ##     ##  ##   ##  ##   #####  ##  ##   ####   ##    #####    #####    **
 **   ##     ##  ##   ##  ##  ##      ## ##   ##      ##   ##   ##  ##   ##   **
 **   ##  ## ##  ##   ##  ##  ##      ####     ###    ##   ######   ######    **
 **    ##  ###   ##   ##  ##  ##      ## ##      ##   ##   ##       ##        **
 **     #######   #####   ##   #####  ##  ##  ####    ##    #####   ##        **
 **           ##                                                    ##        **
 **                                                                           **
 **                                                ... make the atoms dance   **
 **                                                                           **
 **            Copyright (C) by CP2K developers group (2000-2022)             **
 **                      J. Chem. Phys. 152, 194103 (2020)                    **
 **                                                                           **
 *******************************************************************************

 DFT| Spin restricted Kohn-Sham (RKS) calculation                            RKS
 DFT| Multiplicity                                                             1
 DFT| Number of spin states                                                    1
 DFT| Charge                                                                   0
 DFT| Self-interaction correction (SIC)                                       NO
 DFT| Cutoffs: density                                              1.000000E-10
 DFT|          gradient                                             1.000000E-10
 DFT|          tau                                                  1.000000E-10
 DFT|          cutoff_smoothing_range                               0.000000E+00
 DFT| XC density smoothing                                                  NONE
 DFT| XC derivatives                                                          PW

 FUNCTIONAL| PADE:
 FUNCTIONAL| S. Goedecker, M. Teter and J. Hutter, Phys. Rev. B 54, 1703 (1996) 


 QS| Method:                                                                 GPW
 QS| Density plane wave grid type                        NON-SPHERICAL FULLSPACE
 QS| Number of grid levels:                                                    4
 QS| Density cutoff [a.u.]:                                                200.0
 QS| Multi grid cutoff [a.u.]: 1) grid level                               200.0
 QS|                           2) grid level                                66.7
 QS|                           3) grid level                                22.2
 QS|                           4) grid level                                 7.4
 QS| Grid level progression factor:                                          3.0
 QS| Relative density cutoff [a.u.]:                                        20.0
 QS| Interaction thresholds: eps_pgf_orb:                                1.0E-05
 QS|                         eps_filter_matrix:                          0.0E+00
 QS|                         eps_core_charge:                            1.0E-12
 QS|                         eps_rho_gspace:                             1.0E-10
 QS|                         eps_rho_rspace:                             1.0E-10
 QS|                         eps_gvg_rspace:                             1.0E-05
 QS|                         eps_ppl:                                    1.0E-02
 QS|                         eps_ppnl:                                   1.0E-07


 ATOMIC KIND INFORMATION

  1. Atomic kind: Au                                    Number of atoms:      72

     Orbital Basis Set                                         SZV-MOLOPT-SR-GTH

       Number of orbital shell sets:                                           1
       Number of orbital shells:                                               3
       Number of primitive Cartesian functions:                                5
       Number of Cartesian basis functions:                                   10
       Number of spherical basis functions:                                    9
       Norm type:                                                              2

       Normalised Cartesian orbitals:

                        Set   Shell   Orbital            Exponent    Coefficient

                          1       1    2s                2.950008       0.074626
                                                         1.563057      -0.007898
                                                         0.666664      -0.297688
                                                         0.251083       0.136809
                                                         0.081714       0.088198

                          1       2    3px               2.950008       0.148824
                                                         1.563057       0.025430
                                                         0.666664      -0.123003
                                                         0.251083       0.033648
                                                         0.081714       0.059008
                          1       2    3py               2.950008       0.148824
                                                         1.563057       0.025430
                                                         0.666664      -0.123003
                                                         0.251083       0.033648
                                                         0.081714       0.059008
                          1       2    3pz               2.950008       0.148824
                                                         1.563057       0.025430
                                                         0.666664      -0.123003
                                                         0.251083       0.033648
                                                         0.081714       0.059008

                          1       3    4dx2              2.950008      -0.139595
                                                         1.563057       1.319655
                                                         0.666664       0.377081
                                                         0.251083       0.046872
                                                         0.081714       0.001393
                          1       3    4dxy              2.950008      -0.241786
                                                         1.563057       2.285709
                                                         0.666664       0.653124
                                                         0.251083       0.081185
                                                         0.081714       0.002412
                          1       3    4dxz              2.950008      -0.241786
                                                         1.563057       2.285709
                                                         0.666664       0.653124
                                                         0.251083       0.081185
                                                         0.081714       0.002412
                          1       3    4dy2              2.950008      -0.139595
                                                         1.563057       1.319655
                                                         0.666664       0.377081
                                                         0.251083       0.046872
                                                         0.081714       0.001393
                          1       3    4dyz              2.950008      -0.241786
                                                         1.563057       2.285709
                                                         0.666664       0.653124
                                                         0.251083       0.081185
                                                         0.081714       0.002412
                          1       3    4dz2              2.950008      -0.139595
                                                         1.563057       1.319655
                                                         0.666664       0.377081
                                                         0.251083       0.046872
                                                         0.081714       0.001393

       Atomic covalent radius [Angstrom]:                                  1.340

       Atomic van der Waals radius [Angstrom]:                             1.660

     GTH Potential information for                                  GTH-PADE-q11

       Description:                       Goedecker-Teter-Hutter pseudopotential
                                           Goedecker et al., PRB 54, 1703 (1996)
                                          Hartwigsen et al., PRB 58, 3641 (1998)
                                                      Krack, TCA 114, 145 (2005)

       Gaussian exponent of the core charge distribution:               1.436369
       Electronic configuration (s p d ...):                           1   0  10

       Parameters of the local part of the GTH pseudopotential:

                          rloc        C1          C2          C3          C4
                        0.590000   11.604428

       Parameters of the non-local part of the GTH pseudopotential:

                   l      r(l)      h(i,j,l)

                   0    0.521180    2.538614   -1.046137
                                   -1.046137    2.701113
                   1    0.630613    0.394853   -0.869592
                                   -0.869592    2.057831
                   2    0.440706   -4.719070    0.727771
                                    0.727771   -1.650429


 MOLECULE KIND INFORMATION


 All atoms are their own molecule, skipping detailed information


 TOTAL NUMBERS AND MAXIMUM NUMBERS

  Total number of            - Atomic kinds:                                   1
                             - Atoms:                                         72
                             - Shell sets:                                    72
                             - Shells:                                       216
                             - Primitive Cartesian functions:                360
                             - Cartesian basis functions:                    720
                             - Spherical basis functions:                    648

  Maximum angular momentum of- Orbital basis functions:                        2
                             - Local part of the GTH pseudopotential:          0
                             - Non-local part of the GTH pseudopotential:      4


 MODULE QUICKSTEP: ATOMIC COORDINATES IN ANGSTROM

   Atom Kind Element         X             Y             Z       Z(eff)     Mass
      1    1 Au   79      0.000000      0.000000      0.000000  11.0000 196.9666
      2    1 Au   79      0.000000      4.168000      0.000000  11.0000 196.9666
      3    1 Au   79      2.084000      2.084000      0.000000  11.0000 196.9666
      4    1 Au   79      2.084000      6.252000      0.000000  11.0000 196.9666
      5    1 Au   79      4.168000      0.000000      0.000000  11.0000 196.9666
      6    1 Au   79      4.168000      4.168000      0.000000  11.0000 196.9666
      7    1 Au   79      0.000000      2.084000      2.084000  11.0000 196.9666
      8    1 Au   79      0.000000      6.252000      2.084000  11.0000 196.9666
      9    1 Au   79      2.084000      0.000000      2.084000  11.0000 196.9666
     10    1 Au   79      2.084000      4.168000      2.084000  11.0000 196.9666
     11    1 Au   79      4.168000      2.084000      2.084000  11.0000 196.9666
     12    1 Au   79      4.168000      6.252000      2.084000  11.0000 196.9666
     13    1 Au   79      0.000000      0.000000      4.168000  11.0000 196.9666
     14    1 Au   79      0.000000      4.168000      4.168000  11.0000 196.9666
     15    1 Au   79      2.084000      2.084000      4.168000  11.0000 196.9666
     16    1 Au   79      2.084000      6.252000      4.168000  11.0000 196.9666
     17    1 Au   79      4.168000      0.000000      4.168000  11.0000 196.9666
     18    1 Au   79      4.168000      4.168000      4.168000  11.0000 196.9666
     19    1 Au   79      0.000000      2.084000      6.252000  11.0000 196.9666
     20    1 Au   79      0.000000      6.252000      6.252000  11.0000 196.9666
     21    1 Au   79      2.084000      0.000000      6.252000  11.0000 196.9666
     22    1 Au   79      2.084000      4.168000      6.252000  11.0000 196.9666
     23    1 Au   79      4.168000      2.084000      6.252000  11.0000 196.9666
     24    1 Au   79      4.168000      6.252000      6.252000  11.0000 196.9666
     25    1 Au   79      0.000000      0.000000      8.336000  11.0000 196.9666
     26    1 Au   79      0.000000      4.168000      8.336000  11.0000 196.9666
     27    1 Au   79      2.084000      2.084000      8.336000  11.0000 196.9666
     28    1 Au   79      2.084000      6.252000      8.336000  11.0000 196.9666
     29    1 Au   79      4.168000      0.000000      8.336000  11.0000 196.9666
     30    1 Au   79      4.168000      4.168000      8.336000  11.0000 196.9666
     31    1 Au   79      0.000000      2.084000     10.420000  11.0000 196.9666
     32    1 Au   79      0.000000      6.252000     10.420000  11.0000 196.9666
     33    1 Au   79      2.084000      0.000000     10.420000  11.0000 196.9666
     34    1 Au   79      2.084000      4.168000     10.420000  11.0000 196.9666
     35    1 Au   79      4.168000      2.084000     10.420000  11.0000 196.9666
     36    1 Au   79      4.168000      6.252000     10.420000  11.0000 196.9666
     37    1 Au   79      0.000000      0.000000     21.422001  11.0000 196.9666
     38    1 Au   79      0.000000      4.168000     21.422001  11.0000 196.9666
     39    1 Au   79      2.084000      2.084000     21.422001  11.0000 196.9666
     40    1 Au   79      2.084000      6.252000     21.422001  11.0000 196.9666
     41    1 Au   79      4.168000      0.000000     21.422001  11.0000 196.9666
     42    1 Au   79      4.168000      4.168000     21.422001  11.0000 196.9666
     43    1 Au   79      0.000000      2.084000     23.506001  11.0000 196.9666
     44    1 Au   79      0.000000      6.252000     23.506001  11.0000 196.9666
     45    1 Au   79      2.084000      0.000000     23.506001  11.0000 196.9666
     46    1 Au   79      2.084000      4.168000     23.506001  11.0000 196.9666
     47    1 Au   79      4.168000      2.084000     23.506001  11.0000 196.9666
     48    1 Au   79      4.168000      6.252000     23.506001  11.0000 196.9666
     49    1 Au   79      0.000000      0.000000     25.590000  11.0000 196.9666
     50    1 Au   79      0.000000      4.168000     25.590000  11.0000 196.9666
     51    1 Au   79      2.084000      2.084000     25.590000  11.0000 196.9666
     52    1 Au   79      2.084000      6.252000     25.590000  11.0000 196.9666
     53    1 Au   79      4.168000      0.000000     25.590000  11.0000 196.9666
     54    1 Au   79      4.168000      4.168000     25.590000  11.0000 196.9666
     55    1 Au   79      0.000000      2.084000     27.674000  11.0000 196.9666
     56    1 Au   79      0.000000      6.252000     27.674000  11.0000 196.9666
     57    1 Au   79      2.084000      0.000000     27.674000  11.0000 196.9666
     58    1 Au   79      2.084000      4.168000     27.674000  11.0000 196.9666
     59    1 Au   79      4.168000      2.084000     27.674000  11.0000 196.9666
     60    1 Au   79      4.168000      6.252000     27.674000  11.0000 196.9666
     61    1 Au   79      0.000000      0.000000     29.757999  11.0000 196.9666
     62    1 Au   79      0.000000      4.168000     29.757999  11.0000 196.9666
     63    1 Au   79      2.084000      2.084000     29.757999  11.0000 196.9666
     64    1 Au   79      2.084000      6.252000     29.757999  11.0000 196.9666
     65    1 Au   79      4.168000      0.000000     29.757999  11.0000 196.9666
     66    1 Au   79      4.168000      4.168000     29.757999  11.0000 196.9666
     67    1 Au   79      0.000000      2.084000     31.841999  11.0000 196.9666
     68    1 Au   79      0.000000      6.252000     31.841999  11.0000 196.9666
     69    1 Au   79      2.084000      0.000000     31.841999  11.0000 196.9666
     70    1 Au   79      2.084000      4.168000     31.841999  11.0000 196.9666
     71    1 Au   79      4.168000      2.084000     31.841999  11.0000 196.9666
     72    1 Au   79      4.168000      6.252000     31.841999  11.0000 196.9666



 SCF PARAMETERS         Density guess:                                    ATOMIC
                        --------------------------------------------------------
                        max_scf:                                             500
                        max_scf_history:                                       0
                        max_diis:                                              4
                        --------------------------------------------------------
                        eps_scf:                                        1.00E-07
                        eps_scf_history:                                0.00E+00
                        eps_diis:                                       1.00E-01
                        eps_eigval:                                     1.00E-05
                        --------------------------------------------------------
                        level_shift [a.u.]:                             0.000000
                        added MOs                                       100    0
                        --------------------------------------------------------
                        Mixing method:                            BROYDEN_MIXING
                                                charge density mixing in g-space
                        --------------------------------------------------------
                        Smear method:                                FERMI_DIRAC
                        Electronic temperature [K]:                        293.0
                        Electronic temperature [a.u.]:                  9.28E-04
                        Accuracy threshold:                             1.00E-10
                        --------------------------------------------------------
                        No outer SCF

 PW_GRID| Information for grid number                                          1
 PW_GRID| Grid distributed over                                   120 processors
 PW_GRID| Real space group dimensions                                    10   12
 PW_GRID| the grid is blocked:                                               YES
 PW_GRID| Cutoff [a.u.]                                                    200.0
 PW_GRID| spherical cutoff:                                                   NO
 PW_GRID|   Bounds   1            -52      52                Points:         105
 PW_GRID|   Bounds   2            -52      52                Points:         105
 PW_GRID|   Bounds   3           -210     209                Points:         420
 PW_GRID| Volume element (a.u.^3)  0.3436E-02     Volume (a.u.^3)     15909.0657
 PW_GRID| Grid span                                                    FULLSPACE
 PW_GRID|   Distribution                         Average         Max         Min
 PW_GRID|   G-Vectors                            38587.5       40425       36750
 PW_GRID|   G-Rays                                 367.5         385         350
 PW_GRID|   Real Space Points                    38587.5       40425       36750

 PW_GRID| Information for grid number                                          2
 PW_GRID| Number of the reference grid                                         1
 PW_GRID| Grid distributed over                                   120 processors
 PW_GRID| Real space group dimensions                                    10   12
 PW_GRID| the grid is blocked:                                                NO
 PW_GRID| Cutoff [a.u.]                                                     66.7
 PW_GRID| spherical cutoff:                                                   NO
 PW_GRID|   Bounds   1            -30      29                Points:          60
 PW_GRID|   Bounds   2            -30      29                Points:          60
 PW_GRID|   Bounds   3           -120     119                Points:         240
 PW_GRID| Volume element (a.u.^3)  0.1841E-01     Volume (a.u.^3)     15909.0657
 PW_GRID| Grid span                                                    FULLSPACE
 PW_GRID|   Distribution                         Average         Max         Min
 PW_GRID|   G-Vectors                             7200.0       23100           0
 PW_GRID|   G-Rays                                 120.0         385           0
 PW_GRID|   Real Space Points                     7200.0        7200        7200

 PW_GRID| Information for grid number                                          3
 PW_GRID| Number of the reference grid                                         1
 PW_GRID| Grid distributed over                                   120 processors
 PW_GRID| Real space group dimensions                                    10   12
 PW_GRID| the grid is blocked:                                                NO
 PW_GRID| Cutoff [a.u.]                                                     22.2
 PW_GRID| spherical cutoff:                                                   NO
 PW_GRID|   Bounds   1            -16      16                Points:          33
 PW_GRID|   Bounds   2            -16      16                Points:          33
 PW_GRID|   Bounds   3            -70      69                Points:         140
 PW_GRID| Volume element (a.u.^3)  0.1043         Volume (a.u.^3)     15909.0657
 PW_GRID| Grid span                                                    FULLSPACE
 PW_GRID|   Distribution                         Average         Max         Min
 PW_GRID|   G-Vectors                             1270.5       12705           0
 PW_GRID|   G-Rays                                  38.5         385           0
 PW_GRID|   Real Space Points                     1270.5        1680         840

 PW_GRID| Information for grid number                                          4
 PW_GRID| Number of the reference grid                                         1
 PW_GRID| Grid distributed over                                   120 processors
 PW_GRID| Real space group dimensions                                    10   12
 PW_GRID| the grid is blocked:                                                NO
 PW_GRID| Cutoff [a.u.]                                                      7.4
 PW_GRID| spherical cutoff:                                                   NO
 PW_GRID|   Bounds   1            -10       9                Points:          20
 PW_GRID|   Bounds   2            -10       9                Points:          20
 PW_GRID|   Bounds   3            -40      39                Points:          80
 PW_GRID| Volume element (a.u.^3)  0.4972         Volume (a.u.^3)     15909.0657
 PW_GRID| Grid span                                                    FULLSPACE
 PW_GRID|   Distribution                         Average         Max         Min
 PW_GRID|   G-Vectors                              266.7        7000           0
 PW_GRID|   G-Rays                                  13.3         350           0
 PW_GRID|   Real Space Points                      266.7         320         160

 POISSON| Solver                                                        PERIODIC
 POISSON| Periodicity                                                        XYZ

 RS_GRID| Information for grid number                                          1
 RS_GRID|   Bounds   1            -52      52                Points:         105
 RS_GRID|   Bounds   2            -52      52                Points:         105
 RS_GRID|   Bounds   3           -210     209                Points:         420
 RS_GRID| Real space distribution over                                  5 groups
 RS_GRID| Real space distribution along direction                              2
 RS_GRID| Border size                                                         30
 RS_GRID| Real space distribution over                                 24 groups
 RS_GRID| Real space distribution along direction                              3
 RS_GRID| Border size                                                         30
 RS_GRID|   Distribution                         Average         Max         Min
 RS_GRID|   Planes                                  81.0          81          81
 RS_GRID|   Distribution                         Average         Max         Min
 RS_GRID|   Planes                                  77.5          78          77

 RS_GRID| Information for grid number                                          2
 RS_GRID|   Bounds   1            -30      29                Points:          60
 RS_GRID|   Bounds   2            -30      29                Points:          60
 RS_GRID|   Bounds   3           -120     119                Points:         240
 RS_GRID| Real space distribution over                                  5 groups
 RS_GRID| Real space distribution along direction                              2
 RS_GRID| Border size                                                         20
 RS_GRID| Real space distribution over                                 24 groups
 RS_GRID| Real space distribution along direction                              3
 RS_GRID| Border size                                                         20
 RS_GRID|   Distribution                         Average         Max         Min
 RS_GRID|   Planes                                  52.0          52          52
 RS_GRID|   Distribution                         Average         Max         Min
 RS_GRID|   Planes                                  50.0          50          50

 RS_GRID| Information for grid number                                          3
 RS_GRID|   Bounds   1            -16      16                Points:          33
 RS_GRID|   Bounds   2            -16      16                Points:          33
 RS_GRID|   Bounds   3            -70      69                Points:         140
 RS_GRID| Real space fully replicated
 RS_GRID| Group size                                                           1

 RS_GRID| Information for grid number                                          4
 RS_GRID|   Bounds   1            -10       9                Points:          20
 RS_GRID|   Bounds   2            -10       9                Points:          20
 RS_GRID|   Bounds   3            -40      39                Points:          80
 RS_GRID| Real space fully replicated
 RS_GRID| Group size                                                           1

 KPOINTS| Number of kpoint groups                                              1
 KPOINTS| Size of each kpoint group                                          120
 KPOINTS| Number of kpoints per group                                        100

 Number of electrons:                                                        792
 Number of occupied orbitals:                                                396
 Number of molecular orbitals:                                               496

 Number of orbital functions:                                                648
 Number of independent orbital functions:                                    648

 Extrapolation method: initial_guess

 Atomic guess: The first density matrix is obtained in terms of atomic orbitals
               and electronic configurations assigned to each atomic kind

 Guess for atomic kind: Au

 Electronic structure
    Total number of core electrons                                         68.00
    Total number of valence electrons                                      11.00
    Total number of electrons                                              79.00
    Multiplicity                                                   not specified
    S   [  2.00  2.00  2.00  2.00  2.00] 1.00
    P   [  6.00  6.00  6.00  6.00]
    D   [ 10.00 10.00]10.00
    F   [ 14.00]


 *******************************************************************************
                  Iteration          Convergence                     Energy [au]
 *******************************************************************************
                          1         0.00000                     -33.033218197848

 Energy components [Hartree]           Total Energy ::          -33.033218197848
                                        Band Energy ::           -1.147505983145
                                     Kinetic Energy ::           24.744064437587
                                   Potential Energy ::          -57.777282635435
                                      Virial (-V/T) ::            2.334995642336
                                        Core Energy ::          -60.197309615488
                                          XC Energy ::           -5.116883226844
                                     Coulomb Energy ::           32.280974644483
                       Total Pseudopotential Energy ::          -85.042885173964
                       Local Pseudopotential Energy ::          -66.341694915099
                    Nonlocal Pseudopotential Energy ::          -18.701190258865
                                        Confinement ::            1.015111208892

 Orbital energies  State     L     Occupation   Energy[a.u.]          Energy[eV]

                       1     0          1.000      -0.213792           -5.817572

                       1     2         10.000      -0.093371           -2.540765


 Total Electron Density at R=0:                                         0.000035
 Re-scaling the density matrix to get the right number of electrons
                  # Electrons              Trace(P)               Scaling factor
                          792               792.000                        1.000


 SCF WAVEFUNCTION OPTIMIZATION

  Step     Update method      Time    Convergence         Total energy    Change
  ------------------------------------------------------------------------------
     1 NoMix/Diag. 0.30E+00   15.7     0.34056250     -2394.8324323990 -2.39E+03
     2 Broy./Diag. 0.30E+00   16.8     0.13138156     -2454.6463271933 -5.98E+01
     3 Broy./Diag. 0.30E+00   16.5     0.07278325     -2418.0444167178  3.66E+01
     4 Broy./Diag. 0.30E+00   16.6     0.05240284     -2401.8416068043  1.62E+01
     5 Broy./Diag. 0.30E+00   17.1     0.00498630     -2396.6038006957  5.24E+00
     6 Broy./Diag. 0.30E+00   17.1     0.00429967     -2395.2567773763  1.35E+00
     7 Broy./Diag. 0.30E+00   17.1     0.00086785     -2395.2123831722  4.44E-02
     8 Broy./Diag. 0.30E+00   17.3     0.00078342     -2395.3040011833 -9.16E-02
     9 Broy./Diag. 0.30E+00   17.2     0.00064122     -2395.2102860652  9.37E-02
    10 Broy./Diag. 0.30E+00   17.4     0.00107002     -2395.1700602298  4.02E-02
    11 Broy./Diag. 0.30E+00   17.4     0.00030210     -2395.1609080977  9.15E-03
    12 Broy./Diag. 0.30E+00   17.4     0.00021155     -2395.1676961710 -6.79E-03
    13 Broy./Diag. 0.30E+00   17.8     0.00012777     -2395.1635818363  4.11E-03
    14 Broy./Diag. 0.30E+00   17.5     0.00002916     -2395.1643871510 -8.05E-04
    15 Broy./Diag. 0.30E+00   17.8     0.00003664     -2395.1647593394 -3.72E-04
    16 Broy./Diag. 0.30E+00   18.0     0.00001481     -2395.1643780894  3.81E-04
    17 Broy./Diag. 0.30E+00   18.0     0.00000741     -2395.1644829420 -1.05E-04
    18 Broy./Diag. 0.30E+00   17.9     0.00000265     -2395.1646319919 -1.49E-04
    19 Broy./Diag. 0.30E+00   18.0     0.00000071     -2395.1646522081 -2.02E-05
    20 Broy./Diag. 0.30E+00   17.9     0.00000029     -2395.1645537662  9.84E-05
    21 Broy./Diag. 0.30E+00   18.1     0.00000035     -2395.1645206593  3.31E-05
    22 Broy./Diag. 0.30E+00   18.0     0.00000010     -2395.1645334078 -1.27E-05

  *** SCF run converged in    22 steps ***


  Electronic density on regular grids:       -791.9999999937        0.0000000063
  Core density on regular grids:              791.9999998700       -0.0000001300
  Total charge density on r-space grids:       -0.0000001237
  Total charge density g-space grids:          -0.0000001237

  Overlap energy of the core charge distribution:               0.00000016985214
  Self energy of the core charge distribution:              -4165.44038293902850
  Core Hamiltonian energy:                                   1318.03204639141290
  Hartree energy:                                             822.70550914682599
  Exchange-correlation energy:                               -370.45999968837742
  Electronic entropic energy:                                  -0.00170648839979
  Fermi energy:                                                 0.08953381408808

  Total energy:                                             -2395.16453340783846

 The electron density is written in cube file format to the file:

 dft_wfn-ELECTRON_DENSITY-1_0.cube

 !-----------------------------------------------------------------------------!
                     Mulliken Population Analysis

 #  Atom  Element  Kind  Atomic population                           Net charge
       1     Au       1         11.054984                             -0.054984
       2     Au       1         11.054985                             -0.054985
       3     Au       1         10.886225                              0.113775
       4     Au       1         10.886225                              0.113775
       5     Au       1         11.054985                             -0.054985
       6     Au       1         11.054985                             -0.054985
       7     Au       1         11.054754                             -0.054754
       8     Au       1         11.054754                             -0.054754
       9     Au       1         10.886932                              0.113068
      10     Au       1         10.886932                              0.113068
      11     Au       1         11.054754                             -0.054754
      12     Au       1         11.054754                             -0.054754
      13     Au       1         11.052230                             -0.052230
      14     Au       1         11.052230                             -0.052230
      15     Au       1         10.879498                              0.120502
      16     Au       1         10.879498                              0.120502
      17     Au       1         11.052230                             -0.052230
      18     Au       1         11.052230                             -0.052230
      19     Au       1         11.038049                             -0.038049
      20     Au       1         11.038049                             -0.038049
      21     Au       1         10.873238                              0.126762
      22     Au       1         10.873239                              0.126761
      23     Au       1         11.038049                             -0.038049
      24     Au       1         11.038049                             -0.038049
      25     Au       1         11.040075                             -0.040075
      26     Au       1         11.040075                             -0.040075
      27     Au       1         10.848489                              0.151511
      28     Au       1         10.848489                              0.151511
      29     Au       1         11.040075                             -0.040075
      30     Au       1         11.040076                             -0.040076
      31     Au       1         11.057858                             -0.057858
      32     Au       1         11.057858                             -0.057858
      33     Au       1         11.029716                             -0.029716
      34     Au       1         11.029716                             -0.029716
      35     Au       1         11.057858                             -0.057858
      36     Au       1         11.057858                             -0.057858
      37     Au       1         11.057858                             -0.057858
      38     Au       1         11.057858                             -0.057858
      39     Au       1         11.029716                             -0.029716
      40     Au       1         11.029716                             -0.029716
      41     Au       1         11.057858                             -0.057858
      42     Au       1         11.057858                             -0.057858
      43     Au       1         11.040076                             -0.040076
      44     Au       1         11.040076                             -0.040076
      45     Au       1         10.848489                              0.151511
      46     Au       1         10.848489                              0.151511
      47     Au       1         11.040076                             -0.040076
      48     Au       1         11.040076                             -0.040076
      49     Au       1         11.038048                             -0.038048
      50     Au       1         11.038049                             -0.038049
      51     Au       1         10.873238                              0.126762
      52     Au       1         10.873238                              0.126762
      53     Au       1         11.038049                             -0.038049
      54     Au       1         11.038049                             -0.038049
      55     Au       1         11.052230                             -0.052230
      56     Au       1         11.052230                             -0.052230
      57     Au       1         10.879498                              0.120502
      58     Au       1         10.879498                              0.120502
      59     Au       1         11.052230                             -0.052230
      60     Au       1         11.052230                             -0.052230
      61     Au       1         11.054754                             -0.054754
      62     Au       1         11.054754                             -0.054754
      63     Au       1         10.886932                              0.113068
      64     Au       1         10.886932                              0.113068
      65     Au       1         11.054754                             -0.054754
      66     Au       1         11.054754                             -0.054754
      67     Au       1         11.054985                             -0.054985
      68     Au       1         11.054985                             -0.054985
      69     Au       1         10.886225                              0.113775
      70     Au       1         10.886225                              0.113775
      71     Au       1         11.054985                             -0.054985
      72     Au       1         11.054985                             -0.054985
 # Total charge                            792.000000                 -0.000000

 !-----------------------------------------------------------------------------!

 !-----------------------------------------------------------------------------!
                           Hirshfeld Charges

  #Atom  Element  Kind  Ref Charge     Population                    Net charge
      1       Au     1      11.000         11.016                        -0.016
      2       Au     1      11.000         11.016                        -0.016
      3       Au     1      11.000         10.967                         0.033
      4       Au     1      11.000         10.967                         0.033
      5       Au     1      11.000         11.016                        -0.016
      6       Au     1      11.000         11.016                        -0.016
      7       Au     1      11.000         11.018                        -0.018
      8       Au     1      11.000         11.018                        -0.018
      9       Au     1      11.000         10.968                         0.032
     10       Au     1      11.000         10.968                         0.032
     11       Au     1      11.000         11.018                        -0.018
     12       Au     1      11.000         11.018                        -0.018
     13       Au     1      11.000         11.013                        -0.013
     14       Au     1      11.000         11.013                        -0.013
     15       Au     1      11.000         10.969                         0.031
     16       Au     1      11.000         10.969                         0.031
     17       Au     1      11.000         11.013                        -0.013
     18       Au     1      11.000         11.013                        -0.013
     19       Au     1      11.000         11.016                        -0.016
     20       Au     1      11.000         11.016                        -0.016
     21       Au     1      11.000         10.963                         0.037
     22       Au     1      11.000         10.963                         0.037
     23       Au     1      11.000         11.016                        -0.016
     24       Au     1      11.000         11.016                        -0.016
     25       Au     1      11.000         11.001                        -0.001
     26       Au     1      11.000         11.001                        -0.001
     27       Au     1      11.000         10.952                         0.048
     28       Au     1      11.000         10.952                         0.048
     29       Au     1      11.000         11.001                        -0.001
     30       Au     1      11.000         11.001                        -0.001
     31       Au     1      11.000         11.028                        -0.028
     32       Au     1      11.000         11.028                        -0.028
     33       Au     1      11.000         10.997                         0.003
     34       Au     1      11.000         10.997                         0.003
     35       Au     1      11.000         11.028                        -0.028
     36       Au     1      11.000         11.028                        -0.028
     37       Au     1      11.000         11.028                        -0.028
     38       Au     1      11.000         11.028                        -0.028
     39       Au     1      11.000         10.997                         0.003
     40       Au     1      11.000         10.997                         0.003
     41       Au     1      11.000         11.028                        -0.028
     42       Au     1      11.000         11.028                        -0.028
     43       Au     1      11.000         11.001                        -0.001
     44       Au     1      11.000         11.001                        -0.001
     45       Au     1      11.000         10.952                         0.048
     46       Au     1      11.000         10.952                         0.048
     47       Au     1      11.000         11.001                        -0.001
     48       Au     1      11.000         11.001                        -0.001
     49       Au     1      11.000         11.016                        -0.016
     50       Au     1      11.000         11.016                        -0.016
     51       Au     1      11.000         10.963                         0.037
     52       Au     1      11.000         10.963                         0.037
     53       Au     1      11.000         11.016                        -0.016
     54       Au     1      11.000         11.016                        -0.016
     55       Au     1      11.000         11.013                        -0.013
     56       Au     1      11.000         11.013                        -0.013
     57       Au     1      11.000         10.969                         0.031
     58       Au     1      11.000         10.969                         0.031
     59       Au     1      11.000         11.013                        -0.013
     60       Au     1      11.000         11.013                        -0.013
     61       Au     1      11.000         11.018                        -0.018
     62       Au     1      11.000         11.018                        -0.018
     63       Au     1      11.000         10.968                         0.032
     64       Au     1      11.000         10.968                         0.032
     65       Au     1      11.000         11.018                        -0.018
     66       Au     1      11.000         11.018                        -0.018
     67       Au     1      11.000         11.016                        -0.016
     68       Au     1      11.000         11.016                        -0.016
     69       Au     1      11.000         10.967                         0.033
     70       Au     1      11.000         10.967                         0.033
     71       Au     1      11.000         11.016                        -0.016
     72       Au     1      11.000         11.016                        -0.016

  Total Charge                                                           -0.000
 !-----------------------------------------------------------------------------!

 ENERGY| Total FORCE_EVAL ( QS ) energy [a.u.]:            -2395.164533407838462

 -------------------------------------------------------------------------------
 -                                                                             -
 -                                DBCSR STATISTICS                             -
 -                                                                             -
 -------------------------------------------------------------------------------
 COUNTER                                    TOTAL       BLAS       SMM       ACC
 flops inhomo. stacks                           0       0.0%      0.0%      0.0%
 flops total                         0.000000E+00       0.0%      0.0%      0.0%
 flops max/rank                      0.000000E+00       0.0%      0.0%      0.0%
 matmuls inhomo. stacks                         0       0.0%      0.0%      0.0%
 matmuls total                                  0       0.0%      0.0%      0.0%
 number of processed stacks                     0       0.0%      0.0%      0.0%
 average stack size                                     0.0       0.0       0.0
 marketing flops                     0.000000E+00
 -------------------------------------------------------------------------------
 -                                                                             -
 -                      DBCSR MESSAGE PASSING PERFORMANCE                      -
 -                                                                             -
 -------------------------------------------------------------------------------
 ROUTINE             CALLS      AVE VOLUME [Bytes]
 MP_Bcast                1                     12.
 MP_Allreduce         1472                      8.
 MP_Alltoall        181192                  60068.
 -------------------------------------------------------------------------------

 -------------------------------------------------------------------------------
 -                                                                             -
 -                                DBM STATISTICS                               -
 -                                                                             -
 -------------------------------------------------------------------------------
    M  x    N  x    K                                          COUNT     PERCENT
 -------------------------------------------------------------------------------

 -------------------------------------------------------------------------------
 -                                                                             -
 -                                GRID STATISTICS                              -
 -                                                                             -
 -------------------------------------------------------------------------------
 LP    KERNEL             BACKEND                              COUNT     PERCENT
 4     collocate ortho    REF                                1122676      47.91%
 4     integrate ortho    REF                                1073864      45.82%
 0     collocate general  REF                                  77760       3.32%
 0     integrate general  REF                                  69120       2.95%
 -------------------------------------------------------------------------------

 MEMORY| Estimated peak process memory [MiB]                                2239

 -------------------------------------------------------------------------------
 ----                             MULTIGRID INFO                            ----
 -------------------------------------------------------------------------------
 count for grid        1:          22592          cutoff [a.u.]          200.00
 count for grid        2:          70180          cutoff [a.u.]           66.67
 count for grid        3:          34768          cutoff [a.u.]           22.22
 count for grid        4:          36472          cutoff [a.u.]            7.41
 total gridlevel count  :         164012

 -------------------------------------------------------------------------------
 -                                                                             -
 -                         MESSAGE PASSING PERFORMANCE                         -
 -                                                                             -
 -------------------------------------------------------------------------------

 ROUTINE             CALLS      AVE VOLUME [Bytes]
 MP_Group                5
 MP_Bcast            79268                   3145.
 MP_Allreduce         1382                   7577.
 MP_Sync               274
 MP_Alltoall           421
 MP_ISendRecv        10710                   8000.
 MP_Wait             80691
 MP_ISend            98225                   8460.
 MP_IRecv            98305                   8462.
 MP_Recv              1320                 165888.
 MP_Write_All            2                 547470.
 -------------------------------------------------------------------------------


 -------------------------------------------------------------------------------
 -                                                                             -
 -                           R E F E R E N C E S                               -
 -                                                                             -
 -------------------------------------------------------------------------------
 
 CP2K version 2022.1 (Development Version), the CP2K developers group (2022).
 CP2K is freely available from https://www.cp2k.org/ .

 Kuehne,Thomas D.; Iannuzzi,Marcella; Del Ben,Mauro;
 Rybkin,Vladimir V.; Seewald,Patrick; Stein,Frederick; Laino,Teodoro;
 Khaliullin,Rustam Z.; Schuett,Ole; Schiffmann,Florian; Golze,Dorothea;
 Wilhelm,Jan; Chulkov,Sergey; Bani-Hashemian,Mohammad Hossein;
 Weber,Valery; Borstnik,Urban; Taillefumier,Mathieu;
 Jakobovits,Alice Shoshana; Lazzaro,Alfio; Pabst,Hans; Mueller,Tiziano;
 Schade,Robert; Guidon,Manuel; Andermatt,Samuel; Holmberg,Nico;
 Schenter,Gregory K.; Hehn,Anna; Bussy,Augustin; Belleflamme,Fabian;
 Tabacchi,Gloria; Gloess,Andreas; Lass,Michael; Bethune,Iain;
 Mundy,Christopher J.; Plessl,Christian; Watkins,Matt;
 VandeVondele,Joost; Krack,Matthias; Hutter,Juerg. 
 The Journal of Chemical Physics, 152 (19), (2020). 
 CP2K: An electronic structure and molecular dynamics software package -
 Quickstep: Efficient and accurate electronic structure calculations.
 https://doi.org/10.1063/5.0007045

 Togo, Atsushi; Tanaka, Isao. arXiv, 1808.01590 (2018). 
 Spglib : a software library for crystal symmetry search.
 https://doi.org/xxx

 Schuett, Ole; Messmer, Peter; Hutter, Juerg; VandeVondele, Joost. 
 Electronic Structure Calculations on Graphics Processing Units, John
 Wiley & Sons, Ltd, 173-190 (2016). 
 GPU-Accelerated Sparse Matrix-Matrix Multiplication for
 Linear Scaling Density Functional Theory.
 https://doi.org/10.1002/9781118670712.ch8

 Heinecke, A; Henry, G; Hutchinson, M; Pabst, H. 
 Proceedings of Intl. Supercomputing Conference, 981-991 (2016). 
 LIBXSMM: Accelerating Small Matrix Multiplications
 by Runtime Code Generation.
 https://doi.org/10.1109/SC.2016.83

 Borstnik, U; VandeVondele, J; Weber, V; Hutter, J. 
 PARALLEL COMPUTING, 40 (5-6), 47-58 (2014). 
 Sparse matrix multiplication: The distributed block-compressed sparse
 row library.
 https://doi.org/10.1016/j.parco.2014.03.012

 Hutter, J; Iannuzzi, M; Schiffmann, F; VandeVondele, J. 
 WIREs Comput Mol Sci., 4 (1), 15-25 (2014). 
 CP2K: atomistic simulations of condensed matter systems.
 https://doi.org/10.1002/wcms.1159

 VandeVondele, J; Hutter, J. 
 JOURNAL OF CHEMICAL PHYSICS, 127 (11), 114105 (2007). 
 Gaussian basis sets for accurate calculations on molecular systems in
 gas and condensed phases.
 https://doi.org/10.1063/1.2770708

 Krack, M. 
 THEORETICAL CHEMISTRY ACCOUNTS, 114 (1-3), 145-152 (2005). 
 Pseudopotentials for H to Kr optimized for gradient-corrected
 exchange-correlation functionals.
 https://doi.org/10.1007/s00214-005-0655-y

 VandeVondele, J; Krack, M; Mohamed, F; Parrinello, M; Chassaing, T;
 Hutter, J. COMPUTER PHYSICS COMMUNICATIONS, 167 (2), 103-128 (2005). 
 QUICKSTEP: Fast and accurate density functional calculations using a
 mixed Gaussian and plane waves approach.
 https://doi.org/10.1016/j.cpc.2004.12.014

 Frigo, M; Johnson, SG. 
 PROCEEDINGS OF THE IEEE, 93 (2), 216-231 (2005). 
 The design and implementation of FFTW3.
 https://doi.org/10.1109/JPROC.2004.840301

 Hartwigsen, C; Goedecker, S; Hutter, J. 
 PHYSICAL REVIEW B, 58 (7), 3641-3662 (1998). 
 Relativistic separable dual-space Gaussian pseudopotentials from H to Rn.
 https://doi.org/10.1103/PhysRevB.58.3641

 Lippert, G; Hutter, J; Parrinello, M. 
 MOLECULAR PHYSICS, 92 (3), 477-487 (1997). 
 A hybrid Gaussian and plane wave density functional scheme.
 https://doi.org/10.1080/002689797170220

 Goedecker, S; Teter, M; Hutter, J. 
 PHYSICAL REVIEW B, 54 (3), 1703-1710 (1996). 
 Separable dual-space Gaussian pseudopotentials.
 https://doi.org/10.1103/PhysRevB.54.1703


 -------------------------------------------------------------------------------
 -                                                                             -
 -                                T I M I N G                                  -
 -                                                                             -
 -------------------------------------------------------------------------------
 SUBROUTINE                       CALLS  ASD         SELF TIME        TOTAL TIME
                                MAXIMUM       AVERAGE  MAXIMUM  AVERAGE  MAXIMUM
 CP2K                                 1  1.0    0.124    0.281  387.411  387.416
 qs_energies                          1  2.0    0.000    0.000  385.739  385.743
 scf_env_do_scf                       1  3.0    0.000    0.000  383.217  383.302
 scf_env_do_scf_inner_loop           22  4.0    0.003    0.132  383.217  383.301
 qs_scf_new_mos_kp                   22  5.0    0.000    0.000  377.408  377.413
 do_general_diag_kp                  22  6.0    0.053    0.057  377.408  377.413
 cp_cfm_geeig                      2200  7.0    0.025    0.031  313.262  313.449
 cp_cfm_heevd                      2200  8.0  276.112  276.641  276.112  276.641
 cp_fm_start_copy_general         13200  7.3    0.589    0.887   24.941   25.119
 mp_allgather_i                   26400  8.3   16.252   18.168   16.252   18.168
 cp_cfm_cholesky_decompose         2200  8.0   15.332   15.832   15.332   15.832
 cp_cfm_triangular_multiply        6600  8.0   14.415   14.964   14.415   14.964
 copy_dbcsr_to_fm                  8866  7.0    0.072    0.079   14.390   14.521
 dbcsr_desymmetrize_deep          17666  7.5    0.298    0.516   13.005   13.443
 dbcsr_complete_redistribute      13266  8.3    0.596    0.807   11.668   11.829
 kpoint_density_matrices             22  7.0    0.097    0.102   11.669   11.697
 cp_gemm                           8800  8.0    0.007    0.008   11.562   11.597
 cp_gemm_fm_gemm                   8800  9.0    0.006    0.008   11.555   11.591
 cp_fm_gemm                        8800 10.0   11.549   11.586   11.549   11.586
 kpoint_density_transform            22  7.0    0.011    0.014   11.003   11.006
 mp_isend_dv                      17280  8.9    7.859   10.101    7.859   10.101
 mp_alltoall_d11v                 92841  9.4    9.373    9.513    9.373    9.513
 -------------------------------------------------------------------------------

 The number of warnings for this run is : 0
 
 -------------------------------------------------------------------------------
  **** **** ******  **  PROGRAM ENDED AT                 2023-03-23 13:14:18.877
 ***** ** ***  *** **   PROGRAM RAN ON                     cn1048.scarf.rl.ac.uk
 **    ****   ******    PROGRAM RAN BY                                 scarf1157
 ***** **    ** ** **   PROGRAM PROCESS ID                                 33163
  **** **  *******  **  PROGRAM STOPPED IN /work4/scd/scarf1157/work/testing/cp2
                                           k-smeagol/bdt/cp2k/hollow-site/transp
                                           ort-cp2k/5-4/geometry-ordered/3x3-4/s
                                           z/bulk_layers-4/transmission/exp/capa
                                           citor/sergey-2d-equal/x-4.168/kpoints
                                           -10-10-20_hlb-auto
