ATOMS
H             0.00000000      0.00000000     -0.00998254             0.00009031     -0.00001700     -0.70710678
H             0.00000000      0.00000000      0.73998166            -0.00009031      0.00001700      0.70710678
