ATOMS
H             0.00000000      0.00000000     -0.00998254            -0.00167783      0.70710479     -0.00001721
H             0.00000000      0.00000000      0.73998166             0.00167783     -0.70710479      0.00001721
