ATOMS
H             0.00000000      0.00000000     -0.00998254             0.00004383     -0.69641485      0.12250045
H             0.00000000      0.00000000      0.73998166             0.00004383     -0.69641485      0.12250045
