ATOMS
H             3.25353201      5.72009504     18.92650888            -0.00521048     -0.00486225     -0.70707087
H             3.25912820      5.72513736     19.72876617             0.00521048      0.00486225      0.70707087
