ATOMS
H             0.00000000      0.00000000     -0.00998254            -0.00079478      0.70710633     -0.00001917
H             0.00000000      0.00000000      0.73998166             0.00079478     -0.70710633      0.00001917
