ATOMS
H             0.00000000      0.00000000     -0.00998254            -0.70710579     -0.00114527     -0.00030470
H             0.00000000      0.00000000      0.73998166            -0.70710579     -0.00114527     -0.00030470
