ATOMS
H             0.00000000      0.00000000     -0.00998254             0.70710632      0.00079478      0.00012791
H             0.00000000      0.00000000      0.73998166            -0.70710632     -0.00079478     -0.00012791
