ATOMS
H             0.00000000      0.00000000     -0.00998254             0.00000266     -0.18333823      0.68292539
H             0.00000000      0.00000000      0.73998166             0.00000266     -0.18333823      0.68292539
