ATOMS
Au            1.78720903      1.28067091      0.00000000             0.00000000      0.00000000      0.00000000
Au            0.30935586      2.75852409      2.09000000             0.00000000      0.00000000      0.00000000
Au            1.78720903      1.28067091      4.18000000             0.00000000      0.00000000      0.00000000
Au            0.30935586      2.75852409      6.27000000             0.00000000      0.00000000      0.00000000
Au            4.74291537      1.28067091      0.00000000             0.00000000      0.00000000      0.00000000
Au            3.26506220      2.75852409      2.09000000             0.00000000      0.00000000      0.00000000
Au            4.74291537      1.28067091      4.18000000             0.00000000      0.00000000      0.00000000
Au            3.26506220      2.75852409      6.27000000             0.00000000      0.00000000      0.00000000
Au            7.69862172      1.28067091      0.00000000             0.00000000      0.00000000      0.00000000
Au            6.22076855      2.75852409      2.09000000             0.00000000      0.00000000      0.00000000
Au            7.69862172      1.28067091      4.18000000             0.00000000      0.00000000      0.00000000
Au            6.22076855      2.75852409      6.27000000             0.00000000      0.00000000      0.00000000
Au            1.78720903      4.23637726      0.00000000             0.00000000      0.00000000      0.00000000
Au            0.30935586      5.71423043      2.09000000             0.00000000      0.00000000      0.00000000
Au            1.78720903      4.23637726      4.18000000             0.00000000      0.00000000      0.00000000
Au            0.30935586      5.71423043      6.27000000             0.00000000      0.00000000      0.00000000
Au            4.74291537      4.23637726      0.00000000             0.00000000      0.00000000      0.00000000
Au            3.26506220      5.71423043      2.09000000             0.00000000      0.00000000      0.00000000
Au            4.74291537      4.23637726      4.18000000             0.00000000      0.00000000      0.00000000
Au            3.26506220      5.71423043      6.27000000             0.00000000      0.00000000      0.00000000
Au            7.69862172      4.23637726      0.00000000             0.00000000      0.00000000      0.00000000
Au            6.22076855      5.71423043      2.09000000             0.00000000      0.00000000      0.00000000
Au            7.69862172      4.23637726      4.18000000             0.00000000      0.00000000      0.00000000
Au            6.22076855      5.71423043      6.27000000             0.00000000      0.00000000      0.00000000
Au            1.78720903      7.19208360      0.00000000             0.00000000      0.00000000      0.00000000
Au            0.30935586      8.66993678      2.09000000             0.00000000      0.00000000      0.00000000
Au            1.78720903      7.19208360      4.18000000             0.00000000      0.00000000      0.00000000
Au            0.30935586      8.66993678      6.27000000             0.00000000      0.00000000      0.00000000
Au            4.74291537      7.19208360      0.00000000             0.00000000      0.00000000      0.00000000
Au            3.26506220      8.66993678      2.09000000             0.00000000      0.00000000      0.00000000
Au            4.74291537      7.19208360      4.18000000             0.00000000      0.00000000      0.00000000
Au            3.26506220      8.66993678      6.27000000             0.00000000      0.00000000      0.00000000
Au            7.69862172      7.19208360      0.00000000             0.00000000      0.00000000      0.00000000
Au            6.22076855      8.66993678      2.09000000             0.00000000      0.00000000      0.00000000
Au            7.69862172      7.19208360      4.18000000             0.00000000      0.00000000      0.00000000
Au            6.22076855      8.66993678      6.27000000             0.00000000      0.00000000      0.00000000
Au            1.78720903      1.28067091      8.36000000             0.00000000      0.00000000      0.00000000
Au            1.78720903      4.23637726      8.36000000             0.00000000      0.00000000      0.00000000
Au            1.78720903      7.19208360      8.36000000             0.00000000      0.00000000      0.00000000
Au            4.74291537      1.28067091      8.36000000             0.00000000      0.00000000      0.00000000
Au            4.74291537      4.23637726      8.36000000             0.00000000      0.00000000      0.00000000
Au            4.74291537      7.19208360      8.36000000             0.00000000      0.00000000      0.00000000
Au            7.69862172      1.28067091      8.36000000             0.00000000      0.00000000      0.00000000
Au            7.69862172      4.23637726      8.36000000             0.00000000      0.00000000      0.00000000
Au            7.69862172      7.19208360      8.36000000             0.00000000      0.00000000      0.00000000
Au            0.30935586      2.75852409     10.45000000             0.00000000      0.00000000      0.00000000
Au            0.30935586      5.71423043     10.45000000             0.00000000      0.00000000      0.00000000
Au            0.30935586      8.66993678     10.45000000             0.00000000      0.00000000      0.00000000
Au            3.26506220      2.75852409     10.45000000             0.00000000      0.00000000      0.00000000
Au            3.26506220      5.71423043     10.45000000             0.00000000      0.00000000      0.00000000
Au            3.26506220      8.66993678     10.45000000             0.00000000      0.00000000      0.00000000
Au            6.22076855      2.75852409     10.45000000             0.00000000      0.00000000      0.00000000
Au            6.22076855      5.71423043     10.45000000             0.00000000      0.00000000      0.00000000
Au            6.22076855      8.66993678     10.45000000             0.00000000      0.00000000      0.00000000
Au            1.76036375      4.20933905     12.43858248             0.00000000      0.00000000      0.00000000
Au            1.75972111      7.21928990     12.43924185             0.00000000      0.00000000      0.00000000
Au            4.76977728      4.20929950     12.43883529             0.00000000      0.00000000      0.00000000
Au            4.76978921      7.21885116     12.43914208             0.00000000      0.00000000      0.00000000
Au            3.26425117      5.71446159     14.36719708            -0.01016827     -0.01087849      0.02078185
Au            3.26727333      5.74861564     17.02984180             0.00190678      0.00250772      0.03059068
H             3.25233623      5.71883507     18.90482426            -0.15992225     -0.18248428      0.03095495
H             3.25665981      5.72559861     19.77499875            -0.11137141     -0.13191358      0.02912822
Au            3.24147828      5.71507984     21.65392443            -0.04554372     -0.04451259      0.03616974
Au            3.26364179      5.71462597     24.30437944             0.66346332      0.67964724      0.02111355
Au            1.77185140      4.22006808     26.27405802             0.00000000      0.00000000      0.00000000
Au            1.77140219      7.20779710     26.27450060             0.00000000      0.00000000      0.00000000
Au            4.75850325      4.22076892     26.27381893             0.00000000      0.00000000      0.00000000
Au            4.75888092      7.20721796     26.27422939             0.00000000      0.00000000      0.00000000
Au            0.30935586      2.75852409     28.27000000             0.00000000      0.00000000      0.00000000
Au            0.30935586      5.71423043     28.27000000             0.00000000      0.00000000      0.00000000
Au            0.30935586      8.66993678     28.27000000             0.00000000      0.00000000      0.00000000
Au            3.26506220      2.75852409     28.27000000             0.00000000      0.00000000      0.00000000
Au            3.26506220      5.71423043     28.27000000             0.00000000      0.00000000      0.00000000
Au            3.26506220      8.66993678     28.27000000             0.00000000      0.00000000      0.00000000
Au            6.22076855      2.75852409     28.27000000             0.00000000      0.00000000      0.00000000
Au            6.22076855      5.71423043     28.27000000             0.00000000      0.00000000      0.00000000
Au            6.22076855      8.66993678     28.27000000             0.00000000      0.00000000      0.00000000
Au            1.78720903      1.28067091     30.36000000             0.00000000      0.00000000      0.00000000
Au            0.30935586      2.75852409     32.45000000             0.00000000      0.00000000      0.00000000
Au            1.78720903      1.28067091     34.54000000             0.00000000      0.00000000      0.00000000
Au            0.30935586      2.75852409     36.63000000             0.00000000      0.00000000      0.00000000
Au            4.74291537      1.28067091     30.36000000             0.00000000      0.00000000      0.00000000
Au            3.26506220      2.75852409     32.45000000             0.00000000      0.00000000      0.00000000
Au            4.74291537      1.28067091     34.54000000             0.00000000      0.00000000      0.00000000
Au            3.26506220      2.75852409     36.63000000             0.00000000      0.00000000      0.00000000
Au            7.69862172      1.28067091     30.36000000             0.00000000      0.00000000      0.00000000
Au            6.22076855      2.75852409     32.45000000             0.00000000      0.00000000      0.00000000
Au            7.69862172      1.28067091     34.54000000             0.00000000      0.00000000      0.00000000
Au            6.22076855      2.75852409     36.63000000             0.00000000      0.00000000      0.00000000
Au            1.78720903      4.23637726     30.36000000             0.00000000      0.00000000      0.00000000
Au            0.30935586      5.71423043     32.45000000             0.00000000      0.00000000      0.00000000
Au            1.78720903      4.23637726     34.54000000             0.00000000      0.00000000      0.00000000
Au            0.30935586      5.71423043     36.63000000             0.00000000      0.00000000      0.00000000
Au            4.74291537      4.23637726     30.36000000             0.00000000      0.00000000      0.00000000
Au            3.26506220      5.71423043     32.45000000             0.00000000      0.00000000      0.00000000
Au            4.74291537      4.23637726     34.54000000             0.00000000      0.00000000      0.00000000
Au            3.26506220      5.71423043     36.63000000             0.00000000      0.00000000      0.00000000
Au            7.69862172      4.23637726     30.36000000             0.00000000      0.00000000      0.00000000
Au            6.22076855      5.71423043     32.45000000             0.00000000      0.00000000      0.00000000
Au            7.69862172      4.23637726     34.54000000             0.00000000      0.00000000      0.00000000
Au            6.22076855      5.71423043     36.63000000             0.00000000      0.00000000      0.00000000
Au            1.78720903      7.19208360     30.36000000             0.00000000      0.00000000      0.00000000
Au            0.30935586      8.66993678     32.45000000             0.00000000      0.00000000      0.00000000
Au            1.78720903      7.19208360     34.54000000             0.00000000      0.00000000      0.00000000
Au            0.30935586      8.66993678     36.63000000             0.00000000      0.00000000      0.00000000
Au            4.74291537      7.19208360     30.36000000             0.00000000      0.00000000      0.00000000
Au            3.26506220      8.66993678     32.45000000             0.00000000      0.00000000      0.00000000
Au            4.74291537      7.19208360     34.54000000             0.00000000      0.00000000      0.00000000
Au            3.26506220      8.66993678     36.63000000             0.00000000      0.00000000      0.00000000
Au            7.69862172      7.19208360     30.36000000             0.00000000      0.00000000      0.00000000
Au            6.22076855      8.66993678     32.45000000             0.00000000      0.00000000      0.00000000
Au            7.69862172      7.19208360     34.54000000             0.00000000      0.00000000      0.00000000
Au            6.22076855      8.66993678     36.63000000             0.00000000      0.00000000      0.00000000
