 DBCSR| CPU Multiplication driver                                           BLAS
 DBCSR| Multrec recursion limit                                              512
 DBCSR| Multiplication stack size                                           1000
 DBCSR| Maximum elements for images                                    UNLIMITED
 DBCSR| Multiplicative factor virtual images                                   1
 DBCSR| Use multiplication densification                                       T
 DBCSR| Multiplication size stacks                                             3
 DBCSR| Use memory pool for CPU allocation                                     F
 DBCSR| Number of 3D layers                                               SINGLE
 DBCSR| Use MPI memory allocation                                              F
 DBCSR| Use RMA algorithm                                                      F
 DBCSR| Use Communication thread                                               T
 DBCSR| Communication thread load                                             83
 DBCSR| MPI: My node id                                                        0
 DBCSR| MPI: Number of nodes                                                 192
 DBCSR| OMP: Current number of threads                                         2
 DBCSR| OMP: Max number of threads                                             2
 DBCSR| Split modifier for TAS multiplication algorithm                  1.0E+00


  **** **** ******  **  PROGRAM STARTED AT               2023-11-28 08:38:55.018
 ***** ** ***  *** **   PROGRAM STARTED ON                             nid002973
 **    ****   ******    PROGRAM STARTED BY                                cahart
 ***** **    ** ** **   PROGRAM PROCESS ID                                174644
  **** **  *******  **  PROGRAM STARTED IN /mnt/lustre/a2fs-work2/work/e05/e05/c
                                           ahart/postdoc/transport/cp2k-smeagol-
                                           examples/au-h2/cp2k-smeagol/geo_opt/k
                                           points-3-3-20_omp-2_ParallelOverKNum-
                                           3_contour-double_dynamic-14_2/1.7

 CP2K| version string:                 CP2K version 2022.1 (Development Version)
 CP2K| source code revision number:                                  git:3a6d0d5
 CP2K| cp2kflags: omp libint fftw3 libxc elpa parallel mpi3 scalapack mkl       
 CP2K| is freely available from                            https://www.cp2k.org/
 CP2K| Program compiled at                          Fri  3 Nov 17:12:21 GMT 2023
 CP2K| Program compiled on                                                  ln01
 CP2K| Program compiled for                                                local
 CP2K| Data directory path    /work/e05/e05/cahart/smeagol/smgl/cp2k-private-ser
 CP2K| Input file name                                                4_1.7V.inp

 GLOBAL| Force Environment number                                              1
 GLOBAL| Basis set file name                                        BASIS_MOLOPT
 GLOBAL| Potential file name                                      GTH_POTENTIALS
 GLOBAL| MM Potential file name                                     MM_POTENTIAL
 GLOBAL| Coordinate file name                                             em.xyz
 GLOBAL| Method name                                                        CP2K
 GLOBAL| Project name                                                       1.7V
 GLOBAL| Run type                                                        GEO_OPT
 GLOBAL| FFT library                                                       FFTW3
 GLOBAL| Diagonalization library                                            ELPA
 GLOBAL| Minimum number of eigenvectors for ELPA usage                        16
 GLOBAL| Orthonormality check for eigenvectors                          DISABLED
 GLOBAL| Matrix multiplication library                                 ScaLAPACK
 GLOBAL| All-to-all communication in single precision                          F
 GLOBAL| FFTs using library dependent lengths                                  T
 GLOBAL| Grid backend                                                       AUTO
 GLOBAL| Global print level                                               MEDIUM
 GLOBAL| MPI I/O enabled                                                       T
 GLOBAL| Total number of message passing processes                           192
 GLOBAL| Number of threads for this process                                    2
 GLOBAL| This output is from process                                           0
 GLOBAL| Stack size for threads created by OpenMP (OMP_STACKSIZE)        default
 GLOBAL| CPU model name                          AMD EPYC 7742 64-Core Processor
 GLOBAL| CPUID                                                              1002

 MEMORY| system memory details [Kb]
 MEMORY|                        rank 0           min           max       average
 MEMORY| MemTotal            527583076     527583076     527583076     527583076
 MEMORY| MemFree             502018680     502018680     506820388     504888740
 MEMORY| Buffers                     0             0             0             0
 MEMORY| Cached                5640532       1434176       5640532       2837529
 MEMORY| Slab                  3293588       2837412       3293588       3000153
 MEMORY| SReclaimable           144820        113724        144820        126977
 MEMORY| MemLikelyFree       507804032     507378756     508376952     507853246


 *** Fundamental physical constants (SI units) ***

 *** Literature: B. J. Mohr and B. N. Taylor,
 ***             CODATA recommended values of the fundamental physical
 ***             constants: 2006, Web Version 5.1
 ***             http://physics.nist.gov/constants

 Speed of light in vacuum [m/s]                             2.99792458000000E+08
 Magnetic constant or permeability of vacuum [N/A**2]       1.25663706143592E-06
 Electric constant or permittivity of vacuum [F/m]          8.85418781762039E-12
 Planck constant (h) [J*s]                                  6.62606896000000E-34
 Planck constant (h-bar) [J*s]                              1.05457162825177E-34
 Elementary charge [C]                                      1.60217648700000E-19
 Electron mass [kg]                                         9.10938215000000E-31
 Electron g factor [ ]                                     -2.00231930436220E+00
 Proton mass [kg]                                           1.67262163700000E-27
 Fine-structure constant                                    7.29735253760000E-03
 Rydberg constant [1/m]                                     1.09737315685270E+07
 Avogadro constant [1/mol]                                  6.02214179000000E+23
 Boltzmann constant [J/K]                                   1.38065040000000E-23
 Atomic mass unit [kg]                                      1.66053878200000E-27
 Bohr radius [m]                                            5.29177208590000E-11

 *** Conversion factors ***

 [u] -> [a.u.]                                              1.82288848426455E+03
 [Angstrom] -> [Bohr] = [a.u.]                              1.88972613288564E+00
 [a.u.] = [Bohr] -> [Angstrom]                              5.29177208590000E-01
 [a.u.] -> [s]                                              2.41888432650478E-17
 [a.u.] -> [fs]                                             2.41888432650478E-02
 [a.u.] -> [J]                                              4.35974393937059E-18
 [a.u.] -> [N]                                              8.23872205491840E-08
 [a.u.] -> [K]                                              3.15774647902944E+05
 [a.u.] -> [kJ/mol]                                         2.62549961709828E+03
 [a.u.] -> [kcal/mol]                                       6.27509468713739E+02
 [a.u.] -> [Pa]                                             2.94210107994716E+13
 [a.u.] -> [bar]                                            2.94210107994716E+08
 [a.u.] -> [atm]                                            2.90362800883016E+08
 [a.u.] -> [eV]                                             2.72113838565563E+01
 [a.u.] -> [Hz]                                             6.57968392072181E+15
 [a.u.] -> [1/cm] (wave numbers)                            2.19474631370540E+05
 [a.u./Bohr**2] -> [1/cm]                                   5.14048714338585E+03
 

 CELL_TOP| Volume [angstrom^3]:                                      3044.391638
 CELL_TOP| Vector a [angstrom     8.867     0.000     0.000   |a| =     8.867120
 CELL_TOP| Vector b [angstrom     0.000     8.867     0.000   |b| =     8.867120
 CELL_TOP| Vector c [angstrom     0.000     0.000    38.720   |c| =    38.720000
 CELL_TOP| Angle (b,c), alpha [degree]:                                90.000000
 CELL_TOP| Angle (a,c), beta  [degree]:                                90.000000
 CELL_TOP| Angle (a,b), gamma [degree]:                                90.000000
 CELL_TOP| Numerically orthorhombic:                                         YES
 CELL_TOP| Periodicity                                                       XYZ

 GENERATE|  Preliminary Number of Bonds generated:                             0
 GENERATE|  Achieved consistency in connectivity generation.

 CELL| Volume [angstrom^3]:                                          3044.391638
 CELL| Vector a [angstrom]:       8.867     0.000     0.000   |a| =     8.867120
 CELL| Vector b [angstrom]:       0.000     8.867     0.000   |b| =     8.867120
 CELL| Vector c [angstrom]:       0.000     0.000    38.720   |c| =    38.720000
 CELL| Angle (b,c), alpha [degree]:                                    90.000000
 CELL| Angle (a,c), beta  [degree]:                                    90.000000
 CELL| Angle (a,b), gamma [degree]:                                    90.000000
 CELL| Numerically orthorhombic:                                             YES
 CELL| Periodicity                                                           XYZ

 CELL_REF| Volume [angstrom^3]:                                      3044.391638
 CELL_REF| Vector a [angstrom     8.867     0.000     0.000   |a| =     8.867120
 CELL_REF| Vector b [angstrom     0.000     8.867     0.000   |b| =     8.867120
 CELL_REF| Vector c [angstrom     0.000     0.000    38.720   |c| =    38.720000
 CELL_REF| Angle (b,c), alpha [degree]:                                90.000000
 CELL_REF| Angle (a,c), beta  [degree]:                                90.000000
 CELL_REF| Angle (a,b), gamma [degree]:                                90.000000
 CELL_REF| Numerically orthorhombic:                                         YES
 CELL_REF| Periodicity                                                       XYZ

 *** WARNING in cryssym.F:165 :: Symmetry library SPGLIB not available ***


 *******************************************************************************
                                    Kpoints
 *******************************************************************************
 BRILLOUIN| K-point scheme                                        Monkhorst-Pack
 BRILLOUIN| K-Point grid                                             3    3    1
 BRILLOUIN| Accuracy in Symmetry determination                      0.100000E-07
 BRILLOUIN| K-Point point group symmetrization                               OFF
 BRILLOUIN| Wavefunction type                                            COMPLEX
 BRILLOUIN| Use full k-point grid     
 BRILLOUIN| List of Kpoints [2 Pi/Bohr]                                        9
 BRILLOUIN| Number           Weight            X              Y              Z
 BRILLOUIN|     1           0.11111       -0.33333       -0.33333        0.00000
 BRILLOUIN|     2           0.11111       -0.33333        0.00000        0.00000
 BRILLOUIN|     3           0.11111       -0.33333        0.33333        0.00000
 BRILLOUIN|     4           0.11111        0.00000       -0.33333        0.00000
 BRILLOUIN|     5           0.11111        0.00000        0.00000        0.00000
 BRILLOUIN|     6           0.11111        0.00000        0.33333        0.00000
 BRILLOUIN|     7           0.11111        0.33333       -0.33333        0.00000
 BRILLOUIN|     8           0.11111        0.33333        0.00000        0.00000
 BRILLOUIN|     9           0.11111        0.33333        0.33333        0.00000
 *******************************************************************************

 *******************************************************************************
 *******************************************************************************
 **                                                                           **
 **     #####                         ##              ##                      **
 **    ##   ##            ##          ##              ##                      **
 **   ##     ##                       ##            ######                    **
 **   ##     ##  ##   ##  ##   #####  ##  ##   ####   ##    #####    #####    **
 **   ##     ##  ##   ##  ##  ##      ## ##   ##      ##   ##   ##  ##   ##   **
 **   ##  ## ##  ##   ##  ##  ##      ####     ###    ##   ######   ######    **
 **    ##  ###   ##   ##  ##  ##      ## ##      ##   ##   ##       ##        **
 **     #######   #####   ##   #####  ##  ##  ####    ##    #####   ##        **
 **           ##                                                    ##        **
 **                                                                           **
 **                                                ... make the atoms dance   **
 **                                                                           **
 **            Copyright (C) by CP2K developers group (2000-2022)             **
 **                      J. Chem. Phys. 152, 194103 (2020)                    **
 **                                                                           **
 *******************************************************************************

 DFT| Spin restricted Kohn-Sham (RKS) calculation                            RKS
 DFT| Multiplicity                                                             2
 DFT| Number of spin states                                                    1
 DFT| Charge                                                                   0
 DFT| Self-interaction correction (SIC)                                       NO
 DFT| Cutoffs: density                                              1.000000E-10
 DFT|          gradient                                             1.000000E-10
 DFT|          tau                                                  1.000000E-10
 DFT|          cutoff_smoothing_range                               0.000000E+00
 DFT| XC density smoothing                                                  NONE
 DFT| XC derivatives                                                          PW

 FUNCTIONAL| PBE:
 FUNCTIONAL| J.P.Perdew, K.Burke, M.Ernzerhof, Phys. Rev. Letter, vol. 77, n 18,
 FUNCTIONAL|  pp. 3865-3868, (1996){spin unpolarized}                           


 QS| Method:                                                                 GPW
 QS| Density plane wave grid type                        NON-SPHERICAL FULLSPACE
 QS| Number of grid levels:                                                    4
 QS| Density cutoff [a.u.]:                                                300.0
 QS| Multi grid cutoff [a.u.]: 1) grid level                               300.0
 QS|                           2) grid level                               100.0
 QS|                           3) grid level                                33.3
 QS|                           4) grid level                                11.1
 QS| Grid level progression factor:                                          3.0
 QS| Relative density cutoff [a.u.]:                                        30.0
 QS| Interaction thresholds: eps_pgf_orb:                                1.0E-05
 QS|                         eps_filter_matrix:                          0.0E+00
 QS|                         eps_core_charge:                            1.0E-12
 QS|                         eps_rho_gspace:                             1.0E-10
 QS|                         eps_rho_rspace:                             1.0E-10
 QS|                         eps_gvg_rspace:                             1.0E-05
 QS|                         eps_ppl:                                    1.0E-02
 QS|                         eps_ppnl:                                   1.0E-07


 ATOMIC KIND INFORMATION

  1. Atomic kind: Au                                    Number of atoms:     111

     Orbital Basis Set                                         SZV-MOLOPT-SR-GTH

       Number of orbital shell sets:                                           1
       Number of orbital shells:                                               3
       Number of primitive Cartesian functions:                                5
       Number of Cartesian basis functions:                                   10
       Number of spherical basis functions:                                    9
       Norm type:                                                              2

       Normalised Cartesian orbitals:

                        Set   Shell   Orbital            Exponent    Coefficient

                          1       1    2s                2.950008       0.074626
                                                         1.563057      -0.007898
                                                         0.666664      -0.297688
                                                         0.251083       0.136809
                                                         0.081714       0.088198

                          1       2    3px               2.950008       0.148824
                                                         1.563057       0.025430
                                                         0.666664      -0.123003
                                                         0.251083       0.033648
                                                         0.081714       0.059008
                          1       2    3py               2.950008       0.148824
                                                         1.563057       0.025430
                                                         0.666664      -0.123003
                                                         0.251083       0.033648
                                                         0.081714       0.059008
                          1       2    3pz               2.950008       0.148824
                                                         1.563057       0.025430
                                                         0.666664      -0.123003
                                                         0.251083       0.033648
                                                         0.081714       0.059008

                          1       3    4dx2              2.950008      -0.139595
                                                         1.563057       1.319655
                                                         0.666664       0.377081
                                                         0.251083       0.046872
                                                         0.081714       0.001393
                          1       3    4dxy              2.950008      -0.241786
                                                         1.563057       2.285709
                                                         0.666664       0.653124
                                                         0.251083       0.081185
                                                         0.081714       0.002412
                          1       3    4dxz              2.950008      -0.241786
                                                         1.563057       2.285709
                                                         0.666664       0.653124
                                                         0.251083       0.081185
                                                         0.081714       0.002412
                          1       3    4dy2              2.950008      -0.139595
                                                         1.563057       1.319655
                                                         0.666664       0.377081
                                                         0.251083       0.046872
                                                         0.081714       0.001393
                          1       3    4dyz              2.950008      -0.241786
                                                         1.563057       2.285709
                                                         0.666664       0.653124
                                                         0.251083       0.081185
                                                         0.081714       0.002412
                          1       3    4dz2              2.950008      -0.139595
                                                         1.563057       1.319655
                                                         0.666664       0.377081
                                                         0.251083       0.046872
                                                         0.081714       0.001393

       Atomic covalent radius [Angstrom]:                                  1.340

       Atomic van der Waals radius [Angstrom]:                             1.660

     GTH Potential information for                                   GTH-PBE-q11

       Description:                       Goedecker-Teter-Hutter pseudopotential
                                           Goedecker et al., PRB 54, 1703 (1996)
                                          Hartwigsen et al., PRB 58, 3641 (1998)
                                                      Krack, TCA 114, 145 (2005)

       Gaussian exponent of the core charge distribution:               1.436369
       Electronic configuration (s p d ...):                           1   0  10

       Parameters of the local part of the GTH pseudopotential:

                          rloc        C1          C2          C3          C4
                        0.590000   10.517179

       Parameters of the non-local part of the GTH pseudopotential:

                   l      r(l)      h(i,j,l)

                   0    0.543847    5.786811   -2.250680
                                   -2.250680    2.905615
                   1    0.609173    4.284049   -4.071285
                                   -4.071285    4.817210
                   2    0.437309   -7.403281    3.010193
                                    3.010193   -3.413238

  2. Atomic kind: H                                     Number of atoms:       2

     Orbital Basis Set                                        DZVP-MOLOPT-SR-GTH

       Number of orbital shell sets:                                           1
       Number of orbital shells:                                               3
       Number of primitive Cartesian functions:                                5
       Number of Cartesian basis functions:                                    5
       Number of spherical basis functions:                                    5
       Norm type:                                                              2

       Normalised Cartesian orbitals:

                        Set   Shell   Orbital            Exponent    Coefficient

                          1       1    2s               10.068468      -0.133023
                                                         2.680223      -0.177618
                                                         0.791502      -0.258419
                                                         0.239116      -0.107525
                                                         0.082193      -0.014019

                          1       2    3s               10.068468       0.344673
                                                         2.680223       1.819821
                                                         0.791502      -0.999069
                                                         0.239116       0.017430
                                                         0.082193       0.082660

                          1       3    3px              10.068468       0.155326
                                                         2.680223       0.367157
                                                         0.791502       0.311480
                                                         0.239116       0.080105
                                                         0.082193       0.033440
                          1       3    3py              10.068468       0.155326
                                                         2.680223       0.367157
                                                         0.791502       0.311480
                                                         0.239116       0.080105
                                                         0.082193       0.033440
                          1       3    3pz              10.068468       0.155326
                                                         2.680223       0.367157
                                                         0.791502       0.311480
                                                         0.239116       0.080105
                                                         0.082193       0.033440

       Atomic covalent radius [Angstrom]:                                  0.320

       Atomic van der Waals radius [Angstrom]:                             1.090

     GTH Potential information for                                    GTH-PBE-q1

       Description:                       Goedecker-Teter-Hutter pseudopotential
                                           Goedecker et al., PRB 54, 1703 (1996)
                                          Hartwigsen et al., PRB 58, 3641 (1998)
                                                      Krack, TCA 114, 145 (2005)

       Gaussian exponent of the core charge distribution:              12.500000
       Electronic configuration (s p d ...):                                   1

       Parameters of the local part of the GTH pseudopotential:

                          rloc        C1          C2          C3          C4
                        0.200000   -4.178900    0.724463


 MOLECULE KIND INFORMATION


 All atoms are their own molecule, skipping detailed information


 TOTAL NUMBERS AND MAXIMUM NUMBERS

  Total number of            - Atomic kinds:                                   2
                             - Atoms:                                        113
                             - Shell sets:                                   113
                             - Shells:                                       339
                             - Primitive Cartesian functions:                565
                             - Cartesian basis functions:                   1120
                             - Spherical basis functions:                   1009

  Maximum angular momentum of- Orbital basis functions:                        2
                             - Local part of the GTH pseudopotential:          2
                             - Non-local part of the GTH pseudopotential:      4


 MODULE QUICKSTEP: ATOMIC COORDINATES IN ANGSTROM

   Atom Kind Element         X             Y             Z       Z(eff)     Mass
      1    1 Au   79      1.787000      1.281000      0.000000  11.0000 196.9666
      2    1 Au   79      0.309000      2.759000      2.090000  11.0000 196.9666
      3    1 Au   79      1.787000      1.281000      4.180000  11.0000 196.9666
      4    1 Au   79      0.309000      2.759000      6.270000  11.0000 196.9666
      5    1 Au   79      4.743000      1.281000      0.000000  11.0000 196.9666
      6    1 Au   79      3.265000      2.759000      2.090000  11.0000 196.9666
      7    1 Au   79      4.743000      1.281000      4.180000  11.0000 196.9666
      8    1 Au   79      3.265000      2.759000      6.270000  11.0000 196.9666
      9    1 Au   79      7.699000      1.281000      0.000000  11.0000 196.9666
     10    1 Au   79      6.221000      2.759000      2.090000  11.0000 196.9666
     11    1 Au   79      7.699000      1.281000      4.180000  11.0000 196.9666
     12    1 Au   79      6.221000      2.759000      6.270000  11.0000 196.9666
     13    1 Au   79      1.787000      4.236000      0.000000  11.0000 196.9666
     14    1 Au   79      0.309000      5.714000      2.090000  11.0000 196.9666
     15    1 Au   79      1.787000      4.236000      4.180000  11.0000 196.9666
     16    1 Au   79      0.309000      5.714000      6.270000  11.0000 196.9666
     17    1 Au   79      4.743000      4.236000      0.000000  11.0000 196.9666
     18    1 Au   79      3.265000      5.714000      2.090000  11.0000 196.9666
     19    1 Au   79      4.743000      4.236000      4.180000  11.0000 196.9666
     20    1 Au   79      3.265000      5.714000      6.270000  11.0000 196.9666
     21    1 Au   79      7.699000      4.236000      0.000000  11.0000 196.9666
     22    1 Au   79      6.221000      5.714000      2.090000  11.0000 196.9666
     23    1 Au   79      7.699000      4.236000      4.180000  11.0000 196.9666
     24    1 Au   79      6.221000      5.714000      6.270000  11.0000 196.9666
     25    1 Au   79      1.787000      7.192000      0.000000  11.0000 196.9666
     26    1 Au   79      0.309000      8.670000      2.090000  11.0000 196.9666
     27    1 Au   79      1.787000      7.192000      4.180000  11.0000 196.9666
     28    1 Au   79      0.309000      8.670000      6.270000  11.0000 196.9666
     29    1 Au   79      4.743000      7.192000      0.000000  11.0000 196.9666
     30    1 Au   79      3.265000      8.670000      2.090000  11.0000 196.9666
     31    1 Au   79      4.743000      7.192000      4.180000  11.0000 196.9666
     32    1 Au   79      3.265000      8.670000      6.270000  11.0000 196.9666
     33    1 Au   79      7.699000      7.192000      0.000000  11.0000 196.9666
     34    1 Au   79      6.221000      8.670000      2.090000  11.0000 196.9666
     35    1 Au   79      7.699000      7.192000      4.180000  11.0000 196.9666
     36    1 Au   79      6.221000      8.670000      6.270000  11.0000 196.9666
     37    1 Au   79      1.787000      1.281000      8.360000  11.0000 196.9666
     38    1 Au   79      1.787000      4.236000      8.360000  11.0000 196.9666
     39    1 Au   79      1.787000      7.192000      8.360000  11.0000 196.9666
     40    1 Au   79      4.743000      1.281000      8.360000  11.0000 196.9666
     41    1 Au   79      4.743000      4.236000      8.360000  11.0000 196.9666
     42    1 Au   79      4.743000      7.192000      8.360000  11.0000 196.9666
     43    1 Au   79      7.699000      1.281000      8.360000  11.0000 196.9666
     44    1 Au   79      7.699000      4.236000      8.360000  11.0000 196.9666
     45    1 Au   79      7.699000      7.192000      8.360000  11.0000 196.9666
     46    1 Au   79      0.309000      2.759000     10.450000  11.0000 196.9666
     47    1 Au   79      0.309000      5.714000     10.450000  11.0000 196.9666
     48    1 Au   79      0.309000      8.670000     10.450000  11.0000 196.9666
     49    1 Au   79      3.265000      2.759000     10.450000  11.0000 196.9666
     50    1 Au   79      3.265000      5.714000     10.450000  11.0000 196.9666
     51    1 Au   79      3.265000      8.670000     10.450000  11.0000 196.9666
     52    1 Au   79      6.221000      2.759000     10.450000  11.0000 196.9666
     53    1 Au   79      6.221000      5.714000     10.450000  11.0000 196.9666
     54    1 Au   79      6.221000      8.670000     10.450000  11.0000 196.9666
     55    1 Au   79      1.767000      4.215000     12.446000  11.0000 196.9666
     56    1 Au   79      1.766000      7.214000     12.446000  11.0000 196.9666
     57    1 Au   79      4.765000      4.213000     12.446000  11.0000 196.9666
     58    1 Au   79      4.767000      7.214000     12.445000  11.0000 196.9666
     59    1 Au   79      3.270932      5.718890     14.451439  11.0000 196.9666
     60    1 Au   79      3.492865      5.932516     17.135471  11.0000 196.9666
     61    2 H     1      3.209250      5.659807     18.925096   1.0000   1.0079
     62    2 H     1      3.325638      5.772092     19.795115   1.0000   1.0079
     63    1 Au   79      3.042494      5.498844     21.584734  11.0000 196.9666
     64    1 Au   79      3.261206      5.710306     24.269238  11.0000 196.9666
     65    1 Au   79      1.765000      4.213000     26.275000  11.0000 196.9666
     66    1 Au   79      1.765000      7.214000     26.274000  11.0000 196.9666
     67    1 Au   79      4.765000      4.214000     26.274000  11.0000 196.9666
     68    1 Au   79      4.765000      7.214000     26.275000  11.0000 196.9666
     69    1 Au   79      0.309000      2.759000     28.270000  11.0000 196.9666
     70    1 Au   79      0.309000      5.714000     28.270000  11.0000 196.9666
     71    1 Au   79      0.309000      8.670000     28.270000  11.0000 196.9666
     72    1 Au   79      3.265000      2.759000     28.270000  11.0000 196.9666
     73    1 Au   79      3.265000      5.714000     28.270000  11.0000 196.9666
     74    1 Au   79      3.265000      8.670000     28.270000  11.0000 196.9666
     75    1 Au   79      6.221000      2.759000     28.270000  11.0000 196.9666
     76    1 Au   79      6.221000      5.714000     28.270000  11.0000 196.9666
     77    1 Au   79      6.221000      8.670000     28.270000  11.0000 196.9666
     78    1 Au   79      1.787000      1.281000     30.360000  11.0000 196.9666
     79    1 Au   79      0.309000      2.759000     32.450000  11.0000 196.9666
     80    1 Au   79      1.787000      1.281000     34.540000  11.0000 196.9666
     81    1 Au   79      0.309000      2.759000     36.630000  11.0000 196.9666
     82    1 Au   79      4.743000      1.281000     30.360000  11.0000 196.9666
     83    1 Au   79      3.265000      2.759000     32.450000  11.0000 196.9666
     84    1 Au   79      4.743000      1.281000     34.540000  11.0000 196.9666
     85    1 Au   79      3.265000      2.759000     36.630000  11.0000 196.9666
     86    1 Au   79      7.699000      1.281000     30.360000  11.0000 196.9666
     87    1 Au   79      6.221000      2.759000     32.450000  11.0000 196.9666
     88    1 Au   79      7.699000      1.281000     34.540000  11.0000 196.9666
     89    1 Au   79      6.221000      2.759000     36.630000  11.0000 196.9666
     90    1 Au   79      1.787000      4.236000     30.360000  11.0000 196.9666
     91    1 Au   79      0.309000      5.714000     32.450000  11.0000 196.9666
     92    1 Au   79      1.787000      4.236000     34.540000  11.0000 196.9666
     93    1 Au   79      0.309000      5.714000     36.630000  11.0000 196.9666
     94    1 Au   79      4.743000      4.236000     30.360000  11.0000 196.9666
     95    1 Au   79      3.265000      5.714000     32.450000  11.0000 196.9666
     96    1 Au   79      4.743000      4.236000     34.540000  11.0000 196.9666
     97    1 Au   79      3.265000      5.714000     36.630000  11.0000 196.9666
     98    1 Au   79      7.699000      4.236000     30.360000  11.0000 196.9666
     99    1 Au   79      6.221000      5.714000     32.450000  11.0000 196.9666
    100    1 Au   79      7.699000      4.236000     34.540000  11.0000 196.9666
    101    1 Au   79      6.221000      5.714000     36.630000  11.0000 196.9666
    102    1 Au   79      1.787000      7.192000     30.360000  11.0000 196.9666
    103    1 Au   79      0.309000      8.670000     32.450000  11.0000 196.9666
    104    1 Au   79      1.787000      7.192000     34.540000  11.0000 196.9666
    105    1 Au   79      0.309000      8.670000     36.630000  11.0000 196.9666
    106    1 Au   79      4.743000      7.192000     30.360000  11.0000 196.9666
    107    1 Au   79      3.265000      8.670000     32.450000  11.0000 196.9666
    108    1 Au   79      4.743000      7.192000     34.540000  11.0000 196.9666
    109    1 Au   79      3.265000      8.670000     36.630000  11.0000 196.9666
    110    1 Au   79      7.699000      7.192000     30.360000  11.0000 196.9666
    111    1 Au   79      6.221000      8.670000     32.450000  11.0000 196.9666
    112    1 Au   79      7.699000      7.192000     34.540000  11.0000 196.9666
    113    1 Au   79      6.221000      8.670000     36.630000  11.0000 196.9666



 SCF PARAMETERS         Density guess:                                   RESTART
                        --------------------------------------------------------
                        max_scf:                                             500
                        max_scf_history:                                       0
                        max_diis:                                              4
                        --------------------------------------------------------
                        eps_scf:                                        1.00E-06
                        eps_scf_history:                                0.00E+00
                        eps_diis:                                       1.00E-01
                        eps_eigval:                                     1.00E-05
                        --------------------------------------------------------
                        level_shift [a.u.]:                             0.000000
                        added MOs                                       100    0
                        --------------------------------------------------------
                        Mixing method:                            BROYDEN_MIXING
                                                charge density mixing in g-space
                        --------------------------------------------------------
                        Smear method:                                FERMI_DIRAC
                        Electronic temperature [K]:                        300.0
                        Electronic temperature [a.u.]:                  9.50E-04
                        Accuracy threshold:                             1.00E-10
                        --------------------------------------------------------
                        No outer SCF

 PW_GRID| Information for grid number                                          1
 PW_GRID| Grid distributed over                                   192 processors
 PW_GRID| Real space group dimensions                                    12   16
 PW_GRID| the grid is blocked:                                               YES
 PW_GRID| Cutoff [a.u.]                                                    300.0
 PW_GRID| spherical cutoff:                                                   NO
 PW_GRID|   Bounds   1            -66      65                Points:         132
 PW_GRID|   Bounds   2            -66      65                Points:         132
 PW_GRID|   Bounds   3           -288     287                Points:         576
 PW_GRID| Volume element (a.u.^3)  0.2047E-02     Volume (a.u.^3)     20544.5734
 PW_GRID| Grid span                                                    FULLSPACE
 PW_GRID|   Distribution                         Average         Max         Min
 PW_GRID|   G-Vectors                            52272.0       52272       52272
 PW_GRID|   G-Rays                                 396.0         396         396
 PW_GRID|   Real Space Points                    52272.0       52272       52272

 PW_GRID| Information for grid number                                          2
 PW_GRID| Number of the reference grid                                         1
 PW_GRID| Grid distributed over                                   192 processors
 PW_GRID| Real space group dimensions                                    12   16
 PW_GRID| the grid is blocked:                                                NO
 PW_GRID| Cutoff [a.u.]                                                    100.0
 PW_GRID| spherical cutoff:                                                   NO
 PW_GRID|   Bounds   1            -37      37                Points:          75
 PW_GRID|   Bounds   2            -37      37                Points:          75
 PW_GRID|   Bounds   3           -165     164                Points:         330
 PW_GRID| Volume element (a.u.^3)  0.1107E-01     Volume (a.u.^3)     20544.5734
 PW_GRID| Grid span                                                    FULLSPACE
 PW_GRID|   Distribution                         Average         Max         Min
 PW_GRID|   G-Vectors                             9668.0       29700           0
 PW_GRID|   G-Rays                                 128.9         396           0
 PW_GRID|   Real Space Points                     9668.0       11550        7920

 PW_GRID| Information for grid number                                          3
 PW_GRID| Number of the reference grid                                         1
 PW_GRID| Grid distributed over                                   192 processors
 PW_GRID| Real space group dimensions                                    12   16
 PW_GRID| the grid is blocked:                                                NO
 PW_GRID| Cutoff [a.u.]                                                     33.3
 PW_GRID| spherical cutoff:                                                   NO
 PW_GRID|   Bounds   1            -22      21                Points:          44
 PW_GRID|   Bounds   2            -22      21                Points:          44
 PW_GRID|   Bounds   3            -96      95                Points:         192
 PW_GRID| Volume element (a.u.^3)  0.5527E-01     Volume (a.u.^3)     20544.5734
 PW_GRID| Grid span                                                    FULLSPACE
 PW_GRID|   Distribution                         Average         Max         Min
 PW_GRID|   G-Vectors                             1936.0       17424           0
 PW_GRID|   G-Rays                                  44.0         396           0
 PW_GRID|   Real Space Points                     1936.0        2304        1152

 PW_GRID| Information for grid number                                          4
 PW_GRID| Number of the reference grid                                         1
 PW_GRID| Grid distributed over                                   192 processors
 PW_GRID| Real space group dimensions                                    12   16
 PW_GRID| the grid is blocked:                                                NO
 PW_GRID| Cutoff [a.u.]                                                     11.1
 PW_GRID| spherical cutoff:                                                   NO
 PW_GRID|   Bounds   1            -12      12                Points:          25
 PW_GRID|   Bounds   2            -12      12                Points:          25
 PW_GRID|   Bounds   3            -55      54                Points:         110
 PW_GRID| Volume element (a.u.^3)  0.2988         Volume (a.u.^3)     20544.5734
 PW_GRID| Grid span                                                    FULLSPACE
 PW_GRID|   Distribution                         Average         Max         Min
 PW_GRID|   G-Vectors                              358.1        9900           0
 PW_GRID|   G-Rays                                  14.3         396           0
 PW_GRID|   Real Space Points                      358.1         660         220

 POISSON| Solver                                                        PERIODIC
 POISSON| Periodicity                                                        XYZ

 RS_GRID| Information for grid number                                          1
 RS_GRID|   Bounds   1            -66      65                Points:         132
 RS_GRID|   Bounds   2            -66      65                Points:         132
 RS_GRID|   Bounds   3           -288     287                Points:         576
 RS_GRID| Real space distribution over                                  6 groups
 RS_GRID| Real space distribution along direction                              2
 RS_GRID| Border size                                                         35
 RS_GRID| Real space distribution over                                 32 groups
 RS_GRID| Real space distribution along direction                              3
 RS_GRID| Border size                                                         35
 RS_GRID|   Distribution                         Average         Max         Min
 RS_GRID|   Planes                                  92.0          92          92
 RS_GRID|   Distribution                         Average         Max         Min
 RS_GRID|   Planes                                  88.0          88          88

 RS_GRID| Information for grid number                                          2
 RS_GRID|   Bounds   1            -37      37                Points:          75
 RS_GRID|   Bounds   2            -37      37                Points:          75
 RS_GRID|   Bounds   3           -165     164                Points:         330
 RS_GRID| Real space distribution over                                  6 groups
 RS_GRID| Real space distribution along direction                              2
 RS_GRID| Border size                                                         24
 RS_GRID| Real space distribution over                                 32 groups
 RS_GRID| Real space distribution along direction                              3
 RS_GRID| Border size                                                         24
 RS_GRID|   Distribution                         Average         Max         Min
 RS_GRID|   Planes                                  60.5          61          60
 RS_GRID|   Distribution                         Average         Max         Min
 RS_GRID|   Planes                                  58.3          59          58

 RS_GRID| Information for grid number                                          3
 RS_GRID|   Bounds   1            -22      21                Points:          44
 RS_GRID|   Bounds   2            -22      21                Points:          44
 RS_GRID|   Bounds   3            -96      95                Points:         192
 RS_GRID| Real space fully replicated
 RS_GRID| Group size                                                           1

 RS_GRID| Information for grid number                                          4
 RS_GRID|   Bounds   1            -12      12                Points:          25
 RS_GRID|   Bounds   2            -12      12                Points:          25
 RS_GRID|   Bounds   3            -55      54                Points:         110
 RS_GRID| Real space fully replicated
 RS_GRID| Group size                                                           1

 KPOINTS| Number of kpoint groups                                              1
 KPOINTS| Size of each kpoint group                                          192
 KPOINTS| Number of kpoints per group                                          9

 BFGS| Use rational function optimization for step estimation:                NO
 BFGS| Use model Hessian for initial guess:                                  YES
 BFGS| Restart Hessian:                                                       NO
 BFGS| Trust radius:                                                       0.472

 *******************************************************************************
 ***                     STARTING GEOMETRY OPTIMIZATION                      ***
 ***                                   BFGS                                  ***
 *******************************************************************************

 Number of electrons:                                                       1223
 Number of occupied orbitals:                                                612
 Number of molecular orbitals:                                               712

 Number of orbital functions:                                               1009
 Number of independent orbital functions:                                   1009

 Extrapolation method: initial_guess


 SCF WAVEFUNCTION OPTIMIZATION

  Step     Update method      Time    Convergence         Total energy    Change
  ------------------------------------------------------------------------------
     1 NoMix/SMGL  0.30E+00   62.8     0.14761974     -3690.6393895863 -3.69E+03
     2 Broy./SMGL  0.30E+00   12.0     5.76878768     -3688.3774718062  2.26E+00
     3 Broy./SMGL  0.30E+00   11.9     5.76851874     -3755.7349999234 -6.74E+01
     4 Broy./SMGL  0.30E+00   11.9     0.35586762     -3691.5495529034  6.42E+01
     5 Broy./SMGL  0.30E+00   11.9     0.09532277     -3687.4009657461  4.15E+00
     6 Broy./SMGL  0.30E+00   11.9     0.02400458     -3689.0167013780 -1.62E+00
     7 Broy./SMGL  0.30E+00   11.9     0.02558192     -3689.2783099908 -2.62E-01
     8 Broy./SMGL  0.30E+00   11.9     0.03501463     -3689.4513402792 -1.73E-01
     9 Broy./SMGL  0.30E+00   11.9     0.03462118     -3689.7752106074 -3.24E-01
    10 Broy./SMGL  0.30E+00   12.0     0.03022534     -3689.7452308223  3.00E-02
    11 Broy./SMGL  0.30E+00   12.0     0.02832095     -3689.9410609766 -1.96E-01
    12 Broy./SMGL  0.30E+00   12.0     0.02680764     -3690.0343981835 -9.33E-02
    13 Broy./SMGL  0.30E+00   12.0     0.24073873     -3690.8286579267 -7.94E-01
    14 Broy./SMGL  0.30E+00   12.0     0.24262695     -3690.6679275146  1.61E-01
    15 Broy./SMGL  0.30E+00   12.0     0.02657005     -3690.6940127296 -2.61E-02
    16 Broy./SMGL  0.30E+00   12.0     0.03616445     -3690.6349172231  5.91E-02
    17 Broy./SMGL  0.30E+00   11.9     0.04356691     -3690.6116368317  2.33E-02
    18 Broy./SMGL  0.30E+00   11.9     0.00871607     -3690.6014438113  1.02E-02
    19 Broy./SMGL  0.30E+00   12.0     0.00261177     -3690.5977378453  3.71E-03
    20 Broy./SMGL  0.30E+00   12.0     0.00333354     -3690.6000372763 -2.30E-03
    21 Broy./SMGL  0.30E+00   12.0     0.00170461     -3690.5985055001  1.53E-03
    22 Broy./SMGL  0.30E+00   11.9     0.00386580     -3690.5984228414  8.27E-05
    23 Broy./SMGL  0.30E+00   12.0     0.00170458     -3690.5957249210  2.70E-03
    24 Broy./SMGL  0.30E+00   12.0     0.00128879     -3690.5955836839  1.41E-04
    25 Broy./SMGL  0.30E+00   11.9     0.00025288     -3690.5954100559  1.74E-04
    26 Broy./SMGL  0.30E+00   12.0     0.00034158     -3690.5951684160  2.42E-04
    27 Broy./SMGL  0.30E+00   12.0     0.00022606     -3690.5951669857  1.43E-06
    28 Broy./SMGL  0.30E+00   12.0     0.00061093     -3690.5951926387 -2.57E-05
    29 Broy./SMGL  0.30E+00   12.0     0.00019504     -3690.5952076716 -1.50E-05
    30 Broy./SMGL  0.30E+00   11.9     0.00016503     -3690.5952162421 -8.57E-06
    31 Broy./SMGL  0.30E+00   12.0     0.00016306     -3690.5952482513 -3.20E-05
    32 Broy./SMGL  0.30E+00   11.9     0.00005764     -3690.5952685142 -2.03E-05
    33 Broy./SMGL  0.30E+00   11.9     0.00006312     -3690.5952505793  1.79E-05
    34 Broy./SMGL  0.30E+00   11.9     0.00007127     -3690.5952665937 -1.60E-05
    35 Broy./SMGL  0.30E+00   11.9     0.00007438     -3690.5952614875  5.11E-06
    36 Broy./SMGL  0.30E+00   12.0     0.00005443     -3690.5952513855  1.01E-05
    37 Broy./SMGL  0.30E+00   12.0     0.00000679     -3690.5952633317 -1.19E-05
    38 Broy./SMGL  0.30E+00   12.0     0.00001499     -3690.5952650738 -1.74E-06
    39 Broy./SMGL  0.30E+00   12.0     0.00002194     -3690.5952657967 -7.23E-07
    40 Broy./SMGL  0.30E+00   12.0     0.00000627     -3690.5952630115  2.79E-06
    41 Broy./SMGL  0.30E+00   12.0     0.00001030     -3690.5952626985  3.13E-07
    42 Broy./SMGL  0.30E+00   12.0     0.00000148     -3690.5952612701  1.43E-06
    43 Broy./SMGL  0.30E+00   12.0     0.00000335     -3690.5952620193 -7.49E-07
    44 Broy./SMGL  0.30E+00   12.0     0.00000154     -3690.5952619084  1.11E-07
    45 Broy./SMGL  0.30E+00   12.0     0.00000014     -3690.5952618295  7.89E-08

  *** SCF run converged in    45 steps ***


  Electronic density on regular grids:      -1222.9580373773        0.0419626227
  Core density on regular grids:             1222.9999997993       -0.0000002007
  Total charge density on r-space grids:        0.0419624220
  Total charge density g-space grids:           0.0419624220

  Overlap energy of the core charge distribution:               0.00000053410942
  Self energy of the core charge distribution:              -6424.54153828207382
  Core Hamiltonian energy:                                   2052.86742505297480
  Hartree energy:                                            1264.52356678573301
  Exchange-correlation energy:                               -583.44471592022728
  Electronic entropic energy:                                   0.00000000000000
  Fermi energy:                                                 0.00000000000000

  Total energy:                                             -3690.59526182948321

 The electron density is written in cube file format to the file:

 1.7V-ELECTRON_DENSITY-1_0.cube

 !-----------------------------------------------------------------------------!
                     Mulliken Population Analysis

 #  Atom  Element  Kind  Atomic population                           Net charge
       1     Au       1         11.000099                             -0.000099
       2     Au       1         10.999254                              0.000746
       3     Au       1         10.987774                              0.012226
       4     Au       1         10.986796                              0.013204
       5     Au       1         11.000160                             -0.000160
       6     Au       1         10.999493                              0.000507
       7     Au       1         10.987582                              0.012418
       8     Au       1         10.979428                              0.020572
       9     Au       1         10.999914                              0.000086
      10     Au       1         10.999449                              0.000551
      11     Au       1         10.989360                              0.010640
      12     Au       1         10.986904                              0.013096
      13     Au       1         10.999859                              0.000141
      14     Au       1         10.999445                              0.000555
      15     Au       1         10.987632                              0.012368
      16     Au       1         10.979368                              0.020632
      17     Au       1         10.999920                              0.000080
      18     Au       1         10.999787                              0.000213
      19     Au       1         10.987605                              0.012395
      20     Au       1         10.975716                              0.024284
      21     Au       1         10.999675                              0.000325
      22     Au       1         10.999640                              0.000360
      23     Au       1         10.987333                              0.012667
      24     Au       1         10.979745                              0.020255
      25     Au       1         11.000144                             -0.000144
      26     Au       1         10.999568                              0.000432
      27     Au       1         10.987834                              0.012166
      28     Au       1         10.987051                              0.012949
      29     Au       1         11.000205                             -0.000205
      30     Au       1         10.999807                              0.000193
      31     Au       1         10.987874                              0.012126
      32     Au       1         10.979948                              0.020052
      33     Au       1         10.999960                              0.000040
      34     Au       1         10.999763                              0.000237
      35     Au       1         10.987372                              0.012628
      36     Au       1         10.987103                              0.012897
      37     Au       1         10.986947                              0.013053
      38     Au       1         10.948421                              0.051579
      39     Au       1         10.948524                              0.051476
      40     Au       1         10.987843                              0.012157
      41     Au       1         10.948256                              0.051744
      42     Au       1         10.948603                              0.051397
      43     Au       1         11.016972                             -0.016972
      44     Au       1         10.986473                              0.013527
      45     Au       1         10.987580                              0.012420
      46     Au       1         11.083625                             -0.083625
      47     Au       1         11.029767                             -0.029767
      48     Au       1         11.083949                             -0.083949
      49     Au       1         11.029883                             -0.029883
      50     Au       1         10.886929                              0.113071
      51     Au       1         11.031349                             -0.031349
      52     Au       1         11.083824                             -0.083824
      53     Au       1         11.030973                             -0.030973
      54     Au       1         11.083881                             -0.083881
      55     Au       1         11.025470                             -0.025470
      56     Au       1         11.020993                             -0.020993
      57     Au       1         11.020685                             -0.020685
      58     Au       1         11.016280                             -0.016280
      59     Au       1         11.105497                             -0.105497
      60     Au       1         11.047877                             -0.047877
      61     H        2          0.953567                              0.046433
      62     H        2          0.959261                              0.040739
      63     Au       1         11.069658                             -0.069658
      64     Au       1         11.168494                             -0.168494
      65     Au       1         11.006366                             -0.006366
      66     Au       1         11.007567                             -0.007567
      67     Au       1         11.007608                             -0.007608
      68     Au       1         11.010382                             -0.010382
      69     Au       1         11.026348                             -0.026348
      70     Au       1         10.986723                              0.013277
      71     Au       1         11.027232                             -0.027232
      72     Au       1         10.986929                              0.013071
      73     Au       1         10.871678                              0.128322
      74     Au       1         10.988874                              0.011126
      75     Au       1         11.027132                             -0.027132
      76     Au       1         10.988512                              0.011488
      77     Au       1         11.027950                             -0.027950
      78     Au       1         10.999901                              0.000099
      79     Au       1         10.987525                              0.012475
      80     Au       1         10.999962                              0.000038
      81     Au       1         10.999680                              0.000320
      82     Au       1         10.999774                              0.000226
      83     Au       1         10.987290                              0.012710
      84     Au       1         11.000049                             -0.000049
      85     Au       1         10.999927                              0.000073
      86     Au       1         11.023299                             -0.023299
      87     Au       1         10.987034                              0.012966
      88     Au       1         10.999934                              0.000066
      89     Au       1         10.999865                              0.000135
      90     Au       1         10.966391                              0.033609
      91     Au       1         10.987235                              0.012765
      92     Au       1         10.999680                              0.000320
      93     Au       1         10.999879                              0.000121
      94     Au       1         10.965981                              0.034019
      95     Au       1         10.991830                              0.008170
      96     Au       1         10.999747                              0.000253
      97     Au       1         11.000127                             -0.000127
      98     Au       1         10.999478                              0.000522
      99     Au       1         10.987264                              0.012736
     100     Au       1         10.999536                              0.000464
     101     Au       1         11.000063                             -0.000063
     102     Au       1         10.966246                              0.033754
     103     Au       1         10.987182                              0.012818
     104     Au       1         10.999971                              0.000029
     105     Au       1         10.999984                              0.000016
     106     Au       1         10.965842                              0.034158
     107     Au       1         10.987441                              0.012559
     108     Au       1         11.000038                             -0.000038
     109     Au       1         11.000230                             -0.000230
     110     Au       1         10.999583                              0.000417
     111     Au       1         10.986604                              0.013396
     112     Au       1         10.999848                              0.000152
     113     Au       1         11.000168                             -0.000168
 # Total charge                           1222.958037                  0.041963

 !-----------------------------------------------------------------------------!

 !-----------------------------------------------------------------------------!
                           Hirshfeld Charges

  #Atom  Element  Kind  Ref Charge     Population                    Net charge
      1       Au     1      11.000         11.000                        -0.000
      2       Au     1      11.000         11.000                         0.000
      3       Au     1      11.000         10.999                         0.001
      4       Au     1      11.000         10.991                         0.009
      5       Au     1      11.000         11.000                        -0.000
      6       Au     1      11.000         11.000                         0.000
      7       Au     1      11.000         10.999                         0.001
      8       Au     1      11.000         10.993                         0.007
      9       Au     1      11.000         11.000                         0.000
     10       Au     1      11.000         11.000                         0.000
     11       Au     1      11.000         11.000                         0.000
     12       Au     1      11.000         10.990                         0.010
     13       Au     1      11.000         11.000                         0.000
     14       Au     1      11.000         11.000                         0.000
     15       Au     1      11.000         10.999                         0.001
     16       Au     1      11.000         10.993                         0.007
     17       Au     1      11.000         11.000                         0.000
     18       Au     1      11.000         11.000                        -0.000
     19       Au     1      11.000         10.999                         0.001
     20       Au     1      11.000         10.991                         0.009
     21       Au     1      11.000         11.000                         0.000
     22       Au     1      11.000         11.000                        -0.000
     23       Au     1      11.000         10.999                         0.001
     24       Au     1      11.000         10.993                         0.007
     25       Au     1      11.000         11.000                        -0.000
     26       Au     1      11.000         11.000                         0.000
     27       Au     1      11.000         10.999                         0.001
     28       Au     1      11.000         10.990                         0.010
     29       Au     1      11.000         11.000                        -0.000
     30       Au     1      11.000         11.000                        -0.000
     31       Au     1      11.000         10.999                         0.001
     32       Au     1      11.000         10.993                         0.007
     33       Au     1      11.000         11.000                         0.000
     34       Au     1      11.000         11.000                        -0.000
     35       Au     1      11.000         10.999                         0.001
     36       Au     1      11.000         10.990                         0.010
     37       Au     1      11.000         10.994                         0.006
     38       Au     1      11.000         10.997                         0.003
     39       Au     1      11.000         10.998                         0.002
     40       Au     1      11.000         10.996                         0.004
     41       Au     1      11.000         10.998                         0.002
     42       Au     1      11.000         10.998                         0.002
     43       Au     1      11.000         10.992                         0.008
     44       Au     1      11.000         10.994                         0.006
     45       Au     1      11.000         10.996                         0.004
     46       Au     1      11.000         11.034                        -0.034
     47       Au     1      11.000         11.012                        -0.012
     48       Au     1      11.000         11.034                        -0.034
     49       Au     1      11.000         11.012                        -0.012
     50       Au     1      11.000         10.972                         0.028
     51       Au     1      11.000         11.013                        -0.013
     52       Au     1      11.000         11.034                        -0.034
     53       Au     1      11.000         11.013                        -0.013
     54       Au     1      11.000         11.033                        -0.033
     55       Au     1      11.000         10.991                         0.009
     56       Au     1      11.000         10.989                         0.011
     57       Au     1      11.000         10.988                         0.012
     58       Au     1      11.000         10.985                         0.015
     59       Au     1      11.000         11.019                        -0.019
     60       Au     1      11.000         10.974                         0.026
     61       H      2       1.000          1.040                        -0.040
     62       H      2       1.000          1.047                        -0.047
     63       Au     1      11.000         10.987                         0.013
     64       Au     1      11.000         11.065                        -0.065
     65       Au     1      11.000         10.969                         0.031
     66       Au     1      11.000         10.970                         0.030
     67       Au     1      11.000         10.970                         0.030
     68       Au     1      11.000         10.972                         0.028
     69       Au     1      11.000         11.030                        -0.030
     70       Au     1      11.000         11.012                        -0.012
     71       Au     1      11.000         11.030                        -0.030
     72       Au     1      11.000         11.012                        -0.012
     73       Au     1      11.000         10.974                         0.026
     74       Au     1      11.000         11.012                        -0.012
     75       Au     1      11.000         11.030                        -0.030
     76       Au     1      11.000         11.012                        -0.012
     77       Au     1      11.000         11.031                        -0.031
     78       Au     1      11.000         10.980                         0.020
     79       Au     1      11.000         10.998                         0.002
     80       Au     1      11.000         11.000                        -0.000
     81       Au     1      11.000         11.000                         0.000
     82       Au     1      11.000         10.980                         0.020
     83       Au     1      11.000         10.998                         0.002
     84       Au     1      11.000         11.000                        -0.000
     85       Au     1      11.000         11.000                         0.000
     86       Au     1      11.000         10.983                         0.017
     87       Au     1      11.000         10.998                         0.002
     88       Au     1      11.000         11.000                         0.000
     89       Au     1      11.000         11.000                         0.000
     90       Au     1      11.000         10.982                         0.018
     91       Au     1      11.000         10.998                         0.002
     92       Au     1      11.000         11.000                         0.000
     93       Au     1      11.000         11.000                         0.000
     94       Au     1      11.000         10.982                         0.018
     95       Au     1      11.000         10.999                         0.001
     96       Au     1      11.000         11.000                         0.000
     97       Au     1      11.000         11.000                        -0.000
     98       Au     1      11.000         10.980                         0.020
     99       Au     1      11.000         10.998                         0.002
    100       Au     1      11.000         11.000                         0.000
    101       Au     1      11.000         11.000                        -0.000
    102       Au     1      11.000         10.982                         0.018
    103       Au     1      11.000         10.998                         0.002
    104       Au     1      11.000         11.000                        -0.000
    105       Au     1      11.000         11.000                         0.000
    106       Au     1      11.000         10.982                         0.018
    107       Au     1      11.000         10.998                         0.002
    108       Au     1      11.000         11.000                        -0.000
    109       Au     1      11.000         11.000                        -0.000
    110       Au     1      11.000         10.979                         0.021
    111       Au     1      11.000         10.998                         0.002
    112       Au     1      11.000         11.000                         0.000
    113       Au     1      11.000         11.000                        -0.000

  Total Charge                                                            0.042
 !-----------------------------------------------------------------------------!
 Calculating transmission coefficient

 ENERGY| Total FORCE_EVAL ( QS ) energy [a.u.]:            -3690.595261879795999

 ATOMIC FORCES in [a.u.]

 # Atom   Kind   Element          X              Y              Z
      1      1      Au          0.00000000     0.00000000     0.00000000
      2      1      Au          0.00000000     0.00000000     0.00000000
      3      1      Au          0.00000000     0.00000000     0.00000000
      4      1      Au          0.00000000     0.00000000     0.00000000
      5      1      Au          0.00000000     0.00000000     0.00000000
      6      1      Au          0.00000000     0.00000000     0.00000000
      7      1      Au          0.00000000     0.00000000     0.00000000
      8      1      Au          0.00000000     0.00000000     0.00000000
      9      1      Au          0.00000000     0.00000000     0.00000000
     10      1      Au          0.00000000     0.00000000     0.00000000
     11      1      Au          0.00000000     0.00000000     0.00000000
     12      1      Au          0.00000000     0.00000000     0.00000000
     13      1      Au          0.00000000     0.00000000     0.00000000
     14      1      Au          0.00000000     0.00000000     0.00000000
     15      1      Au          0.00000000     0.00000000     0.00000000
     16      1      Au          0.00000000     0.00000000     0.00000000
     17      1      Au          0.00000000     0.00000000     0.00000000
     18      1      Au          0.00000000     0.00000000     0.00000000
     19      1      Au          0.00000000     0.00000000     0.00000000
     20      1      Au          0.00000000     0.00000000     0.00000000
     21      1      Au          0.00000000     0.00000000     0.00000000
     22      1      Au          0.00000000     0.00000000     0.00000000
     23      1      Au          0.00000000     0.00000000     0.00000000
     24      1      Au          0.00000000     0.00000000     0.00000000
     25      1      Au          0.00000000     0.00000000     0.00000000
     26      1      Au          0.00000000     0.00000000     0.00000000
     27      1      Au          0.00000000     0.00000000     0.00000000
     28      1      Au          0.00000000     0.00000000     0.00000000
     29      1      Au          0.00000000     0.00000000     0.00000000
     30      1      Au          0.00000000     0.00000000     0.00000000
     31      1      Au          0.00000000     0.00000000     0.00000000
     32      1      Au          0.00000000     0.00000000     0.00000000
     33      1      Au          0.00000000     0.00000000     0.00000000
     34      1      Au          0.00000000     0.00000000     0.00000000
     35      1      Au          0.00000000     0.00000000     0.00000000
     36      1      Au          0.00000000     0.00000000     0.00000000
     37      1      Au          0.00000000     0.00000000     0.00000000
     38      1      Au          0.00000000     0.00000000     0.00000000
     39      1      Au          0.00000000     0.00000000     0.00000000
     40      1      Au          0.00000000     0.00000000     0.00000000
     41      1      Au          0.00000000     0.00000000     0.00000000
     42      1      Au          0.00000000     0.00000000     0.00000000
     43      1      Au          0.00000000     0.00000000     0.00000000
     44      1      Au          0.00000000     0.00000000     0.00000000
     45      1      Au          0.00000000     0.00000000     0.00000000
     46      1      Au          0.00000000     0.00000000     0.00000000
     47      1      Au          0.00000000     0.00000000     0.00000000
     48      1      Au          0.00000000     0.00000000     0.00000000
     49      1      Au          0.00000000     0.00000000     0.00000000
     50      1      Au          0.00000000     0.00000000     0.00000000
     51      1      Au          0.00000000     0.00000000     0.00000000
     52      1      Au          0.00000000     0.00000000     0.00000000
     53      1      Au          0.00000000     0.00000000     0.00000000
     54      1      Au          0.00000000     0.00000000     0.00000000
     55      1      Au         -0.00295164    -0.00287241     0.00355566
     56      1      Au         -0.00319672     0.00323757     0.00328000
     57      1      Au          0.00325872    -0.00313401     0.00332820
     58      1      Au          0.00315172     0.00323325     0.00296011
     59      1      Au         -0.00110430    -0.00105694    -0.00830571
     60      1      Au          0.00055961     0.00054244     0.00258775
     61      2      H           0.00041171     0.00039467    -0.00122638
     62      2      H          -0.00105367    -0.00101736     0.00047451
     63      1      Au          0.00121680     0.00117447     0.00000938
     64      1      Au         -0.00141562    -0.00136420    -0.00165908
     65      1      Au         -0.00170041    -0.00161273    -0.00339610
     66      1      Au         -0.00151505     0.00184337    -0.00273385
     67      1      Au          0.00187680    -0.00148741    -0.00277321
     68      1      Au          0.00169192     0.00168786    -0.00243292
     69      1      Au          0.00000000     0.00000000     0.00000000
     70      1      Au          0.00000000     0.00000000     0.00000000
     71      1      Au          0.00000000     0.00000000     0.00000000
     72      1      Au          0.00000000     0.00000000     0.00000000
     73      1      Au          0.00000000     0.00000000     0.00000000
     74      1      Au          0.00000000     0.00000000     0.00000000
     75      1      Au          0.00000000     0.00000000     0.00000000
     76      1      Au          0.00000000     0.00000000     0.00000000
     77      1      Au          0.00000000     0.00000000     0.00000000
     78      1      Au          0.00000000     0.00000000     0.00000000
     79      1      Au          0.00000000     0.00000000     0.00000000
     80      1      Au          0.00000000     0.00000000     0.00000000
     81      1      Au          0.00000000     0.00000000     0.00000000
     82      1      Au          0.00000000     0.00000000     0.00000000
     83      1      Au          0.00000000     0.00000000     0.00000000
     84      1      Au          0.00000000     0.00000000     0.00000000
     85      1      Au          0.00000000     0.00000000     0.00000000
     86      1      Au          0.00000000     0.00000000     0.00000000
     87      1      Au          0.00000000     0.00000000     0.00000000
     88      1      Au          0.00000000     0.00000000     0.00000000
     89      1      Au          0.00000000     0.00000000     0.00000000
     90      1      Au          0.00000000     0.00000000     0.00000000
     91      1      Au          0.00000000     0.00000000     0.00000000
     92      1      Au          0.00000000     0.00000000     0.00000000
     93      1      Au          0.00000000     0.00000000     0.00000000
     94      1      Au          0.00000000     0.00000000     0.00000000
     95      1      Au          0.00000000     0.00000000     0.00000000
     96      1      Au          0.00000000     0.00000000     0.00000000
     97      1      Au          0.00000000     0.00000000     0.00000000
     98      1      Au          0.00000000     0.00000000     0.00000000
     99      1      Au          0.00000000     0.00000000     0.00000000
    100      1      Au          0.00000000     0.00000000     0.00000000
    101      1      Au          0.00000000     0.00000000     0.00000000
    102      1      Au          0.00000000     0.00000000     0.00000000
    103      1      Au          0.00000000     0.00000000     0.00000000
    104      1      Au          0.00000000     0.00000000     0.00000000
    105      1      Au          0.00000000     0.00000000     0.00000000
[...]
     85       Au     1      11.000         11.000                         0.000
     86       Au     1      11.000         10.983                         0.017
     87       Au     1      11.000         10.998                         0.002
     88       Au     1      11.000         11.000                         0.000
     89       Au     1      11.000         11.000                         0.000
     90       Au     1      11.000         10.982                         0.018
     91       Au     1      11.000         10.998                         0.002
     92       Au     1      11.000         11.000                         0.000
     93       Au     1      11.000         11.000                         0.000
     94       Au     1      11.000         10.982                         0.018
     95       Au     1      11.000         10.999                         0.001
     96       Au     1      11.000         11.000                         0.000
     97       Au     1      11.000         11.000                        -0.000
     98       Au     1      11.000         10.980                         0.020
     99       Au     1      11.000         10.998                         0.002
    100       Au     1      11.000         11.000                         0.000
    101       Au     1      11.000         11.000                        -0.000
    102       Au     1      11.000         10.982                         0.018
    103       Au     1      11.000         10.998                         0.002
    104       Au     1      11.000         11.000                        -0.000
    105       Au     1      11.000         11.000                         0.000
    106       Au     1      11.000         10.982                         0.018
    107       Au     1      11.000         10.998                         0.002
    108       Au     1      11.000         11.000                        -0.000
    109       Au     1      11.000         11.000                        -0.000
    110       Au     1      11.000         10.980                         0.020
    111       Au     1      11.000         10.998                         0.002
    112       Au     1      11.000         11.000                         0.000
    113       Au     1      11.000         11.000                        -0.000

  Total Charge                                                            0.043
 !-----------------------------------------------------------------------------!
 Calculating transmission coefficient

 ENERGY| Total FORCE_EVAL ( QS ) energy [a.u.]:            -3690.587183388650374

 ATOMIC FORCES in [a.u.]

 # Atom   Kind   Element          X              Y              Z
      1      1      Au          0.00000000     0.00000000     0.00000000
      2      1      Au          0.00000000     0.00000000     0.00000000
      3      1      Au          0.00000000     0.00000000     0.00000000
      4      1      Au          0.00000000     0.00000000     0.00000000
      5      1      Au          0.00000000     0.00000000     0.00000000
      6      1      Au          0.00000000     0.00000000     0.00000000
      7      1      Au          0.00000000     0.00000000     0.00000000
      8      1      Au          0.00000000     0.00000000     0.00000000
      9      1      Au          0.00000000     0.00000000     0.00000000
     10      1      Au          0.00000000     0.00000000     0.00000000
     11      1      Au          0.00000000     0.00000000     0.00000000
     12      1      Au          0.00000000     0.00000000     0.00000000
     13      1      Au          0.00000000     0.00000000     0.00000000
     14      1      Au          0.00000000     0.00000000     0.00000000
     15      1      Au          0.00000000     0.00000000     0.00000000
     16      1      Au          0.00000000     0.00000000     0.00000000
     17      1      Au          0.00000000     0.00000000     0.00000000
     18      1      Au          0.00000000     0.00000000     0.00000000
     19      1      Au          0.00000000     0.00000000     0.00000000
     20      1      Au          0.00000000     0.00000000     0.00000000
     21      1      Au          0.00000000     0.00000000     0.00000000
     22      1      Au          0.00000000     0.00000000     0.00000000
     23      1      Au          0.00000000     0.00000000     0.00000000
     24      1      Au          0.00000000     0.00000000     0.00000000
     25      1      Au          0.00000000     0.00000000     0.00000000
     26      1      Au          0.00000000     0.00000000     0.00000000
     27      1      Au          0.00000000     0.00000000     0.00000000
     28      1      Au          0.00000000     0.00000000     0.00000000
     29      1      Au          0.00000000     0.00000000     0.00000000
     30      1      Au          0.00000000     0.00000000     0.00000000
     31      1      Au          0.00000000     0.00000000     0.00000000
     32      1      Au          0.00000000     0.00000000     0.00000000
     33      1      Au          0.00000000     0.00000000     0.00000000
     34      1      Au          0.00000000     0.00000000     0.00000000
     35      1      Au          0.00000000     0.00000000     0.00000000
     36      1      Au          0.00000000     0.00000000     0.00000000
     37      1      Au          0.00000000     0.00000000     0.00000000
     38      1      Au          0.00000000     0.00000000     0.00000000
     39      1      Au          0.00000000     0.00000000     0.00000000
     40      1      Au          0.00000000     0.00000000     0.00000000
     41      1      Au          0.00000000     0.00000000     0.00000000
     42      1      Au          0.00000000     0.00000000     0.00000000
     43      1      Au          0.00000000     0.00000000     0.00000000
     44      1      Au          0.00000000     0.00000000     0.00000000
     45      1      Au          0.00000000     0.00000000     0.00000000
     46      1      Au          0.00000000     0.00000000     0.00000000
     47      1      Au          0.00000000     0.00000000     0.00000000
     48      1      Au          0.00000000     0.00000000     0.00000000
     49      1      Au          0.00000000     0.00000000     0.00000000
     50      1      Au          0.00000000     0.00000000     0.00000000
     51      1      Au          0.00000000     0.00000000     0.00000000
     52      1      Au          0.00000000     0.00000000     0.00000000
     53      1      Au          0.00000000     0.00000000     0.00000000
     54      1      Au          0.00000000     0.00000000     0.00000000
     55      1      Au          0.00014265     0.00008768    -0.00016403
     56      1      Au          0.00008441    -0.00011218     0.00002234
     57      1      Au         -0.00017973    -0.00017737     0.00008897
     58      1      Au          0.00013627     0.00012231     0.00008533
     59      1      Au          0.00004686     0.00010599    -0.00009166
     60      1      Au          0.00002145     0.00001437    -0.00019393
     61      2      H           0.00003057     0.00003309    -0.00003786
     62      2      H           0.00019651     0.00018458    -0.00013778
     63      1      Au         -0.00014201    -0.00013904    -0.00000098
     64      1      Au          0.00010793     0.00009729     0.00004725
     65      1      Au          0.00007700     0.00007285     0.00004538
     66      1      Au          0.00007576     0.00007924     0.00001698
     67      1      Au          0.00008164     0.00007629     0.00001369
     68      1      Au          0.00008018     0.00007940     0.00001794
     69      1      Au          0.00000000     0.00000000     0.00000000
     70      1      Au          0.00000000     0.00000000     0.00000000
     71      1      Au          0.00000000     0.00000000     0.00000000
     72      1      Au          0.00000000     0.00000000     0.00000000
     73      1      Au          0.00000000     0.00000000     0.00000000
     74      1      Au          0.00000000     0.00000000     0.00000000
     75      1      Au          0.00000000     0.00000000     0.00000000
     76      1      Au          0.00000000     0.00000000     0.00000000
     77      1      Au          0.00000000     0.00000000     0.00000000
     78      1      Au          0.00000000     0.00000000     0.00000000
     79      1      Au          0.00000000     0.00000000     0.00000000
     80      1      Au          0.00000000     0.00000000     0.00000000
     81      1      Au          0.00000000     0.00000000     0.00000000
     82      1      Au          0.00000000     0.00000000     0.00000000
     83      1      Au          0.00000000     0.00000000     0.00000000
     84      1      Au          0.00000000     0.00000000     0.00000000
     85      1      Au          0.00000000     0.00000000     0.00000000
     86      1      Au          0.00000000     0.00000000     0.00000000
     87      1      Au          0.00000000     0.00000000     0.00000000
     88      1      Au          0.00000000     0.00000000     0.00000000
     89      1      Au          0.00000000     0.00000000     0.00000000
     90      1      Au          0.00000000     0.00000000     0.00000000
     91      1      Au          0.00000000     0.00000000     0.00000000
     92      1      Au          0.00000000     0.00000000     0.00000000
     93      1      Au          0.00000000     0.00000000     0.00000000
     94      1      Au          0.00000000     0.00000000     0.00000000
     95      1      Au          0.00000000     0.00000000     0.00000000
     96      1      Au          0.00000000     0.00000000     0.00000000
     97      1      Au          0.00000000     0.00000000     0.00000000
     98      1      Au          0.00000000     0.00000000     0.00000000
     99      1      Au          0.00000000     0.00000000     0.00000000
    100      1      Au          0.00000000     0.00000000     0.00000000
    101      1      Au          0.00000000     0.00000000     0.00000000
    102      1      Au          0.00000000     0.00000000     0.00000000
    103      1      Au          0.00000000     0.00000000     0.00000000
    104      1      Au          0.00000000     0.00000000     0.00000000
    105      1      Au          0.00000000     0.00000000     0.00000000
    106      1      Au          0.00000000     0.00000000     0.00000000
    107      1      Au          0.00000000     0.00000000     0.00000000
    108      1      Au          0.00000000     0.00000000     0.00000000
    109      1      Au          0.00000000     0.00000000     0.00000000
    110      1      Au          0.00000000     0.00000000     0.00000000
    111      1      Au          0.00000000     0.00000000     0.00000000
    112      1      Au          0.00000000     0.00000000     0.00000000
    113      1      Au          0.00000000     0.00000000     0.00000000
 SUM OF ATOMIC FORCES           0.00075949     0.00052449    -0.00028837     0.00096699

 --------  Informations at step =    28 ------------
  Optimization Method        =                 BFGS
  Total Energy               =     -3690.5871833887
  Real energy change         =        -0.0001312886
  Predicted change in energy =        -0.0000040257
  Scaling factor             =         0.0000000000
  Step size                  =         0.0252010323
  Trust radius               =         0.4724315332
  Decrease in energy         =                   NO
  Used time                  =              511.827

  Convergence check :
  Max. step size             =         0.0252010323
  Conv. limit for step size  =         0.0010000000
  Convergence in step size   =                   NO
  RMS step size              =         0.0031377182
  Conv. limit for RMS step   =         0.0010000000
  Convergence in RMS step    =                   NO
  Max. gradient              =         0.0001965076
  Conv. limit for gradients  =         0.0010000000
  Conv. in gradients         =                  YES
  RMS gradient               =         0.0000367183
  Conv. limit for RMS grad.  =         0.0010000000
  Conv. in RMS gradients     =                  YES
 ---------------------------------------------------
 Estimated peak process memory after this step [MiB]                         624

 --------------------------
 OPTIMIZATION STEP:     29
 --------------------------
 its          29
 iter_nr           0

 Number of electrons:                                                       1223
 Number of occupied orbitals:                                                612
 Number of molecular orbitals:                                               712

 Number of orbital functions:                                               1009
 Number of independent orbital functions:                                   1009

 Extrapolation method: P linear


 SCF WAVEFUNCTION OPTIMIZATION

  Step     Update method      Time    Convergence         Total energy    Change
  ------------------------------------------------------------------------------
     1 Broy./SMGL  0.30E+00   13.9     0.09213588     -3690.5874088772 -3.69E+03
     2 Broy./SMGL  0.30E+00   11.9     0.03197934     -3690.5971337302 -9.72E-03
     3 Broy./SMGL  0.30E+00   11.9     0.03254822     -3690.5713106622  2.58E-02
     4 Broy./SMGL  0.30E+00   12.0     0.04070254     -3690.5673791276  3.93E-03
     5 Broy./SMGL  0.30E+00   12.0     0.01383069     -3690.5859778135 -1.86E-02
     6 Broy./SMGL  0.30E+00   12.0     0.02338822     -3690.5852693270  7.08E-04
     7 Broy./SMGL  0.30E+00   11.9     0.01532880     -3690.5786265239  6.64E-03
     8 Broy./SMGL  0.30E+00   12.0     0.05473071     -3690.5813180912 -2.69E-03
     9 Broy./SMGL  0.30E+00   12.0     0.05401716     -3690.5809086994  4.09E-04
    10 Broy./SMGL  0.30E+00   12.0     0.03344679     -3690.5819745093 -1.07E-03
    11 Broy./SMGL  0.30E+00   12.0     0.02320219     -3690.5874276662 -5.45E-03
    12 Broy./SMGL  0.30E+00   12.0     0.00882765     -3690.5861654111  1.26E-03
    13 Broy./SMGL  0.30E+00   12.0     0.01544884     -3690.5862636743 -9.83E-05
    14 Broy./SMGL  0.30E+00   12.0     0.00918634     -3690.5854781084  7.86E-04
    15 Broy./SMGL  0.30E+00   11.9     0.00829960     -3690.5868685317 -1.39E-03
    16 Broy./SMGL  0.30E+00   12.0     0.01703712     -3690.5856390203  1.23E-03
    17 Broy./SMGL  0.30E+00   12.0     0.03093960     -3690.5863590894 -7.20E-04
    18 Broy./SMGL  0.30E+00   12.0     0.03659911     -3690.5890028836 -2.64E-03
    19 Broy./SMGL  0.30E+00   12.0     0.03806826     -3690.5844407303  4.56E-03
    20 Broy./SMGL  0.30E+00   12.0     0.00695761     -3690.5860915467 -1.65E-03
    21 Broy./SMGL  0.30E+00   12.0     0.01047913     -3690.5858843708  2.07E-04
    22 Broy./SMGL  0.30E+00   12.0     0.02050233     -3690.5851784521  7.06E-04
    23 Broy./SMGL  0.30E+00   12.0     0.00915593     -3690.5846214226  5.57E-04
    24 Broy./SMGL  0.30E+00   12.0     0.01633138     -3690.5846157062  5.72E-06
    25 Broy./SMGL  0.30E+00   12.0     0.00671121     -3690.5891331736 -4.52E-03
    26 Broy./SMGL  0.30E+00   12.0     0.00497959     -3690.5886157664  5.17E-04
    27 Broy./SMGL  0.30E+00   12.0     0.00685674     -3690.5873119656  1.30E-03
    28 Broy./SMGL  0.30E+00   12.0     0.00705279     -3690.5886371924 -1.33E-03
    29 Broy./SMGL  0.30E+00   12.0     0.00191780     -3690.5881486397  4.89E-04
    30 Broy./SMGL  0.30E+00   12.0     0.00121622     -3690.5880381991  1.10E-04
    31 Broy./SMGL  0.30E+00   12.0     0.00602373     -3690.5882030116 -1.65E-04
    32 Broy./SMGL  0.30E+00   12.0     0.00274224     -3690.5880303117  1.73E-04
    33 Broy./SMGL  0.30E+00   12.0     0.00095777     -3690.5879011424  1.29E-04
    34 Broy./SMGL  0.30E+00   12.0     0.00434817     -3690.5878830575  1.81E-05
    35 Broy./SMGL  0.30E+00   12.0     0.00209447     -3690.5880926819 -2.10E-04
    36 Broy./SMGL  0.30E+00   12.0     0.00392570     -3690.5879574704  1.35E-04
    37 Broy./SMGL  0.30E+00   12.0     0.00403953     -3690.5878609728  9.65E-05
    38 Broy./SMGL  0.30E+00   12.0     0.00628012     -3690.5880211271 -1.60E-04
    39 Broy./SMGL  0.30E+00   12.0     0.02803093     -3690.5882528221 -2.32E-04
    40 Broy./SMGL  0.30E+00   12.0     0.07038802     -3690.5883138411 -6.10E-05
    41 Broy./SMGL  0.30E+00   12.0     0.06798520     -3690.5879471151  3.67E-04
    42 Broy./SMGL  0.30E+00   12.0     0.11787495     -3690.5879988030 -5.17E-05
    43 Broy./SMGL  0.30E+00   12.0     0.06401685     -3690.5878844841  1.14E-04
    44 Broy./SMGL  0.30E+00   12.0     0.11563249     -3690.5874505677  4.34E-04
    45 Broy./SMGL  0.30E+00   12.0     0.11476064     -3690.5864889966  9.62E-04
    46 Broy./SMGL  0.30E+00   12.0     0.01311002     -3690.5871256828 -6.37E-04
    47 Broy./SMGL  0.30E+00   12.0     0.02494488     -3690.5886721003 -1.55E-03
    48 Broy./SMGL  0.30E+00   12.0     0.01984136     -3690.5868037973  1.87E-03
    49 Broy./SMGL  0.30E+00   12.0     0.01465917     -3690.5867790856  2.47E-05
    50 Broy./SMGL  0.30E+00   12.0     0.01132021     -3690.5864600189  3.19E-04
    51 Broy./SMGL  0.30E+00   12.0     0.01314636     -3690.5892074913 -2.75E-03
    52 Broy./SMGL  0.30E+00   12.0     0.00115639     -3690.5874047847  1.80E-03
    53 Broy./SMGL  0.30E+00   12.0     0.00553296     -3690.5874667167 -6.19E-05
    54 Broy./SMGL  0.30E+00   13.1     0.00434000     -3690.5879528685 -4.86E-04
    55 Broy./SMGL  0.30E+00   17.1     0.00501534     -3690.5877358439  2.17E-04
    56 Broy./SMGL  0.30E+00   12.0     0.01106608     -3690.5878794855 -1.44E-04
    57 Broy./SMGL  0.30E+00   12.0     0.00767569     -3690.5881088345 -2.29E-04
    58 Broy./SMGL  0.30E+00   12.0     0.00380162     -3690.5880753070  3.35E-05
    59 Broy./SMGL  0.30E+00   12.0     0.00909473     -3690.5878792197  1.96E-04
    60 Broy./SMGL  0.30E+00   12.0     0.00482561     -3690.5878357319  4.35E-05
    61 Broy./SMGL  0.30E+00   12.0     0.00163376     -3690.5879919778 -1.56E-04
    62 Broy./SMGL  0.30E+00   12.0     0.05758846     -3690.5878080389  1.84E-04
    63 Broy./SMGL  0.30E+00   12.0     0.03106432     -3690.5876830950  1.25E-04
    64 Broy./SMGL  0.30E+00   12.7     0.00485229     -3690.5869893221  6.94E-04
    65 Broy./SMGL  0.30E+00   12.0     0.00167652     -3690.5866808820  3.08E-04
    66 Broy./SMGL  0.30E+00   12.0     0.00215214     -3690.5869185831 -2.38E-04
    67 Broy./SMGL  0.30E+00   12.0     0.01540269     -3690.5872166162 -2.98E-04
    68 Broy./SMGL  0.30E+00   12.0     0.03139153     -3690.5869024046  3.14E-04
    69 Broy./SMGL  0.30E+00   12.0     0.00983992     -3690.5873718154 -4.69E-04
    70 Broy./SMGL  0.30E+00   12.0     0.02080217     -3690.5867794235  5.92E-04
    71 Broy./SMGL  0.30E+00   12.0     0.00226655     -3690.5884352469 -1.66E-03
    72 Broy./SMGL  0.30E+00   12.0     0.00085679     -3690.5878997168  5.36E-04
    73 Broy./SMGL  0.30E+00   12.0     0.00107258     -3690.5879966636 -9.69E-05
    74 Broy./SMGL  0.30E+00   12.0     0.00528101     -3690.5880002058 -3.54E-06
    75 Broy./SMGL  0.30E+00   12.0     0.00582377     -3690.5879881667  1.20E-05
    76 Broy./SMGL  0.30E+00   11.9     0.00572190     -3690.5876742710  3.14E-04
    77 Broy./SMGL  0.30E+00   12.0     0.00811150     -3690.5878581765 -1.84E-04
    78 Broy./SMGL  0.30E+00   12.0     0.00360280     -3690.5876213764  2.37E-04
    79 Broy./SMGL  0.30E+00   12.0     0.05403671     -3690.5876833568 -6.20E-05
    80 Broy./SMGL  0.30E+00   12.0     0.03210534     -3690.5875980077  8.53E-05
    81 Broy./SMGL  0.30E+00   12.0     0.00734544     -3690.5882706264 -6.73E-04
    82 Broy./SMGL  0.30E+00   12.0     0.00418320     -3690.5878058544  4.65E-04
    83 Broy./SMGL  0.30E+00   12.0     0.00468024     -3690.5878283297 -2.25E-05
    84 Broy./SMGL  0.30E+00   12.0     0.00566179     -3690.5879812727 -1.53E-04
    85 Broy./SMGL  0.30E+00   12.0     0.01336281     -3690.5874409300  5.40E-04
