SIESTA 1.3.7  -- [1.3f1 release] (04 Feb 2004)
Architecture  : 
Compiler flags:  -O3  -g -traceback -check bounds
PARALLEL version

* Running on   32 nodes in parallel
>> Start of run:  16-DEC-2013  20:10:18

                           ***********************       
                           *  WELCOME TO SIESTA  *       
                           ***********************       

reinit: Reading from standard input
************************** Dump of input data file ****************************
#
SystemName                   mx            # Descriptive name of the system
SystemLabel                  mx            # Short name for naming files
NumberOfSpecies              2             # Number of species
NumberOfAtoms                113           # Number of atoms
%block ChemicalSpeciesLabel
 1   79   Au
 2    1   H
%endblock ChemicalSpeciesLabel
# ps
%block Ps.lmax
  Au    3
  H     3
%endblock Ps.lmax
# Basis
PAO.BasisType                split         # Type of basis ('nones', 'nonodes', 'split')
PAO.SplitNorm  0.15
PAO.EnergyShift              10 meV
PAO.BasisSize                DZP
%block PAO.Basis                           # basis
Au 2
n=6   0   2 P   1                   # n, l, Nzeta, Polarization, NzetaPol
6.0 0.0
n=5   2   1                         # n, l, Nzeta
5.5
H     2      0.00
 n=1    0    2   E      2.07      0.50
   5.75  1.5
   1.000   1.000
 n=2    1    1   E      0.89      0.01
   5.500
   1.000
%endblock PAO.Basis
# lattice vectors
LatticeConstant              1.0 Ang
%block LatticeVectors
         8.867120        0.00000000        0.000000
         0.000000        8.86712000        0.000000
         0.000000        0.00000000       38.720000
%endblock LatticeVectors
# coordinates
AtomicCoordinatesFormat      Ang
%block AtomicCoordinatesAndAtomicSpecies
    1.78720903    1.28067091    0.00000000   1  Au         1
    0.30935586    2.75852409    2.09000000   1  Au         2
    1.78720903    1.28067091    4.18000000   1  Au         3
    0.30935586    2.75852409    6.27000000   1  Au         4
    4.74291537    1.28067091    0.00000000   1  Au         5
    3.26506220    2.75852409    2.09000000   1  Au         6
    4.74291537    1.28067091    4.18000000   1  Au         7
    3.26506220    2.75852409    6.27000000   1  Au         8
    7.69862172    1.28067091    0.00000000   1  Au         9
    6.22076855    2.75852409    2.09000000   1  Au        10
    7.69862172    1.28067091    4.18000000   1  Au        11
    6.22076855    2.75852409    6.27000000   1  Au        12
    1.78720903    4.23637726    0.00000000   1  Au        13
    0.30935586    5.71423043    2.09000000   1  Au        14
    1.78720903    4.23637726    4.18000000   1  Au        15
    0.30935586    5.71423043    6.27000000   1  Au        16
    4.74291537    4.23637726    0.00000000   1  Au        17
    3.26506220    5.71423043    2.09000000   1  Au        18
    4.74291537    4.23637726    4.18000000   1  Au        19
    3.26506220    5.71423043    6.27000000   1  Au        20
    7.69862172    4.23637726    0.00000000   1  Au        21
    6.22076855    5.71423043    2.09000000   1  Au        22
    7.69862172    4.23637726    4.18000000   1  Au        23
    6.22076855    5.71423043    6.27000000   1  Au        24
    1.78720903    7.19208360    0.00000000   1  Au        25
    0.30935586    8.66993678    2.09000000   1  Au        26
    1.78720903    7.19208360    4.18000000   1  Au        27
    0.30935586    8.66993678    6.27000000   1  Au        28
    4.74291537    7.19208360    0.00000000   1  Au        29
    3.26506220    8.66993678    2.09000000   1  Au        30
    4.74291537    7.19208360    4.18000000   1  Au        31
    3.26506220    8.66993678    6.27000000   1  Au        32
    7.69862172    7.19208360    0.00000000   1  Au        33
    6.22076855    8.66993678    2.09000000   1  Au        34
    7.69862172    7.19208360    4.18000000   1  Au        35
    6.22076855    8.66993678    6.27000000   1  Au        36
    1.78720903    1.28067091    8.36000000   1  Au        37
    1.78720903    4.23637726    8.36000000   1  Au        38
    1.78720903    7.19208360    8.36000000   1  Au        39
    4.74291537    1.28067091    8.36000000   1  Au        40
    4.74291537    4.23637726    8.36000000   1  Au        41
    4.74291537    7.19208360    8.36000000   1  Au        42
    7.69862172    1.28067091    8.36000000   1  Au        43
    7.69862172    4.23637726    8.36000000   1  Au        44
    7.69862172    7.19208360    8.36000000   1  Au        45
    0.30935586    2.75852409   10.45000000   1  Au        46
    0.30935586    5.71423043   10.45000000   1  Au        47
    0.30935586    8.66993678   10.45000000   1  Au        48
    3.26506220    2.75852409   10.45000000   1  Au        49
    3.26506220    5.71423043   10.45000000   1  Au        50
    3.26506220    8.66993678   10.45000000   1  Au        51
    6.22076855    2.75852409   10.45000000   1  Au        52
    6.22076855    5.71423043   10.45000000   1  Au        53
    6.22076855    8.66993678   10.45000000   1  Au        54
    1.72967614    4.18075622   12.43901156   1  Au        55
    1.72889551    7.25215339   12.44300602   1  Au        56
    4.80046297    4.18069040   12.43894494   1  Au        57
    4.80089959    7.25195017   12.44316945   1  Au        58
    3.26506436    5.71080703   14.26613304   1  Au        59
    3.26417768    5.75291558   16.97217491   1  Au        60
    3.25254463    5.72671907   18.85018885   2  H         61
    3.25053357    5.72457235   19.72844362   2  H         62
    3.24893284    5.71911329   21.60987580   1  Au        63
    3.26031304    5.71908305   24.25866767   1  Au        64
    1.78165572    4.23177904   26.26870086   1  Au        65
    1.78242260    7.19772673   26.26763383   1  Au        66
    4.74751219    4.23258451   26.26833896   1  Au        67
    4.74669875    7.19681047   26.26709287   1  Au        68
    0.30935586    2.75852409   28.27000000   1  Au        69
    0.30935586    5.71423043   28.27000000   1  Au        70
    0.30935586    8.66993678   28.27000000   1  Au        71
    3.26506220    2.75852409   28.27000000   1  Au        72
    3.26506220    5.71423043   28.27000000   1  Au        73
    3.26506220    8.66993678   28.27000000   1  Au        74
    6.22076855    2.75852409   28.27000000   1  Au        75
    6.22076855    5.71423043   28.27000000   1  Au        76
    6.22076855    8.66993678   28.27000000   1  Au        77
    1.78720903    1.28067091   30.36000000   1  Au        78
    0.30935586    2.75852409   32.45000000   1  Au        79
    1.78720903    1.28067091   34.54000000   1  Au        80
    0.30935586    2.75852409   36.63000000   1  Au        81
    4.74291537    1.28067091   30.36000000   1  Au        82
    3.26506220    2.75852409   32.45000000   1  Au        83
    4.74291537    1.28067091   34.54000000   1  Au        84
    3.26506220    2.75852409   36.63000000   1  Au        85
    7.69862172    1.28067091   30.36000000   1  Au        86
    6.22076855    2.75852409   32.45000000   1  Au        87
    7.69862172    1.28067091   34.54000000   1  Au        88
    6.22076855    2.75852409   36.63000000   1  Au        89
    1.78720903    4.23637726   30.36000000   1  Au        90
    0.30935586    5.71423043   32.45000000   1  Au        91
    1.78720903    4.23637726   34.54000000   1  Au        92
    0.30935586    5.71423043   36.63000000   1  Au        93
    4.74291537    4.23637726   30.36000000   1  Au        94
    3.26506220    5.71423043   32.45000000   1  Au        95
    4.74291537    4.23637726   34.54000000   1  Au        96
    3.26506220    5.71423043   36.63000000   1  Au        97
    7.69862172    4.23637726   30.36000000   1  Au        98
    6.22076855    5.71423043   32.45000000   1  Au        99
    7.69862172    4.23637726   34.54000000   1  Au       100
    6.22076855    5.71423043   36.63000000   1  Au       101
    1.78720903    7.19208360   30.36000000   1  Au       102
    0.30935586    8.66993678   32.45000000   1  Au       103
    1.78720903    7.19208360   34.54000000   1  Au       104
    0.30935586    8.66993678   36.63000000   1  Au       105
    4.74291537    7.19208360   30.36000000   1  Au       106
    3.26506220    8.66993678   32.45000000   1  Au       107
    4.74291537    7.19208360   34.54000000   1  Au       108
    3.26506220    8.66993678   36.63000000   1  Au       109
    7.69862172    7.19208360   30.36000000   1  Au       110
    6.22076855    8.66993678   32.45000000   1  Au       111
    7.69862172    7.19208360   34.54000000   1  Au       112
    6.22076855    8.66993678   36.63000000   1  Au       113
%endblock AtomicCoordinatesAndAtomicSpecies
# constrains in relaxation
%block GeometryConstraints
   position   from  1 to  54
   position   from  -1 to  -45
%endblock GeometryConstraints
# real space mesh grid
MeshCutoff                   800.0 Ry
%block GridCellSampling
  0.5  0.5   0.0
  0.5  0.0   0.5
  0.0  0.5   0.5
%endblock GridCellSampling
# reciprocal space
%block kgrid_Monkhorst_Pack
  3   0   0    0.0
  0   3   0    0.0
  0   0   1    0.0
%endblock kgrid_Monkhorst_Pack
#ProcessorY                   4
#BlockSize                    100
# functional
xc.functional                GGA           # 'LDA', 'GGA'
xc.authors                   PBE           # 'CA'='PZ', 'PW92', 'PBE'
# scf
MaxSCFIterations             300
DM.MixingWeight              0.02
DM.Tolerance                 1.0E-4
DM.UseSaveDM                 T
DM.NumberPulay               6             # Pulay convergency accelerator
SolutionMethod               diagon
ElectronicTemperature        300 K         # Default value
# MD options
MD.TypeOfRun                 cg           # Type of dynamics:
MD.VariableCell              false         # if vary cell
MD.NumCGsteps                0             # Number of CG steps for relaxation
MD.MaxCGDispl                0.08 Ang     # Maximum atomic displacement at one step
MD.MaxForceTol               0.01 eV/Ang   # Tolerance in the maximum force min(fx, fy, fz)
MD.MaxStressTol              0.1 Gpa
MD.FCDispl                 0.02 ang
MD.FCIR                    F
MD.FCEigenVectors          T
MD.FCfirst                 59
MD.FClast                  64
MD.FCAcousticSumRule          F
MD.FCRead                  F
MD.FCAtomRestart           64
MD.FCAxisRestart           3
#Siesta Output Flags
SaveHS                       F           # Hamiltonian and overlap in sparse
SaveRHO                      T
WriteMullikenPop             2
WriteHamiltonPop             2
WriteForces                  T
WriteCoorStep                T
SaveElectrostaticPotential   T             # Hartree Potential file
# ===========================================================
##For Smeagol-transort
#SetBulkTransvCell           T             # Let transport system periodical in x and y
InitTransport                F             # reset "nsc process" as siesta or not,'true' as siesta
EMTransport                  T             # NEGF method or not
NSlices                      1             # the number of layers for x in mx
PeriodicTransp               T             # mx periodic calculation or not
SaveMemTranspK               F             # F for lead's self-energy first calculated and saved in memeory;
                                           # while 'T' for calculating every scf, to save memeory
#GF Integral Setup
NEnergReal                   80             # E-points for NE, at the precence of bias
NEnergImCircle               16            # E-points  for  EQ-Circle
NEnergImLine                 16            # E-points for EQ-Line
NPoles                       16            # E-points for EQ-Pole
Delta                        1.d-6
EnergLowestBound            -150.00 eV   # lower limit for integral
FullRamp                     T
MixHamiltonian               F
ReadHamiltonian              F             # Hamiltonian, not recommended while bias
DM.MixSCF1                   T
#Bias Setup
VInitial                     1.9 eV
VFinal                       1.9 eV
NIVPoints                    0             # number of bias, excluding the first one
# information of each bias, prefix with the bias number
%block SaveBiasSteps
 0
%endblock SaveBiasSteps
# Fock shift Control
HartreeLeadsBottom          -12.19948578 eV    # pot.sh, level the VH potentials of lead and transport system
HartreeLeadsLeft             0.000  Ang    #
HartreeLeadsRight            0.000  Ang    # z starts from 0, set both 0
# Necessity for Structural Relaxation, current-induced force
EM.CalculateForces           T
#SaveDMForIV                  T
#Transport Output Flags
TrCoefficients               T             # generate '*.TRC' file or not
TransmissionOverk            T             # generate '*.TRC.k.up/down' file,containning infor about T(E,k)
TRCScaleEf                   T             # if set the Fermi level zero
NTransmPoints                1600           # number of energy points
InitTransmRange             -8.0 eV
FinalTransmRange             8.0 eV
EM.COOPCalculate            T
EM.COOPNumberOfBonds        2
%block EM.COOPBonds
59 60
63 64
%endblock EM.COOPBonds
TRC.EMDOS             T
WriteMullikenPop             2
WriteHamiltonPop             2
************************** End of input data file *****************************

reinit: -----------------------------------------------------------------------
reinit: System Name: mx                                                         
reinit: -----------------------------------------------------------------------
reinit: System Label: mx                  
reinit: -----------------------------------------------------------------------

initatom: Reading input for the pseudopotentials and atomic orbitals ----------
 Species number:            1  Label: Au Atomic number:          79
 Species number:            2  Label: H Atomic number:           1
Ground state valence configuration:   6s01  5d10
Reading pseudopotential information in formatted form from Au.psf
Ground state valence configuration:   1s01
Reading pseudopotential information in formatted form from H.psf
relmxkb: Read Max KB Ang. Momentum=    3 for species Au
relmxkb: Read Max KB Ang. Momentum=    3 for species H
 Warning: Empty PAO shell. l =           1
 Will have a KB projector anyway...

<basis_specs>
===============================================================================
Au                   Z=  79    Mass=  196.97        Charge=  0.0000    
Lmxo=2 Lmxkb=3     BasisType=split      Semic=F
L=0  Nsemic=0  Cnfigmx=6
          n=1  nzeta=2  polorb=1
               vcte:    0.0000    
               rinn:    0.0000    
                rcs:    6.0000      0.0000    
            lambdas:    1.0000      1.0000    
L=1  Nsemic=0  Cnfigmx=6
L=2  Nsemic=0  Cnfigmx=5
          n=1  nzeta=1  polorb=0
               vcte:    0.0000    
               rinn:    0.0000    
                rcs:    5.5000    
            lambdas:    1.0000    
-------------------------------------------------------------------------------
L=0  Nkbl=1  erefs: 0.17977+309
L=1  Nkbl=1  erefs: 0.17977+309
L=2  Nkbl=1  erefs: 0.17977+309
L=3  Nkbl=1  erefs: 0.17977+309
===============================================================================
</basis_specs>

atom: Called for Au  (Z =  79)

read_vps: Pseudopotential generation method:
read_vps: ATM 3.2.2 Troullier-Martins                       

read_vps: Pseudopotential generated from a relativistic atomic calculation
read_vps: There are spin-orbit pseudopotentials available

read_vps: Valence configuration (pseudopotential and basis set generation):
6s( 1.00) rc: 2.57
6p( 0.00) rc: 2.70
5d(10.00) rc: 2.57
5f( 0.00) rc: 2.57
Total valence charge:   11.00000

xc_check: Exchange-correlation functional:
xc_check: GGA Perdew, Burke & Ernzerhof 1996
V l=0 = -2*Zval/r beyond r=  2.8378
V l=1 = -2*Zval/r beyond r=  2.8026
V l=2 = -2*Zval/r beyond r=  2.8378
V l=3 = -2*Zval/r beyond r=  2.8378
All V_l potentials equal beyond r=  2.6659
This should be close to max(r_c) in ps generation
All pots = -2*Zval/r beyond r=  2.8378

VLOCAL1: 99.0% of the norm of Vloc inside      6.108 Ry
VLOCAL1: 99.9% of the norm of Vloc inside     13.920 Ry
atom: Maximum radius for 4*pi*r*r*local-pseudopot. charge    3.21569
atom: Maximum radius for r*vlocal+2*Zval:    2.83783
GHOST: No ghost state for L =  0
GHOST: No ghost state for L =  1
GHOST: No ghost state for L =  2
GHOST: No ghost state for L =  3

KBgen: Kleinman-Bylander projectors: 
   l= 0   rc=  3.338571   el= -0.421346   Ekb=  4.108132   kbcos=  0.281999
   l= 1   rc=  3.509744   el= -0.057987   Ekb=  2.158847   kbcos=  0.223567
   l= 2   rc=  2.909675   el= -0.508781   Ekb= -5.041211   kbcos= -0.695264
   l= 3   rc=  3.878871   el=  0.003083   Ekb= -1.533214   kbcos= -0.016134

KBgen: Total number of  Kleinman-Bylander projectors:   16
atom: -------------------------------------------------------------------------

atom: SANKEY-TYPE ORBITALS:
atom: Selected multiple-zeta basis: split     

SPLIT: Orbitals with angular momentum L= 0

SPLIT: Basis orbitals for state 6s

   izeta = 1
                 lambda =    1.000000
                     rc =    6.083298
                 energy =   -0.401153
                kinetic =    0.393167
    potential(screened) =   -0.794320
       potential(ionic) =   -8.569036

   izeta = 2
                 rmatch =    5.714728
              splitnorm =    0.150000
                 energy =   -0.341190
                kinetic =    0.593789
    potential(screened) =   -0.934979
       potential(ionic) =   -9.135222

SPLIT: Orbitals with angular momentum L= 2

SPLIT: Basis orbitals for state 5d

   izeta = 1
                 lambda =    1.000000
                     rc =    5.504393
                 energy =   -0.506115
                kinetic =    4.701767
    potential(screened) =   -5.207882
       potential(ionic) =  -15.830994

POLgen: Perturbative polarization orbital with L=  1

POLgen: Polarization orbital for state 6s

   izeta = 1
                     rc =    6.083298
                 energy =   -0.044961
                kinetic =    0.720380
    potential(screened) =   -0.765342
       potential(ionic) =   -8.110664
atom: Total number of Sankey-type orbitals: 10

atm_pop: Valence configuration(local Pseudopot. screening):
 6s( 1.00)                                                            
 6p( 0.00)                                                            
 5d(10.00)                                                            
Vna: chval, zval:   11.00000  11.00000

Vna:  Cut-off radius for the neutral-atom potential:   6.083298

atom: _________________________________________________________________________

<basis_specs>
===============================================================================
H                    Z=   1    Mass=  1.0100        Charge=  0.0000    
Lmxo=1 Lmxkb=3     BasisType=split      Semic=F
L=0  Nsemic=0  Cnfigmx=1
          n=1  nzeta=2  polorb=0
               vcte:    2.0700    
               rinn:   0.50000    
                rcs:    5.7500      1.5000    
            lambdas:    1.0000      1.0000    
L=1  Nsemic=0  Cnfigmx=2
          n=1  nzeta=1  polorb=0
               vcte:   0.89000    
               rinn:   0.10000E-01
                rcs:    5.5000    
            lambdas:    1.0000    
-------------------------------------------------------------------------------
L=0  Nkbl=1  erefs: 0.17977+309
L=1  Nkbl=1  erefs: 0.17977+309
L=2  Nkbl=1  erefs: 0.17977+309
L=3  Nkbl=1  erefs: 0.17977+309
===============================================================================
</basis_specs>

atom: Called for H   (Z =   1)

read_vps: Pseudopotential generation method:
read_vps: ATM3      Troullier-Martins                       

read_vps: Valence configuration (pseudopotential and basis set generation):
1s( 1.00) rc: 1.89
2p( 0.00) rc: 1.80
3d( 0.00) rc: 1.49
4f( 0.00) rc: 1.49
read_vps: Spin-orbit interaction is not included in this calculation
Total valence charge:    1.00000

xc_check: Exchange-correlation functional:
xc_check: GGA Perdew, Burke & Ernzerhof 1996
V l=0 = -2*Zval/r beyond r=  1.8658
V l=1 = -2*Zval/r beyond r=  1.7970
V l=2 = -2*Zval/r beyond r=  1.8196
V l=3 = -2*Zval/r beyond r=  1.8196
All V_l potentials equal beyond r=  1.8658
This should be close to max(r_c) in ps generation
All pots = -2*Zval/r beyond r=  1.8658

VLOCAL1: 99.0% of the norm of Vloc inside     12.470 Ry
VLOCAL1: 99.9% of the norm of Vloc inside     28.418 Ry
atom: Maximum radius for 4*pi*r*r*local-pseudopot. charge    2.16811
atom: Maximum radius for r*vlocal+2*Zval:    1.84256
GHOST: No ghost state for L =  0
GHOST: No ghost state for L =  1
GHOST: No ghost state for L =  2
GHOST: No ghost state for L =  3

KBgen: Kleinman-Bylander projectors: 
   l= 0   rc=  2.011274   el= -0.477200   Ekb= -1.572097   kbcos= -0.493163
   l= 1   rc=  2.141150   el=  0.001076   Ekb= -0.356432   kbcos= -0.050277
   l= 2   rc=  2.195416   el=  0.002010   Ekb= -0.177656   kbcos= -0.007774
   l= 3   rc=  2.251056   el=  0.003122   Ekb= -0.068270   kbcos= -0.002268

KBgen: Total number of  Kleinman-Bylander projectors:   16
atom: -------------------------------------------------------------------------

atom: SANKEY-TYPE ORBITALS:
atom: Selected multiple-zeta basis: split     

SPLIT: Orbitals with angular momentum L= 0

SPLIT: Basis orbitals for state 1s

   izeta = 1
                 lambda =    1.000000
                     rc =    5.752124
                 energy =   -0.469599
                kinetic =    0.919264
    potential(screened) =   -1.388863
       potential(ionic) =   -1.911599

   izeta = 2
                 rmatch =    1.527112
              splitnorm =    0.807394
                 energy =    2.126033
                kinetic =    5.261681
    potential(screened) =   -3.135649
       potential(ionic) =   -3.696632

SPLIT: Orbitals with angular momentum L= 1

SPLIT: Basis orbitals for state 2p

   izeta = 1
                 lambda =    1.000000
                     rc =    5.471469
                 energy =    0.371359
                kinetic =    0.737398
    potential(screened) =   -0.366040
       potential(ionic) =   -0.791603
atom: Total number of Sankey-type orbitals:  5

atm_pop: Valence configuration(local Pseudopot. screening):
 1s( 1.00)                                                            
 2p( 0.00)                                                            
Vna: chval, zval:    1.00000   1.00000

Vna:  Cut-off radius for the neutral-atom potential:   5.752124

atom: _________________________________________________________________________

prinput: Basis input ----------------------------------------------------------

PAO.BasisType split     

%block ChemicalSpeciesLabel
    1   79 Au                      # Species index, atomic number, species label
    2    1 H                       # Species index, atomic number, species label
%endblock ChemicalSpeciesLabel

%block PAO.Basis                 # Define Basis set
Au          2                    # Species label, number of l-shells
 n=6   0   2 P   1                   # n, l, Nzeta, Polarization, NzetaPol
   6.083      5.715   
   1.000      1.000   
 n=5   2   1                         # n, l, Nzeta 
   5.504   
   1.000   
H           2                    # Species label, number of l-shells
 n=1   0   2                         # n, l, Nzeta 
   5.752      1.527   
   1.000      1.000   
 n=2   1   1                         # n, l, Nzeta 
   5.471   
   1.000   
%endblock PAO.Basis

prinput: ----------------------------------------------------------------------


siesta: ******************** Simulation parameters ****************************
siesta:
siesta: The following are some of the parameters of the simulation.
siesta: A complete list of the parameters used, including defect values,
siesta: can be found in file out.fdf
siesta:
coor:   Atomic-coordinates input format  =     Cartesian coordinates
coor:                                          (in Angstroms)
redata: Number of spin components        =     1
redata: SpinOrbit                        =     0
redata: Long output                      =     F
redata: Number of Atomic Species         =     2
redata: Charge density info will appear in .RHO file
redata: Write Mulliken Pop.              =     Atomic and Orbital charges
                                             plus Atomic Overlap Populations
redata: Write Hamilton Pop.              =     Atomic and Orbital energies
                                             plus Atomic Overlap Populations
redata: Mesh Cutoff                      =   800.0000  Ry
redata: Net charge of the system         =     0.0000 |e|
redata: Max. number of SCF Iter          =   300
redata: One Pulay mixing every           =     6 iterations
redata: Mix DM in first SCF step ?       =     T
redata: Write Pulay info on disk?        =     F
redata: New DM Mixing Weight             =     0.0200
redata: No kicks to SCF
redata: DM Mixing Weight for Kicks       =     0.5000
redata: DM Tolerance for SCF             =     0.000100
redata: Use continuation files for DM    =     T
redata: Neglect nonoverlap interactions  =     F
redata: Method of Calculation            =     Diagonalization
redata: Divide and Conquer               =     F
redata: Electronic Temperature           =     0.0019  Ry
redata: Fix the spin of the system       =     F
redata: Dynamics option                  =     CG coord. optimization
redata: Variable cell                    =     F
redata: Use continuation files for CG    =     F
redata: Maximum number of CG moves       =     0
redata: Max atomic displ per move        =     0.1512  Bohr
redata: Force tolerance                  =     0.0004  Ry/Bohr
redata: ***********************************************************************

siesta: Atomic coordinates (Bohr) and species
siesta:      3.37734   2.42012   0.00000  1        1
siesta:      0.58460   5.21286   3.94953  1        2
siesta:      3.37734   2.42012   7.89906  1        3
siesta:      0.58460   5.21286  11.84859  1        4
siesta:      8.96281   2.42012   0.00000  1        5
siesta:      6.17008   5.21286   3.94953  1        6
siesta:      8.96281   2.42012   7.89906  1        7
siesta:      6.17008   5.21286  11.84859  1        8
siesta:     14.54829   2.42012   0.00000  1        9
siesta:     11.75555   5.21286   3.94953  1       10
siesta:     14.54829   2.42012   7.89906  1       11
siesta:     11.75555   5.21286  11.84859  1       12
siesta:      3.37734   8.00560   0.00000  1       13
siesta:      0.58460  10.79833   3.94953  1       14
siesta:      3.37734   8.00560   7.89906  1       15
siesta:      0.58460  10.79833  11.84859  1       16
siesta:      8.96281   8.00560   0.00000  1       17
siesta:      6.17008  10.79833   3.94953  1       18
siesta:      8.96281   8.00560   7.89906  1       19
siesta:      6.17008  10.79833  11.84859  1       20
siesta:     14.54829   8.00560   0.00000  1       21
siesta:     11.75555  10.79833   3.94953  1       22
siesta:     14.54829   8.00560   7.89906  1       23
siesta:     11.75555  10.79833  11.84859  1       24
siesta:      3.37734  13.59107   0.00000  1       25
siesta:      0.58460  16.38381   3.94953  1       26
siesta:      3.37734  13.59107   7.89906  1       27
siesta:      0.58460  16.38381  11.84859  1       28
siesta:      8.96281  13.59107   0.00000  1       29
siesta:      6.17008  16.38381   3.94953  1       30
siesta:      8.96281  13.59107   7.89906  1       31
siesta:      6.17008  16.38381  11.84859  1       32
siesta:     14.54829  13.59107   0.00000  1       33
siesta:     11.75555  16.38381   3.94953  1       34
siesta:     14.54829  13.59107   7.89906  1       35
siesta:     11.75555  16.38381  11.84859  1       36
siesta:      3.37734   2.42012  15.79812  1       37
siesta:      3.37734   8.00560  15.79812  1       38
siesta:      3.37734  13.59107  15.79812  1       39
siesta:      8.96281   2.42012  15.79812  1       40
siesta:      8.96281   8.00560  15.79812  1       41
siesta:      8.96281  13.59107  15.79812  1       42
siesta:     14.54829   2.42012  15.79812  1       43
siesta:     14.54829   8.00560  15.79812  1       44
siesta:     14.54829  13.59107  15.79812  1       45
siesta:      0.58460   5.21286  19.74765  1       46
siesta:      0.58460  10.79833  19.74765  1       47
siesta:      0.58460  16.38381  19.74765  1       48
siesta:      6.17008   5.21286  19.74765  1       49
siesta:      6.17008  10.79833  19.74765  1       50
siesta:      6.17008  16.38381  19.74765  1       51
siesta:     11.75555   5.21286  19.74765  1       52
siesta:     11.75555  10.79833  19.74765  1       53
siesta:     11.75555  16.38381  19.74765  1       54
siesta:      3.26862   7.90049  23.50633  1       55
siesta:      3.26714  13.70459  23.51388  1       56
siesta:      9.07156   7.90036  23.50621  1       57
siesta:      9.07239  13.70421  23.51419  1       58
siesta:      6.17008  10.79187  26.95910  1       59
siesta:      6.16840  10.87144  32.07278  1       60
siesta:      6.14642  10.82193  35.62171  2       61
siesta:      6.14262  10.81788  37.28137  2       62
siesta:      6.13960  10.80756  40.83676  1       63
siesta:      6.16110  10.80750  45.84226  1       64
siesta:      3.36684   7.99691  49.64067  1       65
siesta:      3.36829  13.60174  49.63865  1       66
siesta:      8.97150   7.99843  49.63999  1       67
siesta:      8.96996  13.60001  49.63763  1       68
siesta:      0.58460   5.21286  53.42258  1       69
siesta:      0.58460  10.79833  53.42258  1       70
siesta:      0.58460  16.38381  53.42258  1       71
siesta:      6.17008   5.21286  53.42258  1       72
siesta:      6.17008  10.79833  53.42258  1       73
siesta:      6.17008  16.38381  53.42258  1       74
siesta:     11.75555   5.21286  53.42258  1       75
siesta:     11.75555  10.79833  53.42258  1       76
siesta:     11.75555  16.38381  53.42258  1       77
siesta:      3.37734   2.42012  57.37211  1       78
siesta:      0.58460   5.21286  61.32164  1       79
siesta:      3.37734   2.42012  65.27117  1       80
siesta:      0.58460   5.21286  69.22070  1       81
siesta:      8.96281   2.42012  57.37211  1       82
siesta:      6.17008   5.21286  61.32164  1       83
siesta:      8.96281   2.42012  65.27117  1       84
siesta:      6.17008   5.21286  69.22070  1       85
siesta:     14.54829   2.42012  57.37211  1       86
siesta:     11.75555   5.21286  61.32164  1       87
siesta:     14.54829   2.42012  65.27117  1       88
siesta:     11.75555   5.21286  69.22070  1       89
siesta:      3.37734   8.00560  57.37211  1       90
siesta:      0.58460  10.79833  61.32164  1       91
siesta:      3.37734   8.00560  65.27117  1       92
siesta:      0.58460  10.79833  69.22070  1       93
siesta:      8.96281   8.00560  57.37211  1       94
siesta:      6.17008  10.79833  61.32164  1       95
siesta:      8.96281   8.00560  65.27117  1       96
siesta:      6.17008  10.79833  69.22070  1       97
siesta:     14.54829   8.00560  57.37211  1       98
siesta:     11.75555  10.79833  61.32164  1       99
siesta:     14.54829   8.00560  65.27117  1      100
siesta:     11.75555  10.79833  69.22070  1      101
siesta:      3.37734  13.59107  57.37211  1      102
siesta:      0.58460  16.38381  61.32164  1      103
siesta:      3.37734  13.59107  65.27117  1      104
siesta:      0.58460  16.38381  69.22070  1      105
siesta:      8.96281  13.59107  57.37211  1      106
siesta:      6.17008  16.38381  61.32164  1      107
siesta:      8.96281  13.59107  65.27117  1      108
siesta:      6.17008  16.38381  69.22070  1      109
siesta:     14.54829  13.59107  57.37211  1      110
siesta:     11.75555  16.38381  61.32164  1      111
siesta:     14.54829  13.59107  65.27117  1      112
siesta:     11.75555  16.38381  69.22070  1      113

initatomlists: Number of atoms, orbitals, and projectors:    113  1120  1808

siesta: System type = bulk      
 Nodes, Orbitals          32        1120
 blocksizedefault           8

* ProcessorY, Blocksize:    4   8


siesta: k-grid: Number of k-points =     6
siesta: k-grid: Cutoff             =    13.301 Ang
siesta: k-grid: Supercell and displacements
siesta: k-grid:    3   0   0      0.000
siesta: k-grid:    0   3   0      0.000
siesta: k-grid:    0   0   1      0.000
 Using EM.ParallelOverKNum =           1
siesta: overlap:  rmaxh   veclen  direction
siesta: overlap:  19.9243 16.7564   1
siesta: overlap:  rmaxh   veclen  direction
siesta: overlap:  19.9243 16.7564   2
siesta: overlap:  rmaxh   veclen  direction
siesta: overlap:  19.9243 73.1702   3
 label:           1 Au                             1 s      
 label:           2 Au                             1 s      
 label:           3 Au                             1 dxy    
 label:           4 Au                             1 dyz    
 label:           5 Au                             1 dz2    
 label:           6 Au                             1 dxz    
 label:           7 Au                             1 dx2-y2 
 label:           8 Au                             1 Ppy    
 label:           9 Au                             1 Ppz    
 label:          10 Au                             1 Ppx    
 label:          11 Au                             2 s      
 label:          12 Au                             2 s      
 label:          13 Au                             2 dxy    
 label:          14 Au                             2 dyz    
 label:          15 Au                             2 dz2    
 label:          16 Au                             2 dxz    
 label:          17 Au                             2 dx2-y2 
 label:          18 Au                             2 Ppy    
 label:          19 Au                             2 Ppz    
 label:          20 Au                             2 Ppx    
 label:          21 Au                             3 s      
 label:          22 Au                             3 s      
 label:          23 Au                             3 dxy    
 label:          24 Au                             3 dyz    
 label:          25 Au                             3 dz2    
 label:          26 Au                             3 dxz    
 label:          27 Au                             3 dx2-y2 
 label:          28 Au                             3 Ppy    
 label:          29 Au                             3 Ppz    
 label:          30 Au                             3 Ppx    
 label:          31 Au                             4 s      
 label:          32 Au                             4 s      
 label:          33 Au                             4 dxy    
 label:          34 Au                             4 dyz    
 label:          35 Au                             4 dz2    
 label:          36 Au                             4 dxz    
 label:          37 Au                             4 dx2-y2 
 label:          38 Au                             4 Ppy    
 label:          39 Au                             4 Ppz    
 label:          40 Au                             4 Ppx    
 label:          41 Au                             5 s      
 label:          42 Au                             5 s      
 label:          43 Au                             5 dxy    
 label:          44 Au                             5 dyz    
 label:          45 Au                             5 dz2    
 label:          46 Au                             5 dxz    
 label:          47 Au                             5 dx2-y2 
 label:          48 Au                             5 Ppy    
 label:          49 Au                             5 Ppz    
 label:          50 Au                             5 Ppx    
 label:          51 Au                             6 s      
 label:          52 Au                             6 s      
 label:          53 Au                             6 dxy    
 label:          54 Au                             6 dyz    
 label:          55 Au                             6 dz2    
 label:          56 Au                             6 dxz    
 label:          57 Au                             6 dx2-y2 
 label:          58 Au                             6 Ppy    
 label:          59 Au                             6 Ppz    
 label:          60 Au                             6 Ppx    
 label:          61 Au                             7 s      
 label:          62 Au                             7 s      
 label:          63 Au                             7 dxy    
 label:          64 Au                             7 dyz    
 label:          65 Au                             7 dz2    
 label:          66 Au                             7 dxz    
 label:          67 Au                             7 dx2-y2 
 label:          68 Au                             7 Ppy    
 label:          69 Au                             7 Ppz    
 label:          70 Au                             7 Ppx    
 label:          71 Au                             8 s      
 label:          72 Au                             8 s      
 label:          73 Au                             8 dxy    
 label:          74 Au                             8 dyz    
 label:          75 Au                             8 dz2    
 label:          76 Au                             8 dxz    
 label:          77 Au                             8 dx2-y2 
 label:          78 Au                             8 Ppy    
 label:          79 Au                             8 Ppz    
 label:          80 Au                             8 Ppx    
 label:          81 Au                             9 s      
 label:          82 Au                             9 s      
 label:          83 Au                             9 dxy    
 label:          84 Au                             9 dyz    
 label:          85 Au                             9 dz2    
 label:          86 Au                             9 dxz    
 label:          87 Au                             9 dx2-y2 
 label:          88 Au                             9 Ppy    
 label:          89 Au                             9 Ppz    
 label:          90 Au                             9 Ppx    
 label:          91 Au                            10 s      
 label:          92 Au                            10 s      
 label:          93 Au                            10 dxy    
 label:          94 Au                            10 dyz    
 label:          95 Au                            10 dz2    
 label:          96 Au                            10 dxz    
 label:          97 Au                            10 dx2-y2 
 label:          98 Au                            10 Ppy    
 label:          99 Au                            10 Ppz    
 label:         100 Au                            10 Ppx    
 label:         101 Au                            11 s      
 label:         102 Au                            11 s      
 label:         103 Au                            11 dxy    
 label:         104 Au                            11 dyz    
 label:         105 Au                            11 dz2    
 label:         106 Au                            11 dxz    
 label:         107 Au                            11 dx2-y2 
 label:         108 Au                            11 Ppy    
 label:         109 Au                            11 Ppz    
 label:         110 Au                            11 Ppx    
 label:         111 Au                            12 s      
 label:         112 Au                            12 s      
 label:         113 Au                            12 dxy    
 label:         114 Au                            12 dyz    
 label:         115 Au                            12 dz2    
 label:         116 Au                            12 dxz    
 label:         117 Au                            12 dx2-y2 
 label:         118 Au                            12 Ppy    
 label:         119 Au                            12 Ppz    
 label:         120 Au                            12 Ppx    
 label:         121 Au                            13 s      
 label:         122 Au                            13 s      
 label:         123 Au                            13 dxy    
 label:         124 Au                            13 dyz    
 label:         125 Au                            13 dz2    
 label:         126 Au                            13 dxz    
 label:         127 Au                            13 dx2-y2 
 label:         128 Au                            13 Ppy    
 label:         129 Au                            13 Ppz    
 label:         130 Au                            13 Ppx    
 label:         131 Au                            14 s      
 label:         132 Au                            14 s      
 label:         133 Au                            14 dxy    
 label:         134 Au                            14 dyz    
 label:         135 Au                            14 dz2    
 label:         136 Au                            14 dxz    
 label:         137 Au                            14 dx2-y2 
 label:         138 Au                            14 Ppy    
 label:         139 Au                            14 Ppz    
 label:         140 Au                            14 Ppx    
 label:         141 Au                            15 s      
 label:         142 Au                            15 s      
 label:         143 Au                            15 dxy    
 label:         144 Au                            15 dyz    
 label:         145 Au                            15 dz2    
 label:         146 Au                            15 dxz    
 label:         147 Au                            15 dx2-y2 
 label:         148 Au                            15 Ppy    
 label:         149 Au                            15 Ppz    
 label:         150 Au                            15 Ppx    
 label:         151 Au                            16 s      
 label:         152 Au                            16 s      
 label:         153 Au                            16 dxy    
 label:         154 Au                            16 dyz    
 label:         155 Au                            16 dz2    
 label:         156 Au                            16 dxz    
 label:         157 Au                            16 dx2-y2 
 label:         158 Au                            16 Ppy    
 label:         159 Au                            16 Ppz    
 label:         160 Au                            16 Ppx    
 label:         161 Au                            17 s      
 label:         162 Au                            17 s      
 label:         163 Au                            17 dxy    
 label:         164 Au                            17 dyz    
 label:         165 Au                            17 dz2    
 label:         166 Au                            17 dxz    
 label:         167 Au                            17 dx2-y2 
 label:         168 Au                            17 Ppy    
 label:         169 Au                            17 Ppz    
 label:         170 Au                            17 Ppx    
 label:         171 Au                            18 s      
 label:         172 Au                            18 s      
 label:         173 Au                            18 dxy    
 label:         174 Au                            18 dyz    
 label:         175 Au                            18 dz2    
 label:         176 Au                            18 dxz    
 label:         177 Au                            18 dx2-y2 
 label:         178 Au                            18 Ppy    
 label:         179 Au                            18 Ppz    
 label:         180 Au                            18 Ppx    
 label:         181 Au                            19 s      
 label:         182 Au                            19 s      
 label:         183 Au                            19 dxy    
 label:         184 Au                            19 dyz    
 label:         185 Au                            19 dz2    
 label:         186 Au                            19 dxz    
 label:         187 Au                            19 dx2-y2 
 label:         188 Au                            19 Ppy    
 label:         189 Au                            19 Ppz    
 label:         190 Au                            19 Ppx    
 label:         191 Au                            20 s      
 label:         192 Au                            20 s      
 label:         193 Au                            20 dxy    
 label:         194 Au                            20 dyz    
 label:         195 Au                            20 dz2    
 label:         196 Au                            20 dxz    
 label:         197 Au                            20 dx2-y2 
 label:         198 Au                            20 Ppy    
 label:         199 Au                            20 Ppz    
 label:         200 Au                            20 Ppx    
 label:         201 Au                            21 s      
 label:         202 Au                            21 s      
 label:         203 Au                            21 dxy    
 label:         204 Au                            21 dyz    
 label:         205 Au                            21 dz2    
 label:         206 Au                            21 dxz    
 label:         207 Au                            21 dx2-y2 
 label:         208 Au                            21 Ppy    
 label:         209 Au                            21 Ppz    
 label:         210 Au                            21 Ppx    
 label:         211 Au                            22 s      
 label:         212 Au                            22 s      
 label:         213 Au                            22 dxy    
 label:         214 Au                            22 dyz    
 label:         215 Au                            22 dz2    
 label:         216 Au                            22 dxz    
 label:         217 Au                            22 dx2-y2 
 label:         218 Au                            22 Ppy    
 label:         219 Au                            22 Ppz    
 label:         220 Au                            22 Ppx    
 label:         221 Au                            23 s      
 label:         222 Au                            23 s      
 label:         223 Au                            23 dxy    
 label:         224 Au                            23 dyz    
 label:         225 Au                            23 dz2    
 label:         226 Au                            23 dxz    
 label:         227 Au                            23 dx2-y2 
 label:         228 Au                            23 Ppy    
 label:         229 Au                            23 Ppz    
 label:         230 Au                            23 Ppx    
 label:         231 Au                            24 s      
 label:         232 Au                            24 s      
 label:         233 Au                            24 dxy    
 label:         234 Au                            24 dyz    
 label:         235 Au                            24 dz2    
 label:         236 Au                            24 dxz    
 label:         237 Au                            24 dx2-y2 
 label:         238 Au                            24 Ppy    
 label:         239 Au                            24 Ppz    
 label:         240 Au                            24 Ppx    
 label:         241 Au                            25 s      
 label:         242 Au                            25 s      
 label:         243 Au                            25 dxy    
 label:         244 Au                            25 dyz    
 label:         245 Au                            25 dz2    
 label:         246 Au                            25 dxz    
 label:         247 Au                            25 dx2-y2 
 label:         248 Au                            25 Ppy    
 label:         249 Au                            25 Ppz    
 label:         250 Au                            25 Ppx    
 label:         251 Au                            26 s      
 label:         252 Au                            26 s      
 label:         253 Au                            26 dxy    
 label:         254 Au                            26 dyz    
 label:         255 Au                            26 dz2    
 label:         256 Au                            26 dxz    
 label:         257 Au                            26 dx2-y2 
 label:         258 Au                            26 Ppy    
 label:         259 Au                            26 Ppz    
 label:         260 Au                            26 Ppx    
 label:         261 Au                            27 s      
 label:         262 Au                            27 s      
 label:         263 Au                            27 dxy    
 label:         264 Au                            27 dyz    
 label:         265 Au                            27 dz2    
 label:         266 Au                            27 dxz    
 label:         267 Au                            27 dx2-y2 
 label:         268 Au                            27 Ppy    
 label:         269 Au                            27 Ppz    
 label:         270 Au                            27 Ppx    
 label:         271 Au                            28 s      
 label:         272 Au                            28 s      
 label:         273 Au                            28 dxy    
 label:         274 Au                            28 dyz    
 label:         275 Au                            28 dz2    
 label:         276 Au                            28 dxz    
 label:         277 Au                            28 dx2-y2 
 label:         278 Au                            28 Ppy    
 label:         279 Au                            28 Ppz    
 label:         280 Au                            28 Ppx    
 label:         281 Au                            29 s      
 label:         282 Au                            29 s      
 label:         283 Au                            29 dxy    
 label:         284 Au                            29 dyz    
 label:         285 Au                            29 dz2    
 label:         286 Au                            29 dxz    
 label:         287 Au                            29 dx2-y2 
 label:         288 Au                            29 Ppy    
 label:         289 Au                            29 Ppz    
 label:         290 Au                            29 Ppx    
 label:         291 Au                            30 s      
 label:         292 Au                            30 s      
 label:         293 Au                            30 dxy    
 label:         294 Au                            30 dyz    
 label:         295 Au                            30 dz2    
 label:         296 Au                            30 dxz    
 label:         297 Au                            30 dx2-y2 
 label:         298 Au                            30 Ppy    
 label:         299 Au                            30 Ppz    
 label:         300 Au                            30 Ppx    
 label:         301 Au                            31 s      
 label:         302 Au                            31 s      
 label:         303 Au                            31 dxy    
 label:         304 Au                            31 dyz    
 label:         305 Au                            31 dz2    
 label:         306 Au                            31 dxz    
 label:         307 Au                            31 dx2-y2 
 label:         308 Au                            31 Ppy    
 label:         309 Au                            31 Ppz    
 label:         310 Au                            31 Ppx    
 label:         311 Au                            32 s      
 label:         312 Au                            32 s      
 label:         313 Au                            32 dxy    
 label:         314 Au                            32 dyz    
 label:         315 Au                            32 dz2    
 label:         316 Au                            32 dxz    
 label:         317 Au                            32 dx2-y2 
 label:         318 Au                            32 Ppy    
 label:         319 Au                            32 Ppz    
 label:         320 Au                            32 Ppx    
 label:         321 Au                            33 s      
 label:         322 Au                            33 s      
 label:         323 Au                            33 dxy    
 label:         324 Au                            33 dyz    
 label:         325 Au                            33 dz2    
 label:         326 Au                            33 dxz    
 label:         327 Au                            33 dx2-y2 
 label:         328 Au                            33 Ppy    
 label:         329 Au                            33 Ppz    
 label:         330 Au                            33 Ppx    
 label:         331 Au                            34 s      
 label:         332 Au                            34 s      
 label:         333 Au                            34 dxy    
 label:         334 Au                            34 dyz    
 label:         335 Au                            34 dz2    
 label:         336 Au                            34 dxz    
 label:         337 Au                            34 dx2-y2 
 label:         338 Au                            34 Ppy    
 label:         339 Au                            34 Ppz    
 label:         340 Au                            34 Ppx    
 label:         341 Au                            35 s      
 label:         342 Au                            35 s      
 label:         343 Au                            35 dxy    
 label:         344 Au                            35 dyz    
 label:         345 Au                            35 dz2    
 label:         346 Au                            35 dxz    
 label:         347 Au                            35 dx2-y2 
 label:         348 Au                            35 Ppy    
 label:         349 Au                            35 Ppz    
 label:         350 Au                            35 Ppx    
 label:         351 Au                            36 s      
 label:         352 Au                            36 s      
 label:         353 Au                            36 dxy    
 label:         354 Au                            36 dyz    
 label:         355 Au                            36 dz2    
 label:         356 Au                            36 dxz    
 label:         357 Au                            36 dx2-y2 
 label:         358 Au                            36 Ppy    
 label:         359 Au                            36 Ppz    
 label:         360 Au                            36 Ppx    
 label:         361 Au                            37 s      
 label:         362 Au                            37 s      
 label:         363 Au                            37 dxy    
 label:         364 Au                            37 dyz    
 label:         365 Au                            37 dz2    
 label:         366 Au                            37 dxz    
 label:         367 Au                            37 dx2-y2 
 label:         368 Au                            37 Ppy    
 label:         369 Au                            37 Ppz    
 label:         370 Au                            37 Ppx    
 label:         371 Au                            38 s      
 label:         372 Au                            38 s      
 label:         373 Au                            38 dxy    
 label:         374 Au                            38 dyz    
 label:         375 Au                            38 dz2    
 label:         376 Au                            38 dxz    
 label:         377 Au                            38 dx2-y2 
 label:         378 Au                            38 Ppy    
 label:         379 Au                            38 Ppz    
 label:         380 Au                            38 Ppx    
 label:         381 Au                            39 s      
 label:         382 Au                            39 s      
 label:         383 Au                            39 dxy    
 label:         384 Au                            39 dyz    
 label:         385 Au                            39 dz2    
 label:         386 Au                            39 dxz    
 label:         387 Au                            39 dx2-y2 
 label:         388 Au                            39 Ppy    
 label:         389 Au                            39 Ppz    
 label:         390 Au                            39 Ppx    
 label:         391 Au                            40 s      
 label:         392 Au                            40 s      
 label:         393 Au                            40 dxy    
 label:         394 Au                            40 dyz    
 label:         395 Au                            40 dz2    
 label:         396 Au                            40 dxz    
 label:         397 Au                            40 dx2-y2 
 label:         398 Au                            40 Ppy    
 label:         399 Au                            40 Ppz    
 label:         400 Au                            40 Ppx    
 label:         401 Au                            41 s      
 label:         402 Au                            41 s      
 label:         403 Au                            41 dxy    
 label:         404 Au                            41 dyz    
 label:         405 Au                            41 dz2    
 label:         406 Au                            41 dxz    
 label:         407 Au                            41 dx2-y2 
 label:         408 Au                            41 Ppy    
 label:         409 Au                            41 Ppz    
 label:         410 Au                            41 Ppx    
 label:         411 Au                            42 s      
 label:         412 Au                            42 s      
 label:         413 Au                            42 dxy    
 label:         414 Au                            42 dyz    
 label:         415 Au                            42 dz2    
 label:         416 Au                            42 dxz    
 label:         417 Au                            42 dx2-y2 
 label:         418 Au                            42 Ppy    
 label:         419 Au                            42 Ppz    
 label:         420 Au                            42 Ppx    
 label:         421 Au                            43 s      
 label:         422 Au                            43 s      
 label:         423 Au                            43 dxy    
 label:         424 Au                            43 dyz    
 label:         425 Au                            43 dz2    
 label:         426 Au                            43 dxz    
 label:         427 Au                            43 dx2-y2 
 label:         428 Au                            43 Ppy    
 label:         429 Au                            43 Ppz    
 label:         430 Au                            43 Ppx    
 label:         431 Au                            44 s      
 label:         432 Au                            44 s      
 label:         433 Au                            44 dxy    
 label:         434 Au                            44 dyz    
 label:         435 Au                            44 dz2    
 label:         436 Au                            44 dxz    
 label:         437 Au                            44 dx2-y2 
 label:         438 Au                            44 Ppy    
 label:         439 Au                            44 Ppz    
 label:         440 Au                            44 Ppx    
 label:         441 Au                            45 s      
 label:         442 Au                            45 s      
 label:         443 Au                            45 dxy    
 label:         444 Au                            45 dyz    
 label:         445 Au                            45 dz2    
 label:         446 Au                            45 dxz    
 label:         447 Au                            45 dx2-y2 
 label:         448 Au                            45 Ppy    
 label:         449 Au                            45 Ppz    
 label:         450 Au                            45 Ppx    
 label:         451 Au                            46 s      
 label:         452 Au                            46 s      
 label:         453 Au                            46 dxy    
 label:         454 Au                            46 dyz    
 label:         455 Au                            46 dz2    
 label:         456 Au                            46 dxz    
 label:         457 Au                            46 dx2-y2 
 label:         458 Au                            46 Ppy    
 label:         459 Au                            46 Ppz    
 label:         460 Au                            46 Ppx    
 label:         461 Au                            47 s      
 label:         462 Au                            47 s      
 label:         463 Au                            47 dxy    
 label:         464 Au                            47 dyz    
 label:         465 Au                            47 dz2    
 label:         466 Au                            47 dxz    
 label:         467 Au                            47 dx2-y2 
 label:         468 Au                            47 Ppy    
 label:         469 Au                            47 Ppz    
 label:         470 Au                            47 Ppx    
 label:         471 Au                            48 s      
 label:         472 Au                            48 s      
 label:         473 Au                            48 dxy    
 label:         474 Au                            48 dyz    
 label:         475 Au                            48 dz2    
 label:         476 Au                            48 dxz    
 label:         477 Au                            48 dx2-y2 
 label:         478 Au                            48 Ppy    
 label:         479 Au                            48 Ppz    
 label:         480 Au                            48 Ppx    
 label:         481 Au                            49 s      
 label:         482 Au                            49 s      
 label:         483 Au                            49 dxy    
 label:         484 Au                            49 dyz    
 label:         485 Au                            49 dz2    
 label:         486 Au                            49 dxz    
 label:         487 Au                            49 dx2-y2 
 label:         488 Au                            49 Ppy    
 label:         489 Au                            49 Ppz    
 label:         490 Au                            49 Ppx    
 label:         491 Au                            50 s      
 label:         492 Au                            50 s      
 label:         493 Au                            50 dxy    
 label:         494 Au                            50 dyz    
 label:         495 Au                            50 dz2    
 label:         496 Au                            50 dxz    
 label:         497 Au                            50 dx2-y2 
 label:         498 Au                            50 Ppy    
 label:         499 Au                            50 Ppz    
 label:         500 Au                            50 Ppx    
 label:         501 Au                            51 s      
 label:         502 Au                            51 s      
 label:         503 Au                            51 dxy    
 label:         504 Au                            51 dyz    
 label:         505 Au                            51 dz2    
 label:         506 Au                            51 dxz    
 label:         507 Au                            51 dx2-y2 
 label:         508 Au                            51 Ppy    
 label:         509 Au                            51 Ppz    
 label:         510 Au                            51 Ppx    
 label:         511 Au                            52 s      
 label:         512 Au                            52 s      
 label:         513 Au                            52 dxy    
 label:         514 Au                            52 dyz    
 label:         515 Au                            52 dz2    
 label:         516 Au                            52 dxz    
 label:         517 Au                            52 dx2-y2 
 label:         518 Au                            52 Ppy    
 label:         519 Au                            52 Ppz    
 label:         520 Au                            52 Ppx    
 label:         521 Au                            53 s      
 label:         522 Au                            53 s      
 label:         523 Au                            53 dxy    
 label:         524 Au                            53 dyz    
 label:         525 Au                            53 dz2    
 label:         526 Au                            53 dxz    
 label:         527 Au                            53 dx2-y2 
 label:         528 Au                            53 Ppy    
 label:         529 Au                            53 Ppz    
 label:         530 Au                            53 Ppx    
 label:         531 Au                            54 s      
 label:         532 Au                            54 s      
 label:         533 Au                            54 dxy    
 label:         534 Au                            54 dyz    
 label:         535 Au                            54 dz2    
 label:         536 Au                            54 dxz    
 label:         537 Au                            54 dx2-y2 
 label:         538 Au                            54 Ppy    
 label:         539 Au                            54 Ppz    
 label:         540 Au                            54 Ppx    
 label:         541 Au                            55 s      
 label:         542 Au                            55 s      
 label:         543 Au                            55 dxy    
 label:         544 Au                            55 dyz    
 label:         545 Au                            55 dz2    
 label:         546 Au                            55 dxz    
 label:         547 Au                            55 dx2-y2 
 label:         548 Au                            55 Ppy    
 label:         549 Au                            55 Ppz    
 label:         550 Au                            55 Ppx    
 label:         551 Au                            56 s      
 label:         552 Au                            56 s      
 label:         553 Au                            56 dxy    
 label:         554 Au                            56 dyz    
 label:         555 Au                            56 dz2    
 label:         556 Au                            56 dxz    
 label:         557 Au                            56 dx2-y2 
 label:         558 Au                            56 Ppy    
 label:         559 Au                            56 Ppz    
 label:         560 Au                            56 Ppx    
 label:         561 Au                            57 s      
 label:         562 Au                            57 s      
 label:         563 Au                            57 dxy    
 label:         564 Au                            57 dyz    
 label:         565 Au                            57 dz2    
 label:         566 Au                            57 dxz    
 label:         567 Au                            57 dx2-y2 
 label:         568 Au                            57 Ppy    
 label:         569 Au                            57 Ppz    
 label:         570 Au                            57 Ppx    
 label:         571 Au                            58 s      
 label:         572 Au                            58 s      
 label:         573 Au                            58 dxy    
 label:         574 Au                            58 dyz    
 label:         575 Au                            58 dz2    
 label:         576 Au                            58 dxz    
 label:         577 Au                            58 dx2-y2 
 label:         578 Au                            58 Ppy    
 label:         579 Au                            58 Ppz    
 label:         580 Au                            58 Ppx    
 label:         581 Au                            59 s      
 label:         582 Au                            59 s      
 label:         583 Au                            59 dxy    
 label:         584 Au                            59 dyz    
 label:         585 Au                            59 dz2    
 label:         586 Au                            59 dxz    
 label:         587 Au                            59 dx2-y2 
 label:         588 Au                            59 Ppy    
 label:         589 Au                            59 Ppz    
 label:         590 Au                            59 Ppx    
 label:         591 Au                            60 s      
 label:         592 Au                            60 s      
 label:         593 Au                            60 dxy    
 label:         594 Au                            60 dyz    
 label:         595 Au                            60 dz2    
 label:         596 Au                            60 dxz    
 label:         597 Au                            60 dx2-y2 
 label:         598 Au                            60 Ppy    
 label:         599 Au                            60 Ppz    
 label:         600 Au                            60 Ppx    
 label:         601 H                             61 s      
 label:         602 H                             61 s      
 label:         603 H                             61 py     
 label:         604 H                             61 pz     
 label:         605 H                             61 px     
 label:         606 H                             62 s      
 label:         607 H                             62 s      
 label:         608 H                             62 py     
 label:         609 H                             62 pz     
 label:         610 H                             62 px     
 label:         611 Au                            63 s      
 label:         612 Au                            63 s      
 label:         613 Au                            63 dxy    
 label:         614 Au                            63 dyz    
 label:         615 Au                            63 dz2    
 label:         616 Au                            63 dxz    
 label:         617 Au                            63 dx2-y2 
 label:         618 Au                            63 Ppy    
 label:         619 Au                            63 Ppz    
 label:         620 Au                            63 Ppx    
 label:         621 Au                            64 s      
 label:         622 Au                            64 s      
 label:         623 Au                            64 dxy    
 label:         624 Au                            64 dyz    
 label:         625 Au                            64 dz2    
 label:         626 Au                            64 dxz    
 label:         627 Au                            64 dx2-y2 
 label:         628 Au                            64 Ppy    
 label:         629 Au                            64 Ppz    
 label:         630 Au                            64 Ppx    
 label:         631 Au                            65 s      
 label:         632 Au                            65 s      
 label:         633 Au                            65 dxy    
 label:         634 Au                            65 dyz    
 label:         635 Au                            65 dz2    
 label:         636 Au                            65 dxz    
 label:         637 Au                            65 dx2-y2 
 label:         638 Au                            65 Ppy    
 label:         639 Au                            65 Ppz    
 label:         640 Au                            65 Ppx    
 label:         641 Au                            66 s      
 label:         642 Au                            66 s      
 label:         643 Au                            66 dxy    
 label:         644 Au                            66 dyz    
 label:         645 Au                            66 dz2    
 label:         646 Au                            66 dxz    
 label:         647 Au                            66 dx2-y2 
 label:         648 Au                            66 Ppy    
 label:         649 Au                            66 Ppz    
 label:         650 Au                            66 Ppx    
 label:         651 Au                            67 s      
 label:         652 Au                            67 s      
 label:         653 Au                            67 dxy    
 label:         654 Au                            67 dyz    
 label:         655 Au                            67 dz2    
 label:         656 Au                            67 dxz    
 label:         657 Au                            67 dx2-y2 
 label:         658 Au                            67 Ppy    
 label:         659 Au                            67 Ppz    
 label:         660 Au                            67 Ppx    
 label:         661 Au                            68 s      
 label:         662 Au                            68 s      
 label:         663 Au                            68 dxy    
 label:         664 Au                            68 dyz    
 label:         665 Au                            68 dz2    
 label:         666 Au                            68 dxz    
 label:         667 Au                            68 dx2-y2 
 label:         668 Au                            68 Ppy    
 label:         669 Au                            68 Ppz    
 label:         670 Au                            68 Ppx    
 label:         671 Au                            69 s      
 label:         672 Au                            69 s      
 label:         673 Au                            69 dxy    
 label:         674 Au                            69 dyz    
 label:         675 Au                            69 dz2    
 label:         676 Au                            69 dxz    
 label:         677 Au                            69 dx2-y2 
 label:         678 Au                            69 Ppy    
 label:         679 Au                            69 Ppz    
 label:         680 Au                            69 Ppx    
 label:         681 Au                            70 s      
 label:         682 Au                            70 s      
 label:         683 Au                            70 dxy    
 label:         684 Au                            70 dyz    
 label:         685 Au                            70 dz2    
 label:         686 Au                            70 dxz    
 label:         687 Au                            70 dx2-y2 
 label:         688 Au                            70 Ppy    
 label:         689 Au                            70 Ppz    
 label:         690 Au                            70 Ppx    
 label:         691 Au                            71 s      
 label:         692 Au                            71 s      
 label:         693 Au                            71 dxy    
 label:         694 Au                            71 dyz    
 label:         695 Au                            71 dz2    
 label:         696 Au                            71 dxz    
 label:         697 Au                            71 dx2-y2 
 label:         698 Au                            71 Ppy    
 label:         699 Au                            71 Ppz    
 label:         700 Au                            71 Ppx    
 label:         701 Au                            72 s      
 label:         702 Au                            72 s      
 label:         703 Au                            72 dxy    
 label:         704 Au                            72 dyz    
 label:         705 Au                            72 dz2    
 label:         706 Au                            72 dxz    
 label:         707 Au                            72 dx2-y2 
 label:         708 Au                            72 Ppy    
 label:         709 Au                            72 Ppz    
 label:         710 Au                            72 Ppx    
 label:         711 Au                            73 s      
 label:         712 Au                            73 s      
 label:         713 Au                            73 dxy    
 label:         714 Au                            73 dyz    
 label:         715 Au                            73 dz2    
 label:         716 Au                            73 dxz    
 label:         717 Au                            73 dx2-y2 
 label:         718 Au                            73 Ppy    
 label:         719 Au                            73 Ppz    
 label:         720 Au                            73 Ppx    
 label:         721 Au                            74 s      
 label:         722 Au                            74 s      
 label:         723 Au                            74 dxy    
 label:         724 Au                            74 dyz    
 label:         725 Au                            74 dz2    
 label:         726 Au                            74 dxz    
 label:         727 Au                            74 dx2-y2 
 label:         728 Au                            74 Ppy    
 label:         729 Au                            74 Ppz    
 label:         730 Au                            74 Ppx    
 label:         731 Au                            75 s      
 label:         732 Au                            75 s      
 label:         733 Au                            75 dxy    
 label:         734 Au                            75 dyz    
 label:         735 Au                            75 dz2    
 label:         736 Au                            75 dxz    
 label:         737 Au                            75 dx2-y2 
 label:         738 Au                            75 Ppy    
 label:         739 Au                            75 Ppz    
 label:         740 Au                            75 Ppx    
 label:         741 Au                            76 s      
 label:         742 Au                            76 s      
 label:         743 Au                            76 dxy    
 label:         744 Au                            76 dyz    
 label:         745 Au                            76 dz2    
 label:         746 Au                            76 dxz    
 label:         747 Au                            76 dx2-y2 
 label:         748 Au                            76 Ppy    
 label:         749 Au                            76 Ppz    
 label:         750 Au                            76 Ppx    
 label:         751 Au                            77 s      
 label:         752 Au                            77 s      
 label:         753 Au                            77 dxy    
 label:         754 Au                            77 dyz    
 label:         755 Au                            77 dz2    
 label:         756 Au                            77 dxz    
 label:         757 Au                            77 dx2-y2 
 label:         758 Au                            77 Ppy    
 label:         759 Au                            77 Ppz    
 label:         760 Au                            77 Ppx    
 label:         761 Au                            78 s      
 label:         762 Au                            78 s      
 label:         763 Au                            78 dxy    
 label:         764 Au                            78 dyz    
 label:         765 Au                            78 dz2    
 label:         766 Au                            78 dxz    
 label:         767 Au                            78 dx2-y2 
 label:         768 Au                            78 Ppy    
 label:         769 Au                            78 Ppz    
 label:         770 Au                            78 Ppx    
 label:         771 Au                            79 s      
 label:         772 Au                            79 s      
 label:         773 Au                            79 dxy    
 label:         774 Au                            79 dyz    
 label:         775 Au                            79 dz2    
[...]
  53    -66.989     -2.855     -3.508    -11.617    -11.515    -11.506    -11.506    -11.499     -1.045
                    -0.912     -1.026
  54    -65.254     -3.239     -3.099    -11.340    -11.219    -11.212    -11.219    -11.253     -0.954
                    -0.764     -0.955
  55    -61.748     -3.734     -2.371    -10.669    -10.778    -10.822    -10.779    -10.661     -0.656
                    -0.622     -0.656
  56    -61.644     -3.747     -2.352    -10.652    -10.758    -10.808    -10.758    -10.644     -0.654
                    -0.618     -0.653
  57    -61.754     -3.734     -2.371    -10.670    -10.779    -10.823    -10.780    -10.662     -0.656
                    -0.622     -0.657
  58    -61.649     -3.747     -2.352    -10.653    -10.759    -10.809    -10.759    -10.644     -0.654
                    -0.618     -0.653
  59    -63.686     -3.975     -2.441    -10.909    -11.244    -11.307    -11.244    -10.904     -0.473
                    -0.716     -0.473
  60    -55.493     -3.879     -1.282     -9.546    -10.279    -10.544    -10.279     -9.545     -0.054
                    -0.031     -0.054
  63    -59.880     -4.352     -1.346    -10.284    -11.000    -11.459    -11.000    -10.283     -0.055
                    -0.046     -0.055
  64    -74.185     -5.477     -2.388    -12.634    -12.925    -13.305    -12.925    -12.698     -0.459
                    -0.915     -0.459
  65    -79.108     -4.388     -3.058    -13.801    -13.802    -13.911    -13.802    -13.819     -0.849
                    -0.830     -0.847
  66    -79.066     -4.379     -3.056    -13.796    -13.794    -13.902    -13.793    -13.814     -0.846
                    -0.839     -0.848
  67    -79.104     -4.391     -3.056    -13.801    -13.801    -13.910    -13.801    -13.819     -0.849
                    -0.829     -0.847
  68    -79.060     -4.382     -3.052    -13.796    -13.793    -13.901    -13.792    -13.814     -0.846
                    -0.837     -0.848
  69    -83.529     -4.043     -3.790    -14.583    -14.411    -14.444    -14.412    -14.442     -1.221
                    -0.961     -1.222
  70    -85.208     -3.540     -4.283    -14.822    -14.647    -14.725    -14.706    -14.687     -1.322
                    -1.167     -1.310
  71    -83.475     -4.037     -3.791    -14.573    -14.405    -14.435    -14.404    -14.430     -1.222
                    -0.957     -1.221
  72    -85.215     -3.552     -4.282    -14.825    -14.702    -14.723    -14.645    -14.688     -1.308
                    -1.169     -1.321
  73    -87.722     -2.439     -5.288    -15.190    -15.045    -15.153    -15.045    -15.049     -1.496
                    -1.521     -1.496
  74    -85.199     -3.528     -4.283    -14.820    -14.709    -14.726    -14.649    -14.686     -1.312
                    -1.165     -1.322
  75    -83.523     -4.043     -3.789    -14.582    -14.411    -14.443    -14.411    -14.441     -1.221
                    -0.960     -1.222
  76    -85.206     -3.541     -4.282    -14.822    -14.647    -14.724    -14.705    -14.687     -1.322
                    -1.167     -1.310
  77    -83.469     -4.037     -3.790    -14.572    -14.404    -14.434    -14.403    -14.429     -1.222
                    -0.957     -1.221
  78    -89.695     -2.929     -5.082    -15.494    -15.338    -15.505    -15.340    -15.400     -1.529
                    -1.528     -1.551
  79    -90.054     -2.985     -5.142    -15.534    -15.418    -15.523    -15.419    -15.417     -1.543
                    -1.531     -1.543
  80    -89.876     -2.982     -5.133    -15.499    -15.384    -15.489    -15.383    -15.383     -1.541
                    -1.542     -1.541
  81    -89.662     -2.967     -5.105    -15.474    -15.354    -15.462    -15.360    -15.360     -1.527
                    -1.515     -1.539
  82    -89.694     -2.930     -5.081    -15.494    -15.337    -15.504    -15.339    -15.400     -1.529
                    -1.529     -1.551
  83    -90.053     -2.984     -5.143    -15.533    -15.416    -15.521    -15.418    -15.416     -1.543
                    -1.534     -1.544
  84    -89.876     -2.982     -5.133    -15.499    -15.383    -15.489    -15.383    -15.383     -1.541
                    -1.542     -1.541
  85    -89.727     -2.977     -5.126    -15.474    -15.358    -15.463    -15.358    -15.358     -1.538
                    -1.537     -1.538
  86    -89.518     -2.907     -5.106    -15.461    -15.317    -15.456    -15.317    -15.357     -1.529
                    -1.539     -1.529
  87    -90.054     -2.984     -5.142    -15.534    -15.418    -15.523    -15.419    -15.417     -1.543
                    -1.531     -1.543
  88    -89.871     -2.981     -5.134    -15.499    -15.383    -15.488    -15.383    -15.382     -1.541
                    -1.542     -1.541
  89    -89.726     -2.978     -5.125    -15.473    -15.358    -15.462    -15.358    -15.358     -1.538
                    -1.537     -1.538
  90    -90.233     -2.927     -5.033    -15.594    -15.455    -15.603    -15.453    -15.507     -1.555
                    -1.550     -1.555
  91    -90.047     -2.986     -5.142    -15.531    -15.416    -15.520    -15.414    -15.414     -1.544
                    -1.536     -1.543
  92    -89.883     -2.983     -5.132    -15.500    -15.385    -15.490    -15.385    -15.384     -1.541
                    -1.542     -1.541
  93    -89.663     -2.966     -5.105    -15.475    -15.354    -15.462    -15.360    -15.360     -1.527
                    -1.515     -1.539
  94    -90.231     -2.928     -5.033    -15.593    -15.454    -15.603    -15.453    -15.507     -1.555
                    -1.550     -1.555
  95    -90.040     -2.983     -5.141    -15.530    -15.413    -15.514    -15.413    -15.413     -1.545
                    -1.543     -1.545
  96    -89.883     -2.984     -5.132    -15.500    -15.385    -15.490    -15.385    -15.384     -1.541
                    -1.542     -1.541
  97    -89.727     -2.976     -5.126    -15.474    -15.359    -15.463    -15.359    -15.358     -1.538
                    -1.537     -1.538
  98    -89.703     -2.923     -5.082    -15.496    -15.344    -15.507    -15.341    -15.402     -1.551
                    -1.528     -1.529
  99    -90.047     -2.985     -5.143    -15.531    -15.416    -15.520    -15.414    -15.414     -1.544
                    -1.536     -1.543
 100    -89.877     -2.982     -5.133    -15.499    -15.384    -15.489    -15.384    -15.383     -1.541
                    -1.542     -1.541
 101    -89.726     -2.977     -5.126    -15.474    -15.358    -15.462    -15.358    -15.358     -1.538
                    -1.537     -1.538
 102    -90.188     -2.958     -5.037    -15.579    -15.436    -15.588    -15.438    -15.493     -1.554
                    -1.551     -1.554
 103    -90.044     -2.985     -5.140    -15.532    -15.417    -15.521    -15.416    -15.415     -1.543
                    -1.533     -1.543
 104    -89.880     -2.983     -5.133    -15.500    -15.384    -15.489    -15.384    -15.384     -1.541
                    -1.542     -1.541
 105    -89.648     -2.964     -5.099    -15.475    -15.359    -15.461    -15.355    -15.360     -1.534
                    -1.510     -1.530
 106    -90.186     -2.959     -5.036    -15.578    -15.436    -15.588    -15.437    -15.493     -1.554
                    -1.551     -1.554
 107    -90.040     -2.986     -5.142    -15.530    -15.413    -15.518    -15.414    -15.413     -1.543
                    -1.538     -1.544
 108    -89.879     -2.983     -5.132    -15.500    -15.384    -15.489    -15.384    -15.384     -1.541
                    -1.542     -1.541
 109    -89.682     -2.969     -5.110    -15.475    -15.361    -15.462    -15.355    -15.359     -1.539
                    -1.521     -1.530
 110    -89.686     -2.936     -5.080    -15.492    -15.336    -15.502    -15.334    -15.398     -1.551
                    -1.529     -1.529
 111    -90.044     -2.984     -5.141    -15.532    -15.417    -15.521    -15.416    -15.415     -1.543
                    -1.533     -1.543
 112    -89.874     -2.981     -5.133    -15.499    -15.383    -15.488    -15.383    -15.383     -1.541
                    -1.542     -1.541
 113    -89.680     -2.970     -5.110    -15.475    -15.361    -15.462    -15.354    -15.359     -1.539
                    -1.521     -1.530

Species: H                   
Atom      Eatom      Eorb
                      1s         1s         2py        2pz        2px     
  61    -10.166    -10.008     -0.417     -0.105      0.468     -0.105
  62    -10.259    -10.163     -0.414     -0.102      0.522     -0.102

hamilton: Etot =   -8521.518
 
* Maximum dynamic memory allocated =   442 MB
 siesta: ERROR: PDOS implemented only with diagon

siesta: Program's energy decomposition (eV):
siesta:-Eions   = -122574.844785
siesta: Ena     =    4113.085365
siesta: Ekin    =   68989.648160
siesta: Enl     =  -34940.714713
siesta: DEna    =     642.740757
siesta: DUscf   =      35.034399
siesta: DUext   =       0.000000
siesta: Exc     =  -15802.917654
siesta: eta*DQ  =       0.000000
siesta: Emadel  =       0.000000
siesta: Ekinion =       0.000000
siesta: Eharris =  -99537.968518
siesta: Eso     =       0.000000
siesta: Etot    =  -99537.968470
siesta: FreeEng =  -99537.968470

siesta: Final energy (eV):
siesta:       Kinetic =   68989.648160
siesta:       Hartree =  568457.259075
siesta:    Ext. field =       0.000000
siesta:   Exch.-corr. =  -15802.917654
siesta:  Ion-electron =-1194641.349712
siesta:       Ion-ion =  473459.391662
siesta:       Ekinion =       0.000000
siesta:         Total =  -99537.968470

siesta: Atomic forces (eV/Ang):
siesta:    1    0.000407    0.000939    0.025332
siesta:    2    0.000871    0.000464   -0.064292
siesta:    3    0.001879    0.002816    0.019819
siesta:    4    0.003112   -0.006142    0.091669
siesta:    5    0.000508    0.000468    0.025280
siesta:    6   -0.000740   -0.000047   -0.063570
siesta:    7   -0.000744    0.003141    0.019920
siesta:    8   -0.000724    0.001140    0.059438
siesta:    9   -0.001496    0.000922    0.025317
siesta:   10   -0.000191   -0.000063   -0.064167
siesta:   11   -0.000810    0.002751    0.018135
siesta:   12   -0.002347   -0.005756    0.091254
siesta:   13   -0.000382   -0.000784    0.025405
siesta:   14    0.001028    0.000793   -0.063353
siesta:   15    0.004784    0.003842    0.020470
siesta:   16    0.004961   -0.009926    0.043021
siesta:   17    0.000848   -0.000754    0.025509
siesta:   18   -0.001102    0.001115   -0.063109
siesta:   19   -0.003711    0.003781    0.020073
siesta:   20   -0.000688   -0.003718    0.012310
siesta:   21   -0.000290   -0.000290    0.025272
siesta:   22    0.000063    0.000753   -0.063535
siesta:   23   -0.000924    0.000952    0.028735
siesta:   24   -0.004205   -0.010248    0.042849
siesta:   25    0.000075   -0.000471    0.025453
siesta:   26    0.001394   -0.001088   -0.064289
siesta:   27    0.005291   -0.005645    0.005095
siesta:   28   -0.000740   -0.007530    0.067137
siesta:   29    0.000904    0.000260    0.025420
siesta:   30   -0.000988   -0.000856   -0.063200
siesta:   31   -0.004407   -0.006063    0.005359
siesta:   32   -0.001228   -0.007934    0.025248
siesta:   33   -0.001137   -0.000622    0.025348
siesta:   34   -0.000596   -0.000662   -0.064201
siesta:   35   -0.000902   -0.002533    0.011278
siesta:   36    0.001722   -0.007561    0.067738
siesta:   37    0.088193   -0.010218    0.029047
siesta:   38    0.061622    0.071548   -0.176830
siesta:   39    0.067920   -0.056687   -0.175526
siesta:   40   -0.087387   -0.009971    0.029311
siesta:   41   -0.060592    0.071809   -0.176757
siesta:   42   -0.066842   -0.056993   -0.175761
siesta:   43   -0.000384   -0.017671    0.245593
siesta:   44   -0.001137    0.093754    0.025232
siesta:   45   -0.000924   -0.082030    0.032797
siesta:   46   -0.257457   -0.253125    0.303073
siesta:   47   -0.562847    0.002368    0.190386
siesta:   48   -0.255745    0.262930    0.289405
siesta:   49   -0.000708   -0.563805    0.188797
siesta:   50   -0.001117    0.012624   -0.222323
siesta:   51   -0.001130    0.564562    0.191700
siesta:   52    0.258532   -0.252986    0.302985
siesta:   53    0.564126    0.002174    0.190164
siesta:   54    0.256281    0.261635    0.290616
siesta:   55   -0.005422    0.000196   -0.000485
siesta:   56   -0.001553    0.007330    0.001978
siesta:   57    0.006118    0.000194   -0.000661
siesta:   58    0.002786    0.008421    0.000279
siesta:   59   -0.000918   -0.000308   -0.004085
siesta:   60   -0.000354   -0.006103   -0.008390
siesta:   61    0.000003    0.003271   -0.004261
siesta:   62    0.000274    0.000089   -0.004751
siesta:   63    0.002616   -0.003048   -0.001699
siesta:   64    0.001717    0.004704    0.007863
siesta:   65    0.002549    0.002640    0.000941
siesta:   66   -0.001455    0.001601    0.004692
siesta:   67   -0.002275    0.002943    0.000310
siesta:   68    0.001598    0.001599    0.004282
siesta:   69   -0.107386   -0.123476   -0.522343
siesta:   70   -0.496761    0.018898   -0.312319
siesta:   71   -0.114527    0.100087   -0.524458
siesta:   72   -0.000557   -0.513167   -0.319954
siesta:   73   -0.002306    0.023934    0.330973
siesta:   74   -0.001124    0.481296   -0.306298
siesta:   75    0.107248   -0.122549   -0.522885
siesta:   76    0.496947    0.018660   -0.313941
siesta:   77    0.114239    0.098362   -0.526384
siesta:   78    0.093042    0.010402    0.017514
siesta:   79    0.008478    0.007062    0.040580
siesta:   80   -0.000047    0.000928   -0.008416
siesta:   81    0.000660    0.000256    0.206078
siesta:   82   -0.092089    0.010893    0.016775
siesta:   83   -0.000886    0.007210    0.022417
siesta:   84    0.001226    0.001277   -0.008541
siesta:   85   -0.000768   -0.000293    0.205823
siesta:   86   -0.000118    0.001323   -0.119616
siesta:   87   -0.007718    0.007456    0.041430
siesta:   88   -0.000834    0.000930   -0.007592
siesta:   89    0.000050   -0.000281    0.205975
siesta:   90    0.053165    0.059499    0.250292
siesta:   91    0.008773    0.002288    0.014428
siesta:   92    0.000204   -0.000558   -0.008461
siesta:   93    0.000788    0.000782    0.205579
siesta:   94   -0.051496    0.059485    0.250736
siesta:   95   -0.000781    0.001752   -0.012396
siesta:   96    0.000918   -0.000623   -0.008075
siesta:   97   -0.001144    0.001123    0.205959
siesta:   98   -0.001207    0.089309    0.017985
siesta:   99   -0.008021    0.001958    0.014873
siesta:  100   -0.000956   -0.000594   -0.008755
siesta:  101    0.000332    0.000755    0.205815
siesta:  102    0.073423   -0.065534    0.222263
siesta:  103    0.007955   -0.007987    0.035821
siesta:  104   -0.000078    0.000016   -0.008161
siesta:  105    0.001192   -0.000873    0.206189
siesta:  106   -0.071460   -0.065624    0.222813
siesta:  107   -0.001374   -0.009128    0.007333
siesta:  108    0.000996   -0.000425   -0.008449
siesta:  109   -0.001020   -0.000598    0.205471
siesta:  110   -0.001012   -0.096341    0.016634
siesta:  111   -0.006852   -0.008007    0.035492
siesta:  112   -0.000934   -0.000141   -0.007979
siesta:  113   -0.000366   -0.000430    0.206052
siesta: ----------------------------------------
siesta:  Tot    0.003393   -0.001796    1.538369

siesta: Stress tensor (static) (eV/Ang**3):
siesta:    -0.006094   -0.000002    0.000003
siesta:    -0.000002   -0.006084   -0.000084
siesta:     0.000003   -0.000083   -0.009534

siesta: Cell volume =       3044.391638 Ang**3

siesta: Pressure (static):
siesta:                Solid            Molecule  Units
siesta:           0.00007883          0.00005226  Ry/Bohr**3
siesta:           0.00723769          0.00479827  eV/Ang**3
siesta:          11.59617761          7.68776591  kBar

siesta: Total spin polarization (Qup-Qdown) =    0.000000
siesta: Spin vector =    0.000000    0.000000    0.000000
siesta: No SpinPolK block detected...

siesta: Electric dipole (a.u.)  =    0.000000    0.000000   36.588695
siesta: Electric dipole (Debye) =    0.000000    0.000000   92.999249
 
* Maximum dynamic memory allocated : Node    0 =   442 MB
* Maximum dynamic memory allocated : Node    1 =   390 MB
* Maximum dynamic memory allocated : Node    2 =   287 MB
* Maximum dynamic memory allocated : Node    3 =   192 MB
* Maximum dynamic memory allocated : Node    4 =   191 MB
* Maximum dynamic memory allocated : Node    5 =   284 MB
* Maximum dynamic memory allocated : Node    6 =   389 MB
* Maximum dynamic memory allocated : Node    7 =   393 MB
* Maximum dynamic memory allocated : Node    8 =   391 MB
* Maximum dynamic memory allocated : Node    9 =   388 MB
* Maximum dynamic memory allocated : Node   10 =   304 MB
* Maximum dynamic memory allocated : Node   11 =   207 MB
* Maximum dynamic memory allocated : Node   12 =   206 MB
* Maximum dynamic memory allocated : Node   13 =   300 MB
* Maximum dynamic memory allocated : Node   14 =   386 MB
* Maximum dynamic memory allocated : Node   15 =   389 MB
* Maximum dynamic memory allocated : Node   16 =   391 MB
* Maximum dynamic memory allocated : Node   17 =   389 MB
* Maximum dynamic memory allocated : Node   18 =   330 MB
* Maximum dynamic memory allocated : Node   19 =   228 MB
* Maximum dynamic memory allocated : Node   20 =   229 MB
* Maximum dynamic memory allocated : Node   21 =   329 MB
* Maximum dynamic memory allocated : Node   22 =   389 MB
* Maximum dynamic memory allocated : Node   23 =   391 MB
* Maximum dynamic memory allocated : Node   24 =   390 MB
* Maximum dynamic memory allocated : Node   25 =   387 MB
* Maximum dynamic memory allocated : Node   26 =   311 MB
* Maximum dynamic memory allocated : Node   27 =   214 MB
* Maximum dynamic memory allocated : Node   28 =   213 MB
* Maximum dynamic memory allocated : Node   29 =   307 MB
* Maximum dynamic memory allocated : Node   30 =   387 MB
* Maximum memory occured during redistribXZ                   
* Maximum dynamic memory allocated : Node   31 =   390 MB

timer: CPU execution times:
timer:  Routine       Calls   Time/call    Tot.time        %
timer:  siesta            1  228065.898  228065.898   100.00
timer:  Setup             1      31.683      31.683     0.01
timer:  bands             1       0.019       0.019     0.00
timer:  writewave         1       0.036       0.036     0.00
timer:  KSV_init          1       0.005       0.005     0.00
timer:  IterMD            1  225500.090  225500.090    98.87
timer:  hsparse           2      20.939      41.879     0.02
timer:  overfsm           2       5.197      10.395     0.00
timer:  IterSCF           4   56344.877  225379.509    98.82
timer:  kinefsm           2       4.879       9.758     0.00
timer:  nlefsm            2     188.160     376.320     0.17
timer:  DHSCF             8    2859.407   22875.258    10.03
timer:  DHSCF1            1      30.463      30.463     0.01
timer:  DHSCF2            5    1258.606    6293.030     2.76
timer:  REORD           126       0.141      17.777     0.01
timer:  POISON           13      31.266     406.460     0.18
timer:  DHSCF3            8    1477.855   11822.844     5.18
timer:  rhoofd            8     527.327    4218.619     1.85
timer:  CELLXC            8     169.682    1357.459     0.60
timer:  vmat              4     710.976    2843.904     1.25
timer:  emtrans           4   50998.836  203995.345    89.45
timer:  NEGFK            24    8415.127  201963.040    88.55
timer:  NEGFK_su         24     404.436    9706.465     4.26
timer:  NEGFK_imag       18      99.674    1794.131     0.79
timer:  NEGFK_real       18     173.511    3123.189     1.37
timer:  NEGFK_col        18      11.897     214.148     0.09
timer:  DHSCF4            4     822.040    3288.162     1.44
timer:  dfscf             4     756.373    3025.490     1.33
timer:  TRANSM            6   31036.984  186221.906    81.65
timer:  CURRENT           6     109.370     656.220     0.29
  
>> End of run:  16-DEC-2013  22:09:48
