 # Version information for this restart file 
 # current date 2024-01-12 18:34:54.079
 # current working dir /gpfs/home/cahart/transport/melamine/au_from-h2/ci-neb/ts2-fixed/dft_leads-sz_tip-dzvp_surf-dzvp_kpoints-2-4-20_replicas-3
 # Program compiled at                              Thu 21 Sep 19:20:17 BST 2023
 # Program compiled on                                           hx1-c12-login-1
 # Program compiled for                                                    local
 # Source code revision number                                       git:5518aa6
 &GLOBAL
   EXTENDED_FFT_LENGTHS  T
   PRINT_LEVEL  MEDIUM
   PROJECT_NAME 2_dft_wfn-r-0
   OUTPUT_FILE_NAME 2_dft_wfn-r-0.out
   RUN_TYPE  BAND
 &END GLOBAL
 &MOTION
   &BAND
     NPROC_REP  64
     BAND_TYPE  CI-NEB
     NUMBER_OF_REPLICA  3
     K_SPRING     5.0000000000000003E-02
     &CI_NEB
       NSTEPS_IT  5
     &END CI_NEB
     &OPTIMIZE_BAND
       OPT_TYPE  DIIS
       &DIIS
         MAX_STEPS  1000
       &END DIIS
     &END OPTIMIZE_BAND
     &REPLICA
       &COORD
             0.0000000000000000E+00    0.0000000000000000E+00    0.0000000000000000E+00
             0.0000000000000000E+00    2.9550000000000027E+00    0.0000000000000000E+00
             0.0000000000000000E+00    5.9110000000000040E+00    0.0000000000000000E+00
             2.9560000000000031E+00    0.0000000000000000E+00    0.0000000000000000E+00
             2.9560000000000031E+00    2.9550000000000027E+00    0.0000000000000000E+00
             2.9560000000000031E+00    5.9110000000000040E+00    0.0000000000000000E+00
             5.9120000000000061E+00    0.0000000000000000E+00    0.0000000000000000E+00
             5.9120000000000061E+00    2.9550000000000027E+00    0.0000000000000000E+00
             5.9120000000000061E+00    5.9110000000000040E+00    0.0000000000000000E+00
             8.6700000000000070E+00    0.0000000000000000E+00    0.0000000000000000E+00
             8.6700000000000070E+00    2.9550000000000027E+00    0.0000000000000000E+00
             8.6700000000000070E+00    5.9110000000000040E+00    0.0000000000000000E+00
             1.1626000000000010E+01    0.0000000000000000E+00    0.0000000000000000E+00
             1.1626000000000010E+01    2.9550000000000027E+00    0.0000000000000000E+00
             1.1626000000000010E+01    5.9110000000000040E+00    0.0000000000000000E+00
             1.4780000000000015E+00    1.4780000000000015E+00    2.0900000000000025E+00
             1.4780000000000015E+00    4.4330000000000034E+00    2.0900000000000025E+00
             1.4780000000000015E+00    7.3890000000000100E+00    2.0900000000000025E+00
             4.4340000000000073E+00    1.4780000000000015E+00    2.0900000000000025E+00
             4.4340000000000073E+00    4.4330000000000034E+00    2.0900000000000025E+00
             4.4340000000000073E+00    7.3890000000000100E+00    2.0900000000000025E+00
             7.1920000000000064E+00    1.4780000000000015E+00    2.0900000000000025E+00
             7.1920000000000064E+00    4.4330000000000034E+00    2.0900000000000025E+00
             7.1920000000000064E+00    7.3890000000000100E+00    2.0900000000000025E+00
             1.0148000000000003E+01    1.4780000000000015E+00    2.0900000000000025E+00
             1.0148000000000003E+01    4.4330000000000034E+00    2.0900000000000025E+00
             1.0148000000000003E+01    7.3890000000000100E+00    2.0900000000000025E+00
             1.3104000000000010E+01    1.4780000000000015E+00    2.0900000000000025E+00
             1.3104000000000010E+01    4.4330000000000034E+00    2.0900000000000025E+00
             1.3104000000000010E+01    7.3890000000000100E+00    2.0900000000000025E+00
             0.0000000000000000E+00    0.0000000000000000E+00    4.1800000000000050E+00
             0.0000000000000000E+00    2.9550000000000027E+00    4.1800000000000050E+00
             0.0000000000000000E+00    5.9110000000000040E+00    4.1800000000000050E+00
             2.9560000000000031E+00    0.0000000000000000E+00    4.1800000000000050E+00
             2.9560000000000031E+00    2.9550000000000027E+00    4.1800000000000050E+00
             2.9560000000000031E+00    5.9110000000000040E+00    4.1800000000000050E+00
             5.9120000000000061E+00    0.0000000000000000E+00    4.1800000000000050E+00
             5.9120000000000061E+00    2.9550000000000027E+00    4.1800000000000050E+00
             5.9120000000000061E+00    5.9110000000000040E+00    4.1800000000000050E+00
             8.6700000000000070E+00    0.0000000000000000E+00    4.1800000000000050E+00
             8.6700000000000070E+00    2.9550000000000027E+00    4.1800000000000050E+00
             8.6700000000000070E+00    5.9110000000000040E+00    4.1800000000000050E+00
             1.1626000000000010E+01    0.0000000000000000E+00    4.1800000000000050E+00
             1.1626000000000010E+01    2.9550000000000027E+00    4.1800000000000050E+00
             1.1626000000000010E+01    5.9110000000000040E+00    4.1800000000000050E+00
             1.4780000000000015E+00    1.4780000000000015E+00    6.2700000000000058E+00
             1.4780000000000015E+00    4.4330000000000034E+00    6.2700000000000058E+00
             1.4780000000000015E+00    7.3890000000000100E+00    6.2700000000000058E+00
             4.4340000000000073E+00    1.4780000000000015E+00    6.2700000000000058E+00
             4.4340000000000073E+00    4.4330000000000034E+00    6.2700000000000058E+00
             4.4340000000000073E+00    7.3890000000000100E+00    6.2700000000000058E+00
             7.1920000000000064E+00    1.4780000000000015E+00    6.2700000000000058E+00
             7.1920000000000064E+00    4.4330000000000034E+00    6.2700000000000058E+00
             7.1920000000000064E+00    7.3890000000000100E+00    6.2700000000000058E+00
             1.0148000000000003E+01    1.4780000000000015E+00    6.2700000000000058E+00
             1.0148000000000003E+01    4.4330000000000034E+00    6.2700000000000058E+00
             1.0148000000000003E+01    7.3890000000000100E+00    6.2700000000000058E+00
             1.3104000000000010E+01    1.4780000000000015E+00    6.2700000000000058E+00
             1.3104000000000010E+01    4.4330000000000034E+00    6.2700000000000058E+00
             1.3104000000000010E+01    7.3890000000000100E+00    6.2700000000000058E+00
             0.0000000000000000E+00    0.0000000000000000E+00    8.3600000000000101E+00
             0.0000000000000000E+00    2.9550000000000027E+00    8.3600000000000101E+00
             0.0000000000000000E+00    5.9110000000000040E+00    8.3600000000000101E+00
             2.9560000000000031E+00    0.0000000000000000E+00    8.3600000000000101E+00
             2.9560000000000031E+00    2.9550000000000027E+00    8.3600000000000101E+00
             2.9560000000000031E+00    5.9110000000000040E+00    8.3600000000000101E+00
             5.9120000000000061E+00    0.0000000000000000E+00    8.3600000000000101E+00
             5.9120000000000061E+00    2.9550000000000027E+00    8.3600000000000101E+00
             5.9120000000000061E+00    5.9110000000000040E+00    8.3600000000000101E+00
             8.6700000000000070E+00    0.0000000000000000E+00    8.3600000000000101E+00
             8.6700000000000070E+00    2.9550000000000027E+00    8.3600000000000101E+00
             8.6700000000000070E+00    5.9110000000000040E+00    8.3600000000000101E+00
             1.1626000000000010E+01    0.0000000000000000E+00    8.3600000000000101E+00
             1.1626000000000010E+01    2.9550000000000027E+00    8.3600000000000101E+00
             1.1626000000000010E+01    5.9110000000000040E+00    8.3600000000000101E+00
             1.4780000000000015E+00    1.4780000000000015E+00    1.0449999999999999E+01
             1.4780000000000015E+00    4.4330000000000034E+00    1.0449999999999999E+01
             1.4780000000000015E+00    7.3890000000000100E+00    1.0449999999999999E+01
             4.4340000000000073E+00    1.4780000000000015E+00    1.0449999999999999E+01
             4.4340000000000073E+00    4.4330000000000034E+00    1.0449999999999999E+01
             4.4340000000000073E+00    7.3890000000000100E+00    1.0449999999999999E+01
             7.1920000000000064E+00    1.4780000000000015E+00    1.0449999999999999E+01
             7.1920000000000064E+00    4.4330000000000034E+00    1.0449999999999999E+01
             7.1920000000000064E+00    7.3890000000000100E+00    1.0449999999999999E+01
             1.0148000000000003E+01    1.4780000000000015E+00    1.0449999999999999E+01
             1.0148000000000003E+01    4.4330000000000034E+00    1.0449999999999999E+01
             1.0148000000000003E+01    7.3890000000000100E+00    1.0449999999999999E+01
             1.3104000000000010E+01    1.4780000000000015E+00    1.0449999999999999E+01
             1.3104000000000010E+01    4.4330000000000034E+00    1.0449999999999999E+01
             1.3104000000000010E+01    7.3890000000000100E+00    1.0449999999999999E+01
             4.8554000000000057E+00    5.9119000000000046E+00    1.2031800000000011E+01
             9.5280000000000182E+00    5.9137000000000040E+00    1.2034000000000017E+01
             7.1920000000000064E+00    5.9340000000000028E+00    1.2040000000000008E+01
             4.0673339928000019E+00    5.9059993220000075E+00    1.2687741368900003E+01
             1.0318905404800010E+01    5.9087793826000024E+00    1.2685747073200016E+01
             5.9989554222000052E+00    5.9152564166000028E+00    1.2792642411200010E+01
             8.3738707293000108E+00    5.9179777707000021E+00    1.2731457252200013E+01
             8.3227525762000099E+00    5.9051536095000010E+00    1.4080497642100017E+01
             5.9344285049000032E+00    5.8981604865000028E+00    1.4101749969600018E+01
             7.1039653577000079E+00    5.8899410689000051E+00    1.4828703219100008E+01
             7.2416021047000054E+00    5.8657702092000026E+00    1.6106466757300016E+01
             6.3118250323000042E+00    5.8547577071000045E+00    1.6539601306200016E+01
             9.1743570613000038E+00    5.8876302392000035E+00    1.4641017735300013E+01
             7.3120000000000056E+00    5.9340000000000028E+00    2.1043000000000013E+01
             5.8130000000000051E+00    7.4340000000000037E+00    2.2992000000000022E+01
             8.8130000000000024E+00    4.4340000000000073E+00    2.2992000000000022E+01
             5.8130000000000051E+00    4.4330000000000034E+00    2.2992000000000022E+01
             8.8130000000000024E+00    7.4340000000000037E+00    2.2992000000000022E+01
             1.4780000000000015E+00    1.4780000000000015E+00    2.5082000000000019E+01
             1.4780000000000015E+00    4.4330000000000034E+00    2.5082000000000019E+01
             1.4780000000000015E+00    7.3890000000000100E+00    2.5082000000000019E+01
             4.4340000000000073E+00    1.4780000000000015E+00    2.5082000000000019E+01
             4.4340000000000073E+00    4.4330000000000034E+00    2.5082000000000019E+01
             4.4340000000000073E+00    7.3890000000000100E+00    2.5082000000000019E+01
             7.1920000000000064E+00    1.4780000000000015E+00    2.5082000000000019E+01
             7.1920000000000064E+00    4.4330000000000034E+00    2.5082000000000019E+01
             7.1920000000000064E+00    7.3890000000000100E+00    2.5082000000000019E+01
             1.0148000000000003E+01    1.4780000000000015E+00    2.5082000000000019E+01
             1.0148000000000003E+01    4.4330000000000034E+00    2.5082000000000019E+01
             1.0148000000000003E+01    7.3890000000000100E+00    2.5082000000000019E+01
             1.3104000000000010E+01    1.4780000000000015E+00    2.5082000000000019E+01
             1.3104000000000010E+01    4.4330000000000034E+00    2.5082000000000019E+01
             1.3104000000000010E+01    7.3890000000000100E+00    2.5082000000000019E+01
             0.0000000000000000E+00    0.0000000000000000E+00    2.7172000000000036E+01
             0.0000000000000000E+00    2.9550000000000027E+00    2.7172000000000036E+01
             0.0000000000000000E+00    5.9110000000000040E+00    2.7172000000000036E+01
             2.9560000000000031E+00    0.0000000000000000E+00    2.7172000000000036E+01
             2.9560000000000031E+00    2.9550000000000027E+00    2.7172000000000036E+01
             2.9560000000000031E+00    5.9110000000000040E+00    2.7172000000000036E+01
             5.9120000000000061E+00    0.0000000000000000E+00    2.7172000000000036E+01
             5.9120000000000061E+00    2.9550000000000027E+00    2.7172000000000036E+01
             5.9120000000000061E+00    5.9110000000000040E+00    2.7172000000000036E+01
             8.6700000000000070E+00    0.0000000000000000E+00    2.7172000000000036E+01
             8.6700000000000070E+00    2.9550000000000027E+00    2.7172000000000036E+01
             8.6700000000000070E+00    5.9110000000000040E+00    2.7172000000000036E+01
             1.1626000000000010E+01    0.0000000000000000E+00    2.7172000000000036E+01
             1.1626000000000010E+01    2.9550000000000027E+00    2.7172000000000036E+01
             1.1626000000000010E+01    5.9110000000000040E+00    2.7172000000000036E+01
             1.4780000000000015E+00    1.4780000000000015E+00    2.9262000000000036E+01
             1.4780000000000015E+00    4.4330000000000034E+00    2.9262000000000036E+01
             1.4780000000000015E+00    7.3890000000000100E+00    2.9262000000000036E+01
             4.4340000000000073E+00    1.4780000000000015E+00    2.9262000000000036E+01
             4.4340000000000073E+00    4.4330000000000034E+00    2.9262000000000036E+01
             4.4340000000000073E+00    7.3890000000000100E+00    2.9262000000000036E+01
             7.1920000000000064E+00    1.4780000000000015E+00    2.9262000000000036E+01
             7.1920000000000064E+00    4.4330000000000034E+00    2.9262000000000036E+01
             7.1920000000000064E+00    7.3890000000000100E+00    2.9262000000000036E+01
             1.0148000000000003E+01    1.4780000000000015E+00    2.9262000000000036E+01
             1.0148000000000003E+01    4.4330000000000034E+00    2.9262000000000036E+01
             1.0148000000000003E+01    7.3890000000000100E+00    2.9262000000000036E+01
             1.3104000000000010E+01    1.4780000000000015E+00    2.9262000000000036E+01
             1.3104000000000010E+01    4.4330000000000034E+00    2.9262000000000036E+01
             1.3104000000000010E+01    7.3890000000000100E+00    2.9262000000000036E+01
             0.0000000000000000E+00    0.0000000000000000E+00    3.1352000000000018E+01
             0.0000000000000000E+00    2.9550000000000027E+00    3.1352000000000018E+01
             0.0000000000000000E+00    5.9110000000000040E+00    3.1352000000000018E+01
             2.9560000000000031E+00    0.0000000000000000E+00    3.1352000000000018E+01
             2.9560000000000031E+00    2.9550000000000027E+00    3.1352000000000018E+01
             2.9560000000000031E+00    5.9110000000000040E+00    3.1352000000000018E+01
             5.9120000000000061E+00    0.0000000000000000E+00    3.1352000000000018E+01
             5.9120000000000061E+00    2.9550000000000027E+00    3.1352000000000018E+01
             5.9120000000000061E+00    5.9110000000000040E+00    3.1352000000000018E+01
             8.6700000000000070E+00    0.0000000000000000E+00    3.1352000000000018E+01
             8.6700000000000070E+00    2.9550000000000027E+00    3.1352000000000018E+01
             8.6700000000000070E+00    5.9110000000000040E+00    3.1352000000000018E+01
             1.1626000000000010E+01    0.0000000000000000E+00    3.1352000000000018E+01
             1.1626000000000010E+01    2.9550000000000027E+00    3.1352000000000018E+01
             1.1626000000000010E+01    5.9110000000000040E+00    3.1352000000000018E+01
             1.4780000000000015E+00    1.4780000000000015E+00    3.3442000000000043E+01
             1.4780000000000015E+00    4.4330000000000034E+00    3.3442000000000043E+01
             1.4780000000000015E+00    7.3890000000000100E+00    3.3442000000000043E+01
             4.4340000000000073E+00    1.4780000000000015E+00    3.3442000000000043E+01
             4.4340000000000073E+00    4.4330000000000034E+00    3.3442000000000043E+01
             4.4340000000000073E+00    7.3890000000000100E+00    3.3442000000000043E+01
             7.1920000000000064E+00    1.4780000000000015E+00    3.3442000000000043E+01
             7.1920000000000064E+00    4.4330000000000034E+00    3.3442000000000043E+01
             7.1920000000000064E+00    7.3890000000000100E+00    3.3442000000000043E+01
             1.0148000000000003E+01    1.4780000000000015E+00    3.3442000000000043E+01
             1.0148000000000003E+01    4.4330000000000034E+00    3.3442000000000043E+01
             1.0148000000000003E+01    7.3890000000000100E+00    3.3442000000000043E+01
             1.3104000000000010E+01    1.4780000000000015E+00    3.3442000000000043E+01
             1.3104000000000010E+01    4.4330000000000034E+00    3.3442000000000043E+01
             1.3104000000000010E+01    7.3890000000000100E+00    3.3442000000000043E+01
       &END COORD
       &VELOCITY
             0.0000000000000000E+00    0.0000000000000000E+00    0.0000000000000000E+00
             0.0000000000000000E+00    0.0000000000000000E+00    0.0000000000000000E+00
             0.0000000000000000E+00    0.0000000000000000E+00    0.0000000000000000E+00
             0.0000000000000000E+00    0.0000000000000000E+00    0.0000000000000000E+00
             0.0000000000000000E+00    0.0000000000000000E+00    0.0000000000000000E+00
             0.0000000000000000E+00    0.0000000000000000E+00    0.0000000000000000E+00
             0.0000000000000000E+00    0.0000000000000000E+00    0.0000000000000000E+00
             0.0000000000000000E+00    0.0000000000000000E+00    0.0000000000000000E+00
             0.0000000000000000E+00    0.0000000000000000E+00    0.0000000000000000E+00
             0.0000000000000000E+00    0.0000000000000000E+00    0.0000000000000000E+00
             0.0000000000000000E+00    0.0000000000000000E+00    0.0000000000000000E+00
             0.0000000000000000E+00    0.0000000000000000E+00    0.0000000000000000E+00
             0.0000000000000000E+00    0.0000000000000000E+00    0.0000000000000000E+00
             0.0000000000000000E+00    0.0000000000000000E+00    0.0000000000000000E+00
             0.0000000000000000E+00    0.0000000000000000E+00    0.0000000000000000E+00
             0.0000000000000000E+00    0.0000000000000000E+00    0.0000000000000000E+00
             0.0000000000000000E+00    0.0000000000000000E+00    0.0000000000000000E+00
             0.0000000000000000E+00    0.0000000000000000E+00    0.0000000000000000E+00
             0.0000000000000000E+00    0.0000000000000000E+00    0.0000000000000000E+00
             0.0000000000000000E+00    0.0000000000000000E+00    0.0000000000000000E+00
             0.0000000000000000E+00    0.0000000000000000E+00    0.0000000000000000E+00
             0.0000000000000000E+00    0.0000000000000000E+00    0.0000000000000000E+00
             0.0000000000000000E+00    0.0000000000000000E+00    0.0000000000000000E+00
             0.0000000000000000E+00    0.0000000000000000E+00    0.0000000000000000E+00
             0.0000000000000000E+00    0.0000000000000000E+00    0.0000000000000000E+00
             0.0000000000000000E+00    0.0000000000000000E+00    0.0000000000000000E+00
             0.0000000000000000E+00    0.0000000000000000E+00    0.0000000000000000E+00
             0.0000000000000000E+00    0.0000000000000000E+00    0.0000000000000000E+00
             0.0000000000000000E+00    0.0000000000000000E+00    0.0000000000000000E+00
             0.0000000000000000E+00    0.0000000000000000E+00    0.0000000000000000E+00
             0.0000000000000000E+00    0.0000000000000000E+00    0.0000000000000000E+00
             0.0000000000000000E+00    0.0000000000000000E+00    0.0000000000000000E+00
             0.0000000000000000E+00    0.0000000000000000E+00    0.0000000000000000E+00
             0.0000000000000000E+00    0.0000000000000000E+00    0.0000000000000000E+00
             0.0000000000000000E+00    0.0000000000000000E+00    0.0000000000000000E+00
             0.0000000000000000E+00    0.0000000000000000E+00    0.0000000000000000E+00
             0.0000000000000000E+00    0.0000000000000000E+00    0.0000000000000000E+00
             0.0000000000000000E+00    0.0000000000000000E+00    0.0000000000000000E+00
             0.0000000000000000E+00    0.0000000000000000E+00    0.0000000000000000E+00
             0.0000000000000000E+00    0.0000000000000000E+00    0.0000000000000000E+00
             0.0000000000000000E+00    0.0000000000000000E+00    0.0000000000000000E+00
             0.0000000000000000E+00    0.0000000000000000E+00    0.0000000000000000E+00
             0.0000000000000000E+00    0.0000000000000000E+00    0.0000000000000000E+00
             0.0000000000000000E+00    0.0000000000000000E+00    0.0000000000000000E+00
             0.0000000000000000E+00    0.0000000000000000E+00    0.0000000000000000E+00
             0.0000000000000000E+00    0.0000000000000000E+00    0.0000000000000000E+00
             0.0000000000000000E+00    0.0000000000000000E+00    0.0000000000000000E+00
             0.0000000000000000E+00    0.0000000000000000E+00    0.0000000000000000E+00
             0.0000000000000000E+00    0.0000000000000000E+00    0.0000000000000000E+00
             0.0000000000000000E+00    0.0000000000000000E+00    0.0000000000000000E+00
             0.0000000000000000E+00    0.0000000000000000E+00    0.0000000000000000E+00
             0.0000000000000000E+00    0.0000000000000000E+00    0.0000000000000000E+00
             0.0000000000000000E+00    0.0000000000000000E+00    0.0000000000000000E+00
             0.0000000000000000E+00    0.0000000000000000E+00    0.0000000000000000E+00
             0.0000000000000000E+00    0.0000000000000000E+00    0.0000000000000000E+00
             0.0000000000000000E+00    0.0000000000000000E+00    0.0000000000000000E+00
             0.0000000000000000E+00    0.0000000000000000E+00    0.0000000000000000E+00
             0.0000000000000000E+00    0.0000000000000000E+00    0.0000000000000000E+00
             0.0000000000000000E+00    0.0000000000000000E+00    0.0000000000000000E+00
             0.0000000000000000E+00    0.0000000000000000E+00    0.0000000000000000E+00
             0.0000000000000000E+00    0.0000000000000000E+00    0.0000000000000000E+00
             0.0000000000000000E+00    0.0000000000000000E+00    0.0000000000000000E+00
             0.0000000000000000E+00    0.0000000000000000E+00    0.0000000000000000E+00
             0.0000000000000000E+00    0.0000000000000000E+00    0.0000000000000000E+00
             0.0000000000000000E+00    0.0000000000000000E+00    0.0000000000000000E+00
             0.0000000000000000E+00    0.0000000000000000E+00    0.0000000000000000E+00
             0.0000000000000000E+00    0.0000000000000000E+00    0.0000000000000000E+00
             0.0000000000000000E+00    0.0000000000000000E+00    0.0000000000000000E+00
             0.0000000000000000E+00    0.0000000000000000E+00    0.0000000000000000E+00
             0.0000000000000000E+00    0.0000000000000000E+00    0.0000000000000000E+00
             0.0000000000000000E+00    0.0000000000000000E+00    0.0000000000000000E+00
             0.0000000000000000E+00    0.0000000000000000E+00    0.0000000000000000E+00
             0.0000000000000000E+00    0.0000000000000000E+00    0.0000000000000000E+00
             0.0000000000000000E+00    0.0000000000000000E+00    0.0000000000000000E+00
             0.0000000000000000E+00    0.0000000000000000E+00    0.0000000000000000E+00
             0.0000000000000000E+00    0.0000000000000000E+00    0.0000000000000000E+00
             0.0000000000000000E+00    0.0000000000000000E+00    0.0000000000000000E+00
             0.0000000000000000E+00    0.0000000000000000E+00    0.0000000000000000E+00
             0.0000000000000000E+00    0.0000000000000000E+00    0.0000000000000000E+00
             0.0000000000000000E+00    0.0000000000000000E+00    0.0000000000000000E+00
             0.0000000000000000E+00    0.0000000000000000E+00    0.0000000000000000E+00
             0.0000000000000000E+00    0.0000000000000000E+00    0.0000000000000000E+00
             0.0000000000000000E+00    0.0000000000000000E+00    0.0000000000000000E+00
             0.0000000000000000E+00    0.0000000000000000E+00    0.0000000000000000E+00
             0.0000000000000000E+00    0.0000000000000000E+00    0.0000000000000000E+00
             0.0000000000000000E+00    0.0000000000000000E+00    0.0000000000000000E+00
             0.0000000000000000E+00    0.0000000000000000E+00    0.0000000000000000E+00
             0.0000000000000000E+00    0.0000000000000000E+00    0.0000000000000000E+00
             0.0000000000000000E+00    0.0000000000000000E+00    0.0000000000000000E+00
             0.0000000000000000E+00    0.0000000000000000E+00    0.0000000000000000E+00
             0.0000000000000000E+00    0.0000000000000000E+00    0.0000000000000000E+00
             0.0000000000000000E+00    0.0000000000000000E+00    0.0000000000000000E+00
             0.0000000000000000E+00    0.0000000000000000E+00    0.0000000000000000E+00
             0.0000000000000000E+00    0.0000000000000000E+00    0.0000000000000000E+00
             0.0000000000000000E+00    0.0000000000000000E+00    0.0000000000000000E+00
             0.0000000000000000E+00    0.0000000000000000E+00    0.0000000000000000E+00
             0.0000000000000000E+00    0.0000000000000000E+00    0.0000000000000000E+00
             0.0000000000000000E+00    0.0000000000000000E+00    0.0000000000000000E+00
             0.0000000000000000E+00    0.0000000000000000E+00    0.0000000000000000E+00
             0.0000000000000000E+00    0.0000000000000000E+00    0.0000000000000000E+00
             0.0000000000000000E+00    0.0000000000000000E+00    0.0000000000000000E+00
             0.0000000000000000E+00    0.0000000000000000E+00    0.0000000000000000E+00
             0.0000000000000000E+00    0.0000000000000000E+00    0.0000000000000000E+00
             0.0000000000000000E+00    0.0000000000000000E+00    0.0000000000000000E+00
             0.0000000000000000E+00    0.0000000000000000E+00    0.0000000000000000E+00
             0.0000000000000000E+00    0.0000000000000000E+00    0.0000000000000000E+00
             0.0000000000000000E+00    0.0000000000000000E+00    0.0000000000000000E+00
             0.0000000000000000E+00    0.0000000000000000E+00    0.0000000000000000E+00
             0.0000000000000000E+00    0.0000000000000000E+00    0.0000000000000000E+00
             0.0000000000000000E+00    0.0000000000000000E+00    0.0000000000000000E+00
             0.0000000000000000E+00    0.0000000000000000E+00    0.0000000000000000E+00
             0.0000000000000000E+00    0.0000000000000000E+00    0.0000000000000000E+00
             0.0000000000000000E+00    0.0000000000000000E+00    0.0000000000000000E+00
             0.0000000000000000E+00    0.0000000000000000E+00    0.0000000000000000E+00
             0.0000000000000000E+00    0.0000000000000000E+00    0.0000000000000000E+00
             0.0000000000000000E+00    0.0000000000000000E+00    0.0000000000000000E+00
             0.0000000000000000E+00    0.0000000000000000E+00    0.0000000000000000E+00
             0.0000000000000000E+00    0.0000000000000000E+00    0.0000000000000000E+00
             0.0000000000000000E+00    0.0000000000000000E+00    0.0000000000000000E+00
             0.0000000000000000E+00    0.0000000000000000E+00    0.0000000000000000E+00
             0.0000000000000000E+00    0.0000000000000000E+00    0.0000000000000000E+00
             0.0000000000000000E+00    0.0000000000000000E+00    0.0000000000000000E+00
             0.0000000000000000E+00    0.0000000000000000E+00    0.0000000000000000E+00
             0.0000000000000000E+00    0.0000000000000000E+00    0.0000000000000000E+00
             0.0000000000000000E+00    0.0000000000000000E+00    0.0000000000000000E+00
             0.0000000000000000E+00    0.0000000000000000E+00    0.0000000000000000E+00
             0.0000000000000000E+00    0.0000000000000000E+00    0.0000000000000000E+00
             0.0000000000000000E+00    0.0000000000000000E+00    0.0000000000000000E+00
             0.0000000000000000E+00    0.0000000000000000E+00    0.0000000000000000E+00
             0.0000000000000000E+00    0.0000000000000000E+00    0.0000000000000000E+00
             0.0000000000000000E+00    0.0000000000000000E+00    0.0000000000000000E+00
             0.0000000000000000E+00    0.0000000000000000E+00    0.0000000000000000E+00
             0.0000000000000000E+00    0.0000000000000000E+00    0.0000000000000000E+00
             0.0000000000000000E+00    0.0000000000000000E+00    0.0000000000000000E+00
             0.0000000000000000E+00    0.0000000000000000E+00    0.0000000000000000E+00
             0.0000000000000000E+00    0.0000000000000000E+00    0.0000000000000000E+00
             0.0000000000000000E+00    0.0000000000000000E+00    0.0000000000000000E+00
             0.0000000000000000E+00    0.0000000000000000E+00    0.0000000000000000E+00
             0.0000000000000000E+00    0.0000000000000000E+00    0.0000000000000000E+00
             0.0000000000000000E+00    0.0000000000000000E+00    0.0000000000000000E+00
             0.0000000000000000E+00    0.0000000000000000E+00    0.0000000000000000E+00
             0.0000000000000000E+00    0.0000000000000000E+00    0.0000000000000000E+00
             0.0000000000000000E+00    0.0000000000000000E+00    0.0000000000000000E+00
             0.0000000000000000E+00    0.0000000000000000E+00    0.0000000000000000E+00
             0.0000000000000000E+00    0.0000000000000000E+00    0.0000000000000000E+00