 # Version information for this restart file 
 # current date 2024-01-13 07:16:19.257
 # current working dir /gpfs/home/cahart/transport/melamine/au_from-h2/ci-neb/ts2-fixed/dft_leads-sz_tip-dzvp_surf-dzvp_kpoints-2-4-20_replicas-3
 # Program compiled at                              Thu 21 Sep 19:20:17 BST 2023
 # Program compiled on                                           hx1-c12-login-1
 # Program compiled for                                                    local
 # Source code revision number                                       git:5518aa6
 &GLOBAL
   EXTENDED_FFT_LENGTHS  T
   PRINT_LEVEL  MEDIUM
   PROJECT_NAME 2_dft_wfn-r-0
   OUTPUT_FILE_NAME 2_dft_wfn-r-0.out
   RUN_TYPE  BAND
 &END GLOBAL
 &MOTION
   &BAND
     NPROC_REP  64
     BAND_TYPE  CI-NEB
     NUMBER_OF_REPLICA  3
     K_SPRING     5.0000000000000003E-02
     &CI_NEB
       NSTEPS_IT  5
     &END CI_NEB
     &OPTIMIZE_BAND
       OPT_TYPE  DIIS
       &DIIS
         MAX_STEPS  1000
       &END DIIS
     &END OPTIMIZE_BAND
     &REPLICA
       &COORD
             0.0000000000000000E+00    0.0000000000000000E+00    0.0000000000000000E+00
             0.0000000000000000E+00    2.9549999999999947E+00    0.0000000000000000E+00
             0.0000000000000000E+00    5.9109999999999943E+00    0.0000000000000000E+00
             2.9559999999999973E+00    0.0000000000000000E+00    0.0000000000000000E+00
             2.9559999999999973E+00    2.9549999999999947E+00    0.0000000000000000E+00
             2.9559999999999973E+00    5.9109999999999943E+00    0.0000000000000000E+00
             5.9119999999999946E+00    0.0000000000000000E+00    0.0000000000000000E+00
             5.9119999999999946E+00    2.9549999999999947E+00    0.0000000000000000E+00
             5.9119999999999946E+00    5.9109999999999943E+00    0.0000000000000000E+00
             8.6699999999999946E+00    0.0000000000000000E+00    0.0000000000000000E+00
             8.6699999999999946E+00    2.9549999999999947E+00    0.0000000000000000E+00
             8.6699999999999946E+00    5.9109999999999943E+00    0.0000000000000000E+00
             1.1625999999999982E+01    0.0000000000000000E+00    0.0000000000000000E+00
             1.1625999999999982E+01    2.9549999999999947E+00    0.0000000000000000E+00
             1.1625999999999982E+01    5.9109999999999943E+00    0.0000000000000000E+00
             1.4779999999999986E+00    1.4779999999999986E+00    2.0899999999999967E+00
             1.4779999999999986E+00    4.4329999999999918E+00    2.0899999999999967E+00
             1.4779999999999986E+00    7.3889999999999949E+00    2.0899999999999967E+00
             4.4339999999999993E+00    1.4779999999999986E+00    2.0899999999999967E+00
             4.4339999999999993E+00    4.4329999999999918E+00    2.0899999999999967E+00
             4.4339999999999993E+00    7.3889999999999949E+00    2.0899999999999967E+00
             7.1919999999999851E+00    1.4779999999999986E+00    2.0899999999999967E+00
             7.1919999999999851E+00    4.4329999999999918E+00    2.0899999999999967E+00
             7.1919999999999851E+00    7.3889999999999949E+00    2.0899999999999967E+00
             1.0147999999999987E+01    1.4779999999999986E+00    2.0899999999999967E+00
             1.0147999999999987E+01    4.4329999999999918E+00    2.0899999999999967E+00
             1.0147999999999987E+01    7.3889999999999949E+00    2.0899999999999967E+00
             1.3103999999999994E+01    1.4779999999999986E+00    2.0899999999999967E+00
             1.3103999999999994E+01    4.4329999999999918E+00    2.0899999999999967E+00
             1.3103999999999994E+01    7.3889999999999949E+00    2.0899999999999967E+00
             0.0000000000000000E+00    0.0000000000000000E+00    4.1799999999999935E+00
             0.0000000000000000E+00    2.9549999999999947E+00    4.1799999999999935E+00
             0.0000000000000000E+00    5.9109999999999943E+00    4.1799999999999935E+00
             2.9559999999999973E+00    0.0000000000000000E+00    4.1799999999999935E+00
             2.9559999999999973E+00    2.9549999999999947E+00    4.1799999999999935E+00
             2.9559999999999973E+00    5.9109999999999943E+00    4.1799999999999935E+00
             5.9119999999999946E+00    0.0000000000000000E+00    4.1799999999999935E+00
             5.9119999999999946E+00    2.9549999999999947E+00    4.1799999999999935E+00
             5.9119999999999946E+00    5.9109999999999943E+00    4.1799999999999935E+00
             8.6699999999999946E+00    0.0000000000000000E+00    4.1799999999999935E+00
             8.6699999999999946E+00    2.9549999999999947E+00    4.1799999999999935E+00
             8.6699999999999946E+00    5.9109999999999943E+00    4.1799999999999935E+00
             1.1625999999999982E+01    0.0000000000000000E+00    4.1799999999999935E+00
             1.1625999999999982E+01    2.9549999999999947E+00    4.1799999999999935E+00
             1.1625999999999982E+01    5.9109999999999943E+00    4.1799999999999935E+00
             1.4779999999999986E+00    1.4779999999999986E+00    6.2699999999999907E+00
             1.4779999999999986E+00    4.4329999999999918E+00    6.2699999999999907E+00
             1.4779999999999986E+00    7.3889999999999949E+00    6.2699999999999907E+00
             4.4339999999999993E+00    1.4779999999999986E+00    6.2699999999999907E+00
             4.4339999999999993E+00    4.4329999999999918E+00    6.2699999999999907E+00
             4.4339999999999993E+00    7.3889999999999949E+00    6.2699999999999907E+00
             7.1919999999999851E+00    1.4779999999999986E+00    6.2699999999999907E+00
             7.1919999999999851E+00    4.4329999999999918E+00    6.2699999999999907E+00
             7.1919999999999851E+00    7.3889999999999949E+00    6.2699999999999907E+00
             1.0147999999999987E+01    1.4779999999999986E+00    6.2699999999999907E+00
             1.0147999999999987E+01    4.4329999999999918E+00    6.2699999999999907E+00
             1.0147999999999987E+01    7.3889999999999949E+00    6.2699999999999907E+00
             1.3103999999999994E+01    1.4779999999999986E+00    6.2699999999999907E+00
             1.3103999999999994E+01    4.4329999999999918E+00    6.2699999999999907E+00
             1.3103999999999994E+01    7.3889999999999949E+00    6.2699999999999907E+00
             0.0000000000000000E+00    0.0000000000000000E+00    8.3599999999999870E+00
             0.0000000000000000E+00    2.9549999999999947E+00    8.3599999999999870E+00
             0.0000000000000000E+00    5.9109999999999943E+00    8.3599999999999870E+00
             2.9559999999999973E+00    0.0000000000000000E+00    8.3599999999999870E+00
             2.9559999999999973E+00    2.9549999999999947E+00    8.3599999999999870E+00
             2.9559999999999973E+00    5.9109999999999943E+00    8.3599999999999870E+00
             5.9119999999999946E+00    0.0000000000000000E+00    8.3599999999999870E+00
             5.9119999999999946E+00    2.9549999999999947E+00    8.3599999999999870E+00
             5.9119999999999946E+00    5.9109999999999943E+00    8.3599999999999870E+00
             8.6699999999999946E+00    0.0000000000000000E+00    8.3599999999999870E+00
             8.6699999999999946E+00    2.9549999999999947E+00    8.3599999999999870E+00
             8.6699999999999946E+00    5.9109999999999943E+00    8.3599999999999870E+00
             1.1625999999999982E+01    0.0000000000000000E+00    8.3599999999999870E+00
             1.1625999999999982E+01    2.9549999999999947E+00    8.3599999999999870E+00
             1.1625999999999982E+01    5.9109999999999943E+00    8.3599999999999870E+00
             1.4779999999999986E+00    1.4779999999999986E+00    1.0449999999999978E+01
             1.4779999999999986E+00    4.4329999999999918E+00    1.0449999999999978E+01
             1.4779999999999986E+00    7.3889999999999949E+00    1.0449999999999978E+01
             4.4339999999999993E+00    1.4779999999999986E+00    1.0449999999999978E+01
             4.4339999999999993E+00    4.4329999999999918E+00    1.0449999999999978E+01
             4.4339999999999993E+00    7.3889999999999949E+00    1.0449999999999978E+01
             7.1919999999999851E+00    1.4779999999999986E+00    1.0449999999999978E+01
             7.1919999999999851E+00    4.4329999999999918E+00    1.0449999999999978E+01
             7.1919999999999851E+00    7.3889999999999949E+00    1.0449999999999978E+01
             1.0147999999999987E+01    1.4779999999999986E+00    1.0449999999999978E+01
             1.0147999999999987E+01    4.4329999999999918E+00    1.0449999999999978E+01
             1.0147999999999987E+01    7.3889999999999949E+00    1.0449999999999978E+01
             1.3103999999999994E+01    1.4779999999999986E+00    1.0449999999999978E+01
             1.3103999999999994E+01    4.4329999999999918E+00    1.0449999999999978E+01
             1.3103999999999994E+01    7.3889999999999949E+00    1.0449999999999978E+01
             4.8553999999999968E+00    5.9118999999999948E+00    1.2031799999999988E+01
             9.5279999999999951E+00    5.9136999999999960E+00    1.2034000000000001E+01
             7.1919999999999851E+00    5.9339999999999966E+00    1.2039999999999978E+01
             4.0673339927999947E+00    5.9059993220000031E+00    1.2687741368899969E+01
             1.0318905404799983E+01    5.9087793825999908E+00    1.2685747073199993E+01
             5.9989554221999990E+00    5.9152564165999904E+00    1.2792642411199980E+01
             8.3738707292999877E+00    5.9179777706999905E+00    1.2731457252199988E+01
             8.3227525761999974E+00    5.9051536094999939E+00    1.4080497642099994E+01
             5.9344285048999925E+00    5.8981604864999948E+00    1.4101749969599997E+01
             7.1039653576999884E+00    5.8899410688999971E+00    1.4828703219099969E+01
             7.2416021047000001E+00    5.8657702091999866E+00    1.6106466757299984E+01
             6.3118250322999909E+00    5.8547577070999859E+00    1.6539601306199987E+01
             9.1743570612999861E+00    5.8876302391999866E+00    1.4641017735299977E+01
             7.3119999999999914E+00    5.9339999999999966E+00    2.1042999999999999E+01
             5.8129999999999908E+00    7.4339999999999860E+00    2.2991999999999969E+01
             8.8129999999999811E+00    4.4339999999999993E+00    2.2991999999999969E+01
             5.8129999999999908E+00    4.4329999999999918E+00    2.2991999999999969E+01
             8.8129999999999811E+00    7.4339999999999860E+00    2.2991999999999969E+01
             1.4779999999999986E+00    1.4779999999999986E+00    2.5081999999999990E+01
             1.4779999999999986E+00    4.4329999999999918E+00    2.5081999999999990E+01
             1.4779999999999986E+00    7.3889999999999949E+00    2.5081999999999990E+01
             4.4339999999999993E+00    1.4779999999999986E+00    2.5081999999999990E+01
             4.4339999999999993E+00    4.4329999999999918E+00    2.5081999999999990E+01
             4.4339999999999993E+00    7.3889999999999949E+00    2.5081999999999990E+01
             7.1919999999999851E+00    1.4779999999999986E+00    2.5081999999999990E+01
             7.1919999999999851E+00    4.4329999999999918E+00    2.5081999999999990E+01
             7.1919999999999851E+00    7.3889999999999949E+00    2.5081999999999990E+01
             1.0147999999999987E+01    1.4779999999999986E+00    2.5081999999999990E+01
             1.0147999999999987E+01    4.4329999999999918E+00    2.5081999999999990E+01
             1.0147999999999987E+01    7.3889999999999949E+00    2.5081999999999990E+01
             1.3103999999999994E+01    1.4779999999999986E+00    2.5081999999999990E+01
             1.3103999999999994E+01    4.4329999999999918E+00    2.5081999999999990E+01
             1.3103999999999994E+01    7.3889999999999949E+00    2.5081999999999990E+01
             0.0000000000000000E+00    0.0000000000000000E+00    2.7171999999999993E+01
             0.0000000000000000E+00    2.9549999999999947E+00    2.7171999999999993E+01
             0.0000000000000000E+00    5.9109999999999943E+00    2.7171999999999993E+01
             2.9559999999999973E+00    0.0000000000000000E+00    2.7171999999999993E+01
             2.9559999999999973E+00    2.9549999999999947E+00    2.7171999999999993E+01
             2.9559999999999973E+00    5.9109999999999943E+00    2.7171999999999993E+01
             5.9119999999999946E+00    0.0000000000000000E+00    2.7171999999999993E+01
             5.9119999999999946E+00    2.9549999999999947E+00    2.7171999999999993E+01
             5.9119999999999946E+00    5.9109999999999943E+00    2.7171999999999993E+01
             8.6699999999999946E+00    0.0000000000000000E+00    2.7171999999999993E+01
             8.6699999999999946E+00    2.9549999999999947E+00    2.7171999999999993E+01
             8.6699999999999946E+00    5.9109999999999943E+00    2.7171999999999993E+01
             1.1625999999999982E+01    0.0000000000000000E+00    2.7171999999999993E+01
             1.1625999999999982E+01    2.9549999999999947E+00    2.7171999999999993E+01
             1.1625999999999982E+01    5.9109999999999943E+00    2.7171999999999993E+01
             1.4779999999999986E+00    1.4779999999999986E+00    2.9262000000000004E+01
             1.4779999999999986E+00    4.4329999999999918E+00    2.9262000000000004E+01
             1.4779999999999986E+00    7.3889999999999949E+00    2.9262000000000004E+01
             4.4339999999999993E+00    1.4779999999999986E+00    2.9262000000000004E+01
             4.4339999999999993E+00    4.4329999999999918E+00    2.9262000000000004E+01
             4.4339999999999993E+00    7.3889999999999949E+00    2.9262000000000004E+01
             7.1919999999999851E+00    1.4779999999999986E+00    2.9262000000000004E+01
             7.1919999999999851E+00    4.4329999999999918E+00    2.9262000000000004E+01
             7.1919999999999851E+00    7.3889999999999949E+00    2.9262000000000004E+01
             1.0147999999999987E+01    1.4779999999999986E+00    2.9262000000000004E+01
             1.0147999999999987E+01    4.4329999999999918E+00    2.9262000000000004E+01
             1.0147999999999987E+01    7.3889999999999949E+00    2.9262000000000004E+01
             1.3103999999999994E+01    1.4779999999999986E+00    2.9262000000000004E+01
             1.3103999999999994E+01    4.4329999999999918E+00    2.9262000000000004E+01
             1.3103999999999994E+01    7.3889999999999949E+00    2.9262000000000004E+01
             0.0000000000000000E+00    0.0000000000000000E+00    3.1351999999999947E+01
             0.0000000000000000E+00    2.9549999999999947E+00    3.1351999999999947E+01
             0.0000000000000000E+00    5.9109999999999943E+00    3.1351999999999947E+01
             2.9559999999999973E+00    0.0000000000000000E+00    3.1351999999999947E+01
             2.9559999999999973E+00    2.9549999999999947E+00    3.1351999999999947E+01
             2.9559999999999973E+00    5.9109999999999943E+00    3.1351999999999947E+01
             5.9119999999999946E+00    0.0000000000000000E+00    3.1351999999999947E+01
             5.9119999999999946E+00    2.9549999999999947E+00    3.1351999999999947E+01
             5.9119999999999946E+00    5.9109999999999943E+00    3.1351999999999947E+01
             8.6699999999999946E+00    0.0000000000000000E+00    3.1351999999999947E+01
             8.6699999999999946E+00    2.9549999999999947E+00    3.1351999999999947E+01
             8.6699999999999946E+00    5.9109999999999943E+00    3.1351999999999947E+01
             1.1625999999999982E+01    0.0000000000000000E+00    3.1351999999999947E+01
             1.1625999999999982E+01    2.9549999999999947E+00    3.1351999999999947E+01
             1.1625999999999982E+01    5.9109999999999943E+00    3.1351999999999947E+01
             1.4779999999999986E+00    1.4779999999999986E+00    3.3442000000000000E+01
             1.4779999999999986E+00    4.4329999999999918E+00    3.3442000000000000E+01
             1.4779999999999986E+00    7.3889999999999949E+00    3.3442000000000000E+01
             4.4339999999999993E+00    1.4779999999999986E+00    3.3442000000000000E+01
             4.4339999999999993E+00    4.4329999999999918E+00    3.3442000000000000E+01
             4.4339999999999993E+00    7.3889999999999949E+00    3.3442000000000000E+01
             7.1919999999999851E+00    1.4779999999999986E+00    3.3442000000000000E+01
             7.1919999999999851E+00    4.4329999999999918E+00    3.3442000000000000E+01
             7.1919999999999851E+00    7.3889999999999949E+00    3.3442000000000000E+01
             1.0147999999999987E+01    1.4779999999999986E+00    3.3442000000000000E+01
             1.0147999999999987E+01    4.4329999999999918E+00    3.3442000000000000E+01
             1.0147999999999987E+01    7.3889999999999949E+00    3.3442000000000000E+01
             1.3103999999999994E+01    1.4779999999999986E+00    3.3442000000000000E+01
             1.3103999999999994E+01    4.4329999999999918E+00    3.3442000000000000E+01
             1.3103999999999994E+01    7.3889999999999949E+00    3.3442000000000000E+01
       &END COORD
       &VELOCITY
             0.0000000000000000E+00    0.0000000000000000E+00    0.0000000000000000E+00
             0.0000000000000000E+00    0.0000000000000000E+00    0.0000000000000000E+00
             0.0000000000000000E+00    0.0000000000000000E+00    0.0000000000000000E+00
             0.0000000000000000E+00    0.0000000000000000E+00    0.0000000000000000E+00
             0.0000000000000000E+00    0.0000000000000000E+00    0.0000000000000000E+00
             0.0000000000000000E+00    0.0000000000000000E+00    0.0000000000000000E+00
             0.0000000000000000E+00    0.0000000000000000E+00    0.0000000000000000E+00
             0.0000000000000000E+00    0.0000000000000000E+00    0.0000000000000000E+00
             0.0000000000000000E+00    0.0000000000000000E+00    0.0000000000000000E+00
             0.0000000000000000E+00    0.0000000000000000E+00    0.0000000000000000E+00
             0.0000000000000000E+00    0.0000000000000000E+00    0.0000000000000000E+00
             0.0000000000000000E+00    0.0000000000000000E+00    0.0000000000000000E+00
             0.0000000000000000E+00    0.0000000000000000E+00    0.0000000000000000E+00
             0.0000000000000000E+00    0.0000000000000000E+00    0.0000000000000000E+00
             0.0000000000000000E+00    0.0000000000000000E+00    0.0000000000000000E+00
             0.0000000000000000E+00    0.0000000000000000E+00    0.0000000000000000E+00
             0.0000000000000000E+00    0.0000000000000000E+00    0.0000000000000000E+00
             0.0000000000000000E+00    0.0000000000000000E+00    0.0000000000000000E+00
             0.0000000000000000E+00    0.0000000000000000E+00    0.0000000000000000E+00
             0.0000000000000000E+00    0.0000000000000000E+00    0.0000000000000000E+00
             0.0000000000000000E+00    0.0000000000000000E+00    0.0000000000000000E+00
             0.0000000000000000E+00    0.0000000000000000E+00    0.0000000000000000E+00
             0.0000000000000000E+00    0.0000000000000000E+00    0.0000000000000000E+00
             0.0000000000000000E+00    0.0000000000000000E+00    0.0000000000000000E+00
             0.0000000000000000E+00    0.0000000000000000E+00    0.0000000000000000E+00
             0.0000000000000000E+00    0.0000000000000000E+00    0.0000000000000000E+00
             0.0000000000000000E+00    0.0000000000000000E+00    0.0000000000000000E+00
             0.0000000000000000E+00    0.0000000000000000E+00    0.0000000000000000E+00
             0.0000000000000000E+00    0.0000000000000000E+00    0.0000000000000000E+00
             0.0000000000000000E+00    0.0000000000000000E+00    0.0000000000000000E+00
             0.0000000000000000E+00    0.0000000000000000E+00    0.0000000000000000E+00
             0.0000000000000000E+00    0.0000000000000000E+00    0.0000000000000000E+00
             0.0000000000000000E+00    0.0000000000000000E+00    0.0000000000000000E+00
             0.0000000000000000E+00    0.0000000000000000E+00    0.0000000000000000E+00
             0.0000000000000000E+00    0.0000000000000000E+00    0.0000000000000000E+00
             0.0000000000000000E+00    0.0000000000000000E+00    0.0000000000000000E+00
             0.0000000000000000E+00    0.0000000000000000E+00    0.0000000000000000E+00
             0.0000000000000000E+00    0.0000000000000000E+00    0.0000000000000000E+00
             0.0000000000000000E+00    0.0000000000000000E+00    0.0000000000000000E+00
             0.0000000000000000E+00    0.0000000000000000E+00    0.0000000000000000E+00
             0.0000000000000000E+00    0.0000000000000000E+00    0.0000000000000000E+00
             0.0000000000000000E+00    0.0000000000000000E+00    0.0000000000000000E+00
             0.0000000000000000E+00    0.0000000000000000E+00    0.0000000000000000E+00
             0.0000000000000000E+00    0.0000000000000000E+00    0.0000000000000000E+00
             0.0000000000000000E+00    0.0000000000000000E+00    0.0000000000000000E+00
             0.0000000000000000E+00    0.0000000000000000E+00    0.0000000000000000E+00
             0.0000000000000000E+00    0.0000000000000000E+00    0.0000000000000000E+00
             0.0000000000000000E+00    0.0000000000000000E+00    0.0000000000000000E+00
             0.0000000000000000E+00    0.0000000000000000E+00    0.0000000000000000E+00
             0.0000000000000000E+00    0.0000000000000000E+00    0.0000000000000000E+00
             0.0000000000000000E+00    0.0000000000000000E+00    0.0000000000000000E+00
             0.0000000000000000E+00    0.0000000000000000E+00    0.0000000000000000E+00
             0.0000000000000000E+00    0.0000000000000000E+00    0.0000000000000000E+00
             0.0000000000000000E+00    0.0000000000000000E+00    0.0000000000000000E+00
             0.0000000000000000E+00    0.0000000000000000E+00    0.0000000000000000E+00
             0.0000000000000000E+00    0.0000000000000000E+00    0.0000000000000000E+00
             0.0000000000000000E+00    0.0000000000000000E+00    0.0000000000000000E+00
             0.0000000000000000E+00    0.0000000000000000E+00    0.0000000000000000E+00
             0.0000000000000000E+00    0.0000000000000000E+00    0.0000000000000000E+00
             0.0000000000000000E+00    0.0000000000000000E+00    0.0000000000000000E+00
             0.0000000000000000E+00    0.0000000000000000E+00    0.0000000000000000E+00
             0.0000000000000000E+00    0.0000000000000000E+00    0.0000000000000000E+00
             0.0000000000000000E+00    0.0000000000000000E+00    0.0000000000000000E+00
             0.0000000000000000E+00    0.0000000000000000E+00    0.0000000000000000E+00
             0.0000000000000000E+00    0.0000000000000000E+00    0.0000000000000000E+00
             0.0000000000000000E+00    0.0000000000000000E+00    0.0000000000000000E+00
             0.0000000000000000E+00    0.0000000000000000E+00    0.0000000000000000E+00
             0.0000000000000000E+00    0.0000000000000000E+00    0.0000000000000000E+00
             0.0000000000000000E+00    0.0000000000000000E+00    0.0000000000000000E+00
             0.0000000000000000E+00    0.0000000000000000E+00    0.0000000000000000E+00
             0.0000000000000000E+00    0.0000000000000000E+00    0.0000000000000000E+00
             0.0000000000000000E+00    0.0000000000000000E+00    0.0000000000000000E+00
             0.0000000000000000E+00    0.0000000000000000E+00    0.0000000000000000E+00
             0.0000000000000000E+00    0.0000000000000000E+00    0.0000000000000000E+00
             0.0000000000000000E+00    0.0000000000000000E+00    0.0000000000000000E+00
             0.0000000000000000E+00    0.0000000000000000E+00    0.0000000000000000E+00
             0.0000000000000000E+00    0.0000000000000000E+00    0.0000000000000000E+00
             0.0000000000000000E+00    0.0000000000000000E+00    0.0000000000000000E+00
             0.0000000000000000E+00    0.0000000000000000E+00    0.0000000000000000E+00
             0.0000000000000000E+00    0.0000000000000000E+00    0.0000000000000000E+00
             0.0000000000000000E+00    0.0000000000000000E+00    0.0000000000000000E+00
             0.0000000000000000E+00    0.0000000000000000E+00    0.0000000000000000E+00
             0.0000000000000000E+00    0.0000000000000000E+00    0.0000000000000000E+00
             0.0000000000000000E+00    0.0000000000000000E+00    0.0000000000000000E+00
             0.0000000000000000E+00    0.0000000000000000E+00    0.0000000000000000E+00
             0.0000000000000000E+00    0.0000000000000000E+00    0.0000000000000000E+00
             0.0000000000000000E+00    0.0000000000000000E+00    0.0000000000000000E+00
             0.0000000000000000E+00    0.0000000000000000E+00    0.0000000000000000E+00
             0.0000000000000000E+00    0.0000000000000000E+00    0.0000000000000000E+00
             0.0000000000000000E+00    0.0000000000000000E+00    0.0000000000000000E+00
             0.0000000000000000E+00    0.0000000000000000E+00    0.0000000000000000E+00
             0.0000000000000000E+00    0.0000000000000000E+00    0.0000000000000000E+00
             0.0000000000000000E+00    0.0000000000000000E+00    0.0000000000000000E+00
             0.0000000000000000E+00    0.0000000000000000E+00    0.0000000000000000E+00
             0.0000000000000000E+00    0.0000000000000000E+00    0.0000000000000000E+00
             0.0000000000000000E+00    0.0000000000000000E+00    0.0000000000000000E+00
             0.0000000000000000E+00    0.0000000000000000E+00    0.0000000000000000E+00
             0.0000000000000000E+00    0.0000000000000000E+00    0.0000000000000000E+00
             0.0000000000000000E+00    0.0000000000000000E+00    0.0000000000000000E+00
             0.0000000000000000E+00    0.0000000000000000E+00    0.0000000000000000E+00
             0.0000000000000000E+00    0.0000000000000000E+00    0.0000000000000000E+00
             0.0000000000000000E+00    0.0000000000000000E+00    0.0000000000000000E+00
             0.0000000000000000E+00    0.0000000000000000E+00    0.0000000000000000E+00
             0.0000000000000000E+00    0.0000000000000000E+00    0.0000000000000000E+00
             0.0000000000000000E+00    0.0000000000000000E+00    0.0000000000000000E+00
             0.0000000000000000E+00    0.0000000000000000E+00    0.0000000000000000E+00
             0.0000000000000000E+00    0.0000000000000000E+00    0.0000000000000000E+00
             0.0000000000000000E+00    0.0000000000000000E+00    0.0000000000000000E+00
             0.0000000000000000E+00    0.0000000000000000E+00    0.0000000000000000E+00
             0.0000000000000000E+00    0.0000000000000000E+00    0.0000000000000000E+00
             0.0000000000000000E+00    0.0000000000000000E+00    0.0000000000000000E+00
             0.0000000000000000E+00    0.0000000000000000E+00    0.0000000000000000E+00
             0.0000000000000000E+00    0.0000000000000000E+00    0.0000000000000000E+00
             0.0000000000000000E+00    0.0000000000000000E+00    0.0000000000000000E+00
             0.0000000000000000E+00    0.0000000000000000E+00    0.0000000000000000E+00
             0.0000000000000000E+00    0.0000000000000000E+00    0.0000000000000000E+00
             0.0000000000000000E+00    0.0000000000000000E+00    0.0000000000000000E+00
             0.0000000000000000E+00    0.0000000000000000E+00    0.0000000000000000E+00
             0.0000000000000000E+00    0.0000000000000000E+00    0.0000000000000000E+00
             0.0000000000000000E+00    0.0000000000000000E+00    0.0000000000000000E+00
             0.0000000000000000E+00    0.0000000000000000E+00    0.0000000000000000E+00
             0.0000000000000000E+00    0.0000000000000000E+00    0.0000000000000000E+00
             0.0000000000000000E+00    0.0000000000000000E+00    0.0000000000000000E+00
             0.0000000000000000E+00    0.0000000000000000E+00    0.0000000000000000E+00
             0.0000000000000000E+00    0.0000000000000000E+00    0.0000000000000000E+00
             0.0000000000000000E+00    0.0000000000000000E+00    0.0000000000000000E+00
             0.0000000000000000E+00    0.0000000000000000E+00    0.0000000000000000E+00
             0.0000000000000000E+00    0.0000000000000000E+00    0.0000000000000000E+00
             0.0000000000000000E+00    0.0000000000000000E+00    0.0000000000000000E+00
             0.0000000000000000E+00    0.0000000000000000E+00    0.0000000000000000E+00
             0.0000000000000000E+00    0.0000000000000000E+00    0.0000000000000000E+00
             0.0000000000000000E+00    0.0000000000000000E+00    0.0000000000000000E+00
             0.0000000000000000E+00    0.0000000000000000E+00    0.0000000000000000E+00
             0.0000000000000000E+00    0.0000000000000000E+00    0.0000000000000000E+00
             0.0000000000000000E+00    0.0000000000000000E+00    0.0000000000000000E+00
             0.0000000000000000E+00    0.0000000000000000E+00    0.0000000000000000E+00
             0.0000000000000000E+00    0.0000000000000000E+00    0.0000000000000000E+00
             0.0000000000000000E+00    0.0000000000000000E+00    0.0000000000000000E+00
             0.0000000000000000E+00    0.0000000000000000E+00    0.0000000000000000E+00
             0.0000000000000000E+00    0.0000000000000000E+00    0.0000000000000000E+00
             0.0000000000000000E+00    0.0000000000000000E+00    0.0000000000000000E+00
             0.0000000000000000E+00    0.0000000000000000E+00    0.0000000000000000E+00
             0.0000000000000000E+00    0.0000000000000000E+00    0.0000000000000000E+00
             0.0000000000000000E+00    0.0000000000000000E+00    0.0000000000000000E+00
             0.0000000000000000E+00    0.0000000000000000E+00    0.0000000000000000E+00