 # Version information for this restart file 
 # current date 2024-01-12 19:24:47.370
 # current working dir /gpfs/home/cahart/transport/melamine/au_from-h2/ci-neb/ts2-fixed/dft_leads-sz_tip-dzvp_surf-dzvp_kpoints-2-4-20_replicas-3
 # Program compiled at                              Thu 21 Sep 19:20:17 BST 2023
 # Program compiled on                                           hx1-c12-login-1
 # Program compiled for                                                    local
 # Source code revision number                                       git:5518aa6
 &GLOBAL
   EXTENDED_FFT_LENGTHS  T
   PRINT_LEVEL  MEDIUM
   PROJECT_NAME 2_dft_wfn-r-0
   OUTPUT_FILE_NAME 2_dft_wfn-r-0.out
   RUN_TYPE  BAND
 &END GLOBAL
 &MOTION
   &BAND
     NPROC_REP  64
     BAND_TYPE  CI-NEB
     NUMBER_OF_REPLICA  3
     K_SPRING     5.0000000000000003E-02
     &CI_NEB
       NSTEPS_IT  5
     &END CI_NEB
     &OPTIMIZE_BAND
       OPT_TYPE  DIIS
       &DIIS
         MAX_STEPS  1000
       &END DIIS
     &END OPTIMIZE_BAND
     &REPLICA
       &COORD
             0.0000000000000000E+00    0.0000000000000000E+00    0.0000000000000000E+00
             0.0000000000000000E+00    2.9550000000000041E+00    0.0000000000000000E+00
             0.0000000000000000E+00    5.9110000000000102E+00    0.0000000000000000E+00
             2.9560000000000062E+00    0.0000000000000000E+00    0.0000000000000000E+00
             2.9560000000000062E+00    2.9550000000000041E+00    0.0000000000000000E+00
             2.9560000000000062E+00    5.9110000000000102E+00    0.0000000000000000E+00
             5.9120000000000124E+00    0.0000000000000000E+00    0.0000000000000000E+00
             5.9120000000000124E+00    2.9550000000000041E+00    0.0000000000000000E+00
             5.9120000000000124E+00    5.9110000000000102E+00    0.0000000000000000E+00
             8.6700000000000159E+00    0.0000000000000000E+00    0.0000000000000000E+00
             8.6700000000000159E+00    2.9550000000000041E+00    0.0000000000000000E+00
             8.6700000000000159E+00    5.9110000000000102E+00    0.0000000000000000E+00
             1.1626000000000021E+01    0.0000000000000000E+00    0.0000000000000000E+00
             1.1626000000000021E+01    2.9550000000000041E+00    0.0000000000000000E+00
             1.1626000000000021E+01    5.9110000000000102E+00    0.0000000000000000E+00
             1.4780000000000031E+00    1.4780000000000031E+00    2.0900000000000039E+00
             1.4780000000000031E+00    4.4330000000000069E+00    2.0900000000000039E+00
             1.4780000000000031E+00    7.3890000000000189E+00    2.0900000000000039E+00
             4.4340000000000108E+00    1.4780000000000031E+00    2.0900000000000039E+00
             4.4340000000000108E+00    4.4330000000000069E+00    2.0900000000000039E+00
             4.4340000000000108E+00    7.3890000000000189E+00    2.0900000000000039E+00
             7.1920000000000117E+00    1.4780000000000031E+00    2.0900000000000039E+00
             7.1920000000000117E+00    4.4330000000000069E+00    2.0900000000000039E+00
             7.1920000000000117E+00    7.3890000000000189E+00    2.0900000000000039E+00
             1.0148000000000010E+01    1.4780000000000031E+00    2.0900000000000039E+00
             1.0148000000000010E+01    4.4330000000000069E+00    2.0900000000000039E+00
             1.0148000000000010E+01    7.3890000000000189E+00    2.0900000000000039E+00
             1.3104000000000022E+01    1.4780000000000031E+00    2.0900000000000039E+00
             1.3104000000000022E+01    4.4330000000000069E+00    2.0900000000000039E+00
             1.3104000000000022E+01    7.3890000000000189E+00    2.0900000000000039E+00
             0.0000000000000000E+00    0.0000000000000000E+00    4.1800000000000077E+00
             0.0000000000000000E+00    2.9550000000000041E+00    4.1800000000000077E+00
             0.0000000000000000E+00    5.9110000000000102E+00    4.1800000000000077E+00
             2.9560000000000062E+00    0.0000000000000000E+00    4.1800000000000077E+00
             2.9560000000000062E+00    2.9550000000000041E+00    4.1800000000000077E+00
             2.9560000000000062E+00    5.9110000000000102E+00    4.1800000000000077E+00
             5.9120000000000124E+00    0.0000000000000000E+00    4.1800000000000077E+00
             5.9120000000000124E+00    2.9550000000000041E+00    4.1800000000000077E+00
             5.9120000000000124E+00    5.9110000000000102E+00    4.1800000000000077E+00
             8.6700000000000159E+00    0.0000000000000000E+00    4.1800000000000077E+00
             8.6700000000000159E+00    2.9550000000000041E+00    4.1800000000000077E+00
             8.6700000000000159E+00    5.9110000000000102E+00    4.1800000000000077E+00
             1.1626000000000021E+01    0.0000000000000000E+00    4.1800000000000077E+00
             1.1626000000000021E+01    2.9550000000000041E+00    4.1800000000000077E+00
             1.1626000000000021E+01    5.9110000000000102E+00    4.1800000000000077E+00
             1.4780000000000031E+00    1.4780000000000031E+00    6.2700000000000120E+00
             1.4780000000000031E+00    4.4330000000000069E+00    6.2700000000000120E+00
             1.4780000000000031E+00    7.3890000000000189E+00    6.2700000000000120E+00
             4.4340000000000108E+00    1.4780000000000031E+00    6.2700000000000120E+00
             4.4340000000000108E+00    4.4330000000000069E+00    6.2700000000000120E+00
             4.4340000000000108E+00    7.3890000000000189E+00    6.2700000000000120E+00
             7.1920000000000117E+00    1.4780000000000031E+00    6.2700000000000120E+00
             7.1920000000000117E+00    4.4330000000000069E+00    6.2700000000000120E+00
             7.1920000000000117E+00    7.3890000000000189E+00    6.2700000000000120E+00
             1.0148000000000010E+01    1.4780000000000031E+00    6.2700000000000120E+00
             1.0148000000000010E+01    4.4330000000000069E+00    6.2700000000000120E+00
             1.0148000000000010E+01    7.3890000000000189E+00    6.2700000000000120E+00
             1.3104000000000022E+01    1.4780000000000031E+00    6.2700000000000120E+00
             1.3104000000000022E+01    4.4330000000000069E+00    6.2700000000000120E+00
             1.3104000000000022E+01    7.3890000000000189E+00    6.2700000000000120E+00
             0.0000000000000000E+00    0.0000000000000000E+00    8.3600000000000154E+00
             0.0000000000000000E+00    2.9550000000000041E+00    8.3600000000000154E+00
             0.0000000000000000E+00    5.9110000000000102E+00    8.3600000000000154E+00
             2.9560000000000062E+00    0.0000000000000000E+00    8.3600000000000154E+00
             2.9560000000000062E+00    2.9550000000000041E+00    8.3600000000000154E+00
             2.9560000000000062E+00    5.9110000000000102E+00    8.3600000000000154E+00
             5.9120000000000124E+00    0.0000000000000000E+00    8.3600000000000154E+00
             5.9120000000000124E+00    2.9550000000000041E+00    8.3600000000000154E+00
             5.9120000000000124E+00    5.9110000000000102E+00    8.3600000000000154E+00
             8.6700000000000159E+00    0.0000000000000000E+00    8.3600000000000154E+00
             8.6700000000000159E+00    2.9550000000000041E+00    8.3600000000000154E+00
             8.6700000000000159E+00    5.9110000000000102E+00    8.3600000000000154E+00
             1.1626000000000021E+01    0.0000000000000000E+00    8.3600000000000154E+00
             1.1626000000000021E+01    2.9550000000000041E+00    8.3600000000000154E+00
             1.1626000000000021E+01    5.9110000000000102E+00    8.3600000000000154E+00
             1.4780000000000031E+00    1.4780000000000031E+00    1.0450000000000005E+01
             1.4780000000000031E+00    4.4330000000000069E+00    1.0450000000000005E+01
             1.4780000000000031E+00    7.3890000000000189E+00    1.0450000000000005E+01
             4.4340000000000108E+00    1.4780000000000031E+00    1.0450000000000005E+01
             4.4340000000000108E+00    4.4330000000000069E+00    1.0450000000000005E+01
             4.4340000000000108E+00    7.3890000000000189E+00    1.0450000000000005E+01
             7.1920000000000117E+00    1.4780000000000031E+00    1.0450000000000005E+01
             7.1920000000000117E+00    4.4330000000000069E+00    1.0450000000000005E+01
             7.1920000000000117E+00    7.3890000000000189E+00    1.0450000000000005E+01
             1.0148000000000010E+01    1.4780000000000031E+00    1.0450000000000005E+01
             1.0148000000000010E+01    4.4330000000000069E+00    1.0450000000000005E+01
             1.0148000000000010E+01    7.3890000000000189E+00    1.0450000000000005E+01
             1.3104000000000022E+01    1.4780000000000031E+00    1.0450000000000005E+01
             1.3104000000000022E+01    4.4330000000000069E+00    1.0450000000000005E+01
             1.3104000000000022E+01    7.3890000000000189E+00    1.0450000000000005E+01
             4.8554000000000102E+00    5.9119000000000099E+00    1.2031800000000020E+01
             9.5280000000000253E+00    5.9137000000000093E+00    1.2034000000000029E+01
             7.1920000000000117E+00    5.9340000000000099E+00    1.2040000000000019E+01
             4.0673339928000063E+00    5.9059993220000129E+00    1.2687741368900015E+01
             1.0318905404800018E+01    5.9087793826000059E+00    1.2685747073200027E+01
             5.9989554222000105E+00    5.9152564166000072E+00    1.2792642411200019E+01
             8.3738707293000196E+00    5.9179777707000083E+00    1.2731457252200022E+01
             8.3227525762000170E+00    5.9051536095000063E+00    1.4080497642100031E+01
             5.9344285049000085E+00    5.8981604865000081E+00    1.4101749969600029E+01
             7.1039653577000141E+00    5.8899410689000087E+00    1.4828703219100021E+01
             7.2416021047000134E+00    5.8657702092000088E+00    1.6106466757300026E+01
             6.3118250323000087E+00    5.8547577071000099E+00    1.6539601306200034E+01
             9.1743570613000109E+00    5.8876302392000071E+00    1.4641017735300027E+01
             7.3120000000000127E+00    5.9340000000000099E+00    2.1043000000000035E+01
             5.8130000000000104E+00    7.4340000000000090E+00    2.2992000000000044E+01
             8.8130000000000095E+00    4.4340000000000108E+00    2.2992000000000044E+01
             5.8130000000000104E+00    4.4330000000000069E+00    2.2992000000000044E+01
             8.8130000000000095E+00    7.4340000000000090E+00    2.2992000000000044E+01
             1.4780000000000031E+00    1.4780000000000031E+00    2.5082000000000050E+01
             1.4780000000000031E+00    4.4330000000000069E+00    2.5082000000000050E+01
             1.4780000000000031E+00    7.3890000000000189E+00    2.5082000000000050E+01
             4.4340000000000108E+00    1.4780000000000031E+00    2.5082000000000050E+01
             4.4340000000000108E+00    4.4330000000000069E+00    2.5082000000000050E+01
             4.4340000000000108E+00    7.3890000000000189E+00    2.5082000000000050E+01
             7.1920000000000117E+00    1.4780000000000031E+00    2.5082000000000050E+01
             7.1920000000000117E+00    4.4330000000000069E+00    2.5082000000000050E+01
             7.1920000000000117E+00    7.3890000000000189E+00    2.5082000000000050E+01
             1.0148000000000010E+01    1.4780000000000031E+00    2.5082000000000050E+01
             1.0148000000000010E+01    4.4330000000000069E+00    2.5082000000000050E+01
             1.0148000000000010E+01    7.3890000000000189E+00    2.5082000000000050E+01
             1.3104000000000022E+01    1.4780000000000031E+00    2.5082000000000050E+01
             1.3104000000000022E+01    4.4330000000000069E+00    2.5082000000000050E+01
             1.3104000000000022E+01    7.3890000000000189E+00    2.5082000000000050E+01
             0.0000000000000000E+00    0.0000000000000000E+00    2.7172000000000057E+01
             0.0000000000000000E+00    2.9550000000000041E+00    2.7172000000000057E+01
             0.0000000000000000E+00    5.9110000000000102E+00    2.7172000000000057E+01
             2.9560000000000062E+00    0.0000000000000000E+00    2.7172000000000057E+01
             2.9560000000000062E+00    2.9550000000000041E+00    2.7172000000000057E+01
             2.9560000000000062E+00    5.9110000000000102E+00    2.7172000000000057E+01
             5.9120000000000124E+00    0.0000000000000000E+00    2.7172000000000057E+01
             5.9120000000000124E+00    2.9550000000000041E+00    2.7172000000000057E+01
             5.9120000000000124E+00    5.9110000000000102E+00    2.7172000000000057E+01
             8.6700000000000159E+00    0.0000000000000000E+00    2.7172000000000057E+01
             8.6700000000000159E+00    2.9550000000000041E+00    2.7172000000000057E+01
             8.6700000000000159E+00    5.9110000000000102E+00    2.7172000000000057E+01
             1.1626000000000021E+01    0.0000000000000000E+00    2.7172000000000057E+01
             1.1626000000000021E+01    2.9550000000000041E+00    2.7172000000000057E+01
             1.1626000000000021E+01    5.9110000000000102E+00    2.7172000000000057E+01
             1.4780000000000031E+00    1.4780000000000031E+00    2.9262000000000064E+01
             1.4780000000000031E+00    4.4330000000000069E+00    2.9262000000000064E+01
             1.4780000000000031E+00    7.3890000000000189E+00    2.9262000000000064E+01
             4.4340000000000108E+00    1.4780000000000031E+00    2.9262000000000064E+01
             4.4340000000000108E+00    4.4330000000000069E+00    2.9262000000000064E+01
             4.4340000000000108E+00    7.3890000000000189E+00    2.9262000000000064E+01
             7.1920000000000117E+00    1.4780000000000031E+00    2.9262000000000064E+01
             7.1920000000000117E+00    4.4330000000000069E+00    2.9262000000000064E+01
             7.1920000000000117E+00    7.3890000000000189E+00    2.9262000000000064E+01
             1.0148000000000010E+01    1.4780000000000031E+00    2.9262000000000064E+01
             1.0148000000000010E+01    4.4330000000000069E+00    2.9262000000000064E+01
             1.0148000000000010E+01    7.3890000000000189E+00    2.9262000000000064E+01
             1.3104000000000022E+01    1.4780000000000031E+00    2.9262000000000064E+01
             1.3104000000000022E+01    4.4330000000000069E+00    2.9262000000000064E+01
             1.3104000000000022E+01    7.3890000000000189E+00    2.9262000000000064E+01
             0.0000000000000000E+00    0.0000000000000000E+00    3.1352000000000043E+01
             0.0000000000000000E+00    2.9550000000000041E+00    3.1352000000000043E+01
             0.0000000000000000E+00    5.9110000000000102E+00    3.1352000000000043E+01
             2.9560000000000062E+00    0.0000000000000000E+00    3.1352000000000043E+01
             2.9560000000000062E+00    2.9550000000000041E+00    3.1352000000000043E+01
             2.9560000000000062E+00    5.9110000000000102E+00    3.1352000000000043E+01
             5.9120000000000124E+00    0.0000000000000000E+00    3.1352000000000043E+01
             5.9120000000000124E+00    2.9550000000000041E+00    3.1352000000000043E+01
             5.9120000000000124E+00    5.9110000000000102E+00    3.1352000000000043E+01
             8.6700000000000159E+00    0.0000000000000000E+00    3.1352000000000043E+01
             8.6700000000000159E+00    2.9550000000000041E+00    3.1352000000000043E+01
             8.6700000000000159E+00    5.9110000000000102E+00    3.1352000000000043E+01
             1.1626000000000021E+01    0.0000000000000000E+00    3.1352000000000043E+01
             1.1626000000000021E+01    2.9550000000000041E+00    3.1352000000000043E+01
             1.1626000000000021E+01    5.9110000000000102E+00    3.1352000000000043E+01
             1.4780000000000031E+00    1.4780000000000031E+00    3.3442000000000071E+01
             1.4780000000000031E+00    4.4330000000000069E+00    3.3442000000000071E+01
             1.4780000000000031E+00    7.3890000000000189E+00    3.3442000000000071E+01
             4.4340000000000108E+00    1.4780000000000031E+00    3.3442000000000071E+01
             4.4340000000000108E+00    4.4330000000000069E+00    3.3442000000000071E+01
             4.4340000000000108E+00    7.3890000000000189E+00    3.3442000000000071E+01
             7.1920000000000117E+00    1.4780000000000031E+00    3.3442000000000071E+01
             7.1920000000000117E+00    4.4330000000000069E+00    3.3442000000000071E+01
             7.1920000000000117E+00    7.3890000000000189E+00    3.3442000000000071E+01
             1.0148000000000010E+01    1.4780000000000031E+00    3.3442000000000071E+01
             1.0148000000000010E+01    4.4330000000000069E+00    3.3442000000000071E+01
             1.0148000000000010E+01    7.3890000000000189E+00    3.3442000000000071E+01
             1.3104000000000022E+01    1.4780000000000031E+00    3.3442000000000071E+01
             1.3104000000000022E+01    4.4330000000000069E+00    3.3442000000000071E+01
             1.3104000000000022E+01    7.3890000000000189E+00    3.3442000000000071E+01
       &END COORD
       &VELOCITY
             0.0000000000000000E+00    0.0000000000000000E+00    0.0000000000000000E+00
             0.0000000000000000E+00    0.0000000000000000E+00    0.0000000000000000E+00
             0.0000000000000000E+00    0.0000000000000000E+00    0.0000000000000000E+00
             0.0000000000000000E+00    0.0000000000000000E+00    0.0000000000000000E+00
             0.0000000000000000E+00    0.0000000000000000E+00    0.0000000000000000E+00
             0.0000000000000000E+00    0.0000000000000000E+00    0.0000000000000000E+00
             0.0000000000000000E+00    0.0000000000000000E+00    0.0000000000000000E+00
             0.0000000000000000E+00    0.0000000000000000E+00    0.0000000000000000E+00
             0.0000000000000000E+00    0.0000000000000000E+00    0.0000000000000000E+00
             0.0000000000000000E+00    0.0000000000000000E+00    0.0000000000000000E+00
             0.0000000000000000E+00    0.0000000000000000E+00    0.0000000000000000E+00
             0.0000000000000000E+00    0.0000000000000000E+00    0.0000000000000000E+00
             0.0000000000000000E+00    0.0000000000000000E+00    0.0000000000000000E+00
             0.0000000000000000E+00    0.0000000000000000E+00    0.0000000000000000E+00
             0.0000000000000000E+00    0.0000000000000000E+00    0.0000000000000000E+00
             0.0000000000000000E+00    0.0000000000000000E+00    0.0000000000000000E+00
             0.0000000000000000E+00    0.0000000000000000E+00    0.0000000000000000E+00
             0.0000000000000000E+00    0.0000000000000000E+00    0.0000000000000000E+00
             0.0000000000000000E+00    0.0000000000000000E+00    0.0000000000000000E+00
             0.0000000000000000E+00    0.0000000000000000E+00    0.0000000000000000E+00
             0.0000000000000000E+00    0.0000000000000000E+00    0.0000000000000000E+00
             0.0000000000000000E+00    0.0000000000000000E+00    0.0000000000000000E+00
             0.0000000000000000E+00    0.0000000000000000E+00    0.0000000000000000E+00
             0.0000000000000000E+00    0.0000000000000000E+00    0.0000000000000000E+00
             0.0000000000000000E+00    0.0000000000000000E+00    0.0000000000000000E+00
             0.0000000000000000E+00    0.0000000000000000E+00    0.0000000000000000E+00
             0.0000000000000000E+00    0.0000000000000000E+00    0.0000000000000000E+00
             0.0000000000000000E+00    0.0000000000000000E+00    0.0000000000000000E+00
             0.0000000000000000E+00    0.0000000000000000E+00    0.0000000000000000E+00
             0.0000000000000000E+00    0.0000000000000000E+00    0.0000000000000000E+00
             0.0000000000000000E+00    0.0000000000000000E+00    0.0000000000000000E+00
             0.0000000000000000E+00    0.0000000000000000E+00    0.0000000000000000E+00
             0.0000000000000000E+00    0.0000000000000000E+00    0.0000000000000000E+00
             0.0000000000000000E+00    0.0000000000000000E+00    0.0000000000000000E+00
             0.0000000000000000E+00    0.0000000000000000E+00    0.0000000000000000E+00
             0.0000000000000000E+00    0.0000000000000000E+00    0.0000000000000000E+00
             0.0000000000000000E+00    0.0000000000000000E+00    0.0000000000000000E+00
             0.0000000000000000E+00    0.0000000000000000E+00    0.0000000000000000E+00
             0.0000000000000000E+00    0.0000000000000000E+00    0.0000000000000000E+00
             0.0000000000000000E+00    0.0000000000000000E+00    0.0000000000000000E+00
             0.0000000000000000E+00    0.0000000000000000E+00    0.0000000000000000E+00
             0.0000000000000000E+00    0.0000000000000000E+00    0.0000000000000000E+00
             0.0000000000000000E+00    0.0000000000000000E+00    0.0000000000000000E+00
             0.0000000000000000E+00    0.0000000000000000E+00    0.0000000000000000E+00
             0.0000000000000000E+00    0.0000000000000000E+00    0.0000000000000000E+00
             0.0000000000000000E+00    0.0000000000000000E+00    0.0000000000000000E+00
             0.0000000000000000E+00    0.0000000000000000E+00    0.0000000000000000E+00
             0.0000000000000000E+00    0.0000000000000000E+00    0.0000000000000000E+00
             0.0000000000000000E+00    0.0000000000000000E+00    0.0000000000000000E+00
             0.0000000000000000E+00    0.0000000000000000E+00    0.0000000000000000E+00
             0.0000000000000000E+00    0.0000000000000000E+00    0.0000000000000000E+00
             0.0000000000000000E+00    0.0000000000000000E+00    0.0000000000000000E+00
             0.0000000000000000E+00    0.0000000000000000E+00    0.0000000000000000E+00
             0.0000000000000000E+00    0.0000000000000000E+00    0.0000000000000000E+00
             0.0000000000000000E+00    0.0000000000000000E+00    0.0000000000000000E+00
             0.0000000000000000E+00    0.0000000000000000E+00    0.0000000000000000E+00
             0.0000000000000000E+00    0.0000000000000000E+00    0.0000000000000000E+00
             0.0000000000000000E+00    0.0000000000000000E+00    0.0000000000000000E+00
             0.0000000000000000E+00    0.0000000000000000E+00    0.0000000000000000E+00
             0.0000000000000000E+00    0.0000000000000000E+00    0.0000000000000000E+00
             0.0000000000000000E+00    0.0000000000000000E+00    0.0000000000000000E+00
             0.0000000000000000E+00    0.0000000000000000E+00    0.0000000000000000E+00
             0.0000000000000000E+00    0.0000000000000000E+00    0.0000000000000000E+00
             0.0000000000000000E+00    0.0000000000000000E+00    0.0000000000000000E+00
             0.0000000000000000E+00    0.0000000000000000E+00    0.0000000000000000E+00
             0.0000000000000000E+00    0.0000000000000000E+00    0.0000000000000000E+00
             0.0000000000000000E+00    0.0000000000000000E+00    0.0000000000000000E+00
             0.0000000000000000E+00    0.0000000000000000E+00    0.0000000000000000E+00
             0.0000000000000000E+00    0.0000000000000000E+00    0.0000000000000000E+00
             0.0000000000000000E+00    0.0000000000000000E+00    0.0000000000000000E+00
             0.0000000000000000E+00    0.0000000000000000E+00    0.0000000000000000E+00
             0.0000000000000000E+00    0.0000000000000000E+00    0.0000000000000000E+00
             0.0000000000000000E+00    0.0000000000000000E+00    0.0000000000000000E+00
             0.0000000000000000E+00    0.0000000000000000E+00    0.0000000000000000E+00
             0.0000000000000000E+00    0.0000000000000000E+00    0.0000000000000000E+00
             0.0000000000000000E+00    0.0000000000000000E+00    0.0000000000000000E+00
             0.0000000000000000E+00    0.0000000000000000E+00    0.0000000000000000E+00
             0.0000000000000000E+00    0.0000000000000000E+00    0.0000000000000000E+00
             0.0000000000000000E+00    0.0000000000000000E+00    0.0000000000000000E+00
             0.0000000000000000E+00    0.0000000000000000E+00    0.0000000000000000E+00
             0.0000000000000000E+00    0.0000000000000000E+00    0.0000000000000000E+00
             0.0000000000000000E+00    0.0000000000000000E+00    0.0000000000000000E+00
             0.0000000000000000E+00    0.0000000000000000E+00    0.0000000000000000E+00
             0.0000000000000000E+00    0.0000000000000000E+00    0.0000000000000000E+00
             0.0000000000000000E+00    0.0000000000000000E+00    0.0000000000000000E+00
             0.0000000000000000E+00    0.0000000000000000E+00    0.0000000000000000E+00
             0.0000000000000000E+00    0.0000000000000000E+00    0.0000000000000000E+00
             0.0000000000000000E+00    0.0000000000000000E+00    0.0000000000000000E+00
             0.0000000000000000E+00    0.0000000000000000E+00    0.0000000000000000E+00
             0.0000000000000000E+00    0.0000000000000000E+00    0.0000000000000000E+00
             0.0000000000000000E+00    0.0000000000000000E+00    0.0000000000000000E+00
             0.0000000000000000E+00    0.0000000000000000E+00    0.0000000000000000E+00
             0.0000000000000000E+00    0.0000000000000000E+00    0.0000000000000000E+00
             0.0000000000000000E+00    0.0000000000000000E+00    0.0000000000000000E+00
             0.0000000000000000E+00    0.0000000000000000E+00    0.0000000000000000E+00
             0.0000000000000000E+00    0.0000000000000000E+00    0.0000000000000000E+00
             0.0000000000000000E+00    0.0000000000000000E+00    0.0000000000000000E+00
             0.0000000000000000E+00    0.0000000000000000E+00    0.0000000000000000E+00
             0.0000000000000000E+00    0.0000000000000000E+00    0.0000000000000000E+00
             0.0000000000000000E+00    0.0000000000000000E+00    0.0000000000000000E+00
             0.0000000000000000E+00    0.0000000000000000E+00    0.0000000000000000E+00
             0.0000000000000000E+00    0.0000000000000000E+00    0.0000000000000000E+00
             0.0000000000000000E+00    0.0000000000000000E+00    0.0000000000000000E+00
             0.0000000000000000E+00    0.0000000000000000E+00    0.0000000000000000E+00
             0.0000000000000000E+00    0.0000000000000000E+00    0.0000000000000000E+00
             0.0000000000000000E+00    0.0000000000000000E+00    0.0000000000000000E+00
             0.0000000000000000E+00    0.0000000000000000E+00    0.0000000000000000E+00
             0.0000000000000000E+00    0.0000000000000000E+00    0.0000000000000000E+00
             0.0000000000000000E+00    0.0000000000000000E+00    0.0000000000000000E+00
             0.0000000000000000E+00    0.0000000000000000E+00    0.0000000000000000E+00
             0.0000000000000000E+00    0.0000000000000000E+00    0.0000000000000000E+00
             0.0000000000000000E+00    0.0000000000000000E+00    0.0000000000000000E+00
             0.0000000000000000E+00    0.0000000000000000E+00    0.0000000000000000E+00
             0.0000000000000000E+00    0.0000000000000000E+00    0.0000000000000000E+00
             0.0000000000000000E+00    0.0000000000000000E+00    0.0000000000000000E+00
             0.0000000000000000E+00    0.0000000000000000E+00    0.0000000000000000E+00
             0.0000000000000000E+00    0.0000000000000000E+00    0.0000000000000000E+00
             0.0000000000000000E+00    0.0000000000000000E+00    0.0000000000000000E+00
             0.0000000000000000E+00    0.0000000000000000E+00    0.0000000000000000E+00
             0.0000000000000000E+00    0.0000000000000000E+00    0.0000000000000000E+00
             0.0000000000000000E+00    0.0000000000000000E+00    0.0000000000000000E+00
             0.0000000000000000E+00    0.0000000000000000E+00    0.0000000000000000E+00
             0.0000000000000000E+00    0.0000000000000000E+00    0.0000000000000000E+00
             0.0000000000000000E+00    0.0000000000000000E+00    0.0000000000000000E+00
             0.0000000000000000E+00    0.0000000000000000E+00    0.0000000000000000E+00
             0.0000000000000000E+00    0.0000000000000000E+00    0.0000000000000000E+00
             0.0000000000000000E+00    0.0000000000000000E+00    0.0000000000000000E+00
             0.0000000000000000E+00    0.0000000000000000E+00    0.0000000000000000E+00
             0.0000000000000000E+00    0.0000000000000000E+00    0.0000000000000000E+00
             0.0000000000000000E+00    0.0000000000000000E+00    0.0000000000000000E+00
             0.0000000000000000E+00    0.0000000000000000E+00    0.0000000000000000E+00
             0.0000000000000000E+00    0.0000000000000000E+00    0.0000000000000000E+00
             0.0000000000000000E+00    0.0000000000000000E+00    0.0000000000000000E+00
             0.0000000000000000E+00    0.0000000000000000E+00    0.0000000000000000E+00
             0.0000000000000000E+00    0.0000000000000000E+00    0.0000000000000000E+00
             0.0000000000000000E+00    0.0000000000000000E+00    0.0000000000000000E+00
             0.0000000000000000E+00    0.0000000000000000E+00    0.0000000000000000E+00
             0.0000000000000000E+00    0.0000000000000000E+00    0.0000000000000000E+00
             0.0000000000000000E+00    0.0000000000000000E+00    0.0000000000000000E+00
             0.0000000000000000E+00    0.0000000000000000E+00    0.0000000000000000E+00
             0.0000000000000000E+00    0.0000000000000000E+00    0.0000000000000000E+00
             0.0000000000000000E+00    0.0000000000000000E+00    0.0000000000000000E+00
             0.0000000000000000E+00    0.0000000000000000E+00    0.0000000000000000E+00
             0.0000000000000000E+00    0.0000000000000000E+00    0.0000000000000000E+00
             0.0000000000000000E+00    0.0000000000000000E+00    0.0000000000000000E+00