 # Version information for this restart file 
 # current date 2024-01-12 22:39:46.453
 # current working dir /gpfs/home/cahart/transport/melamine/au_from-h2/ci-neb/ts2-fixed/dft_leads-sz_tip-dzvp_surf-dzvp_kpoints-2-4-20_replicas-3
 # Program compiled at                              Thu 21 Sep 19:20:17 BST 2023
 # Program compiled on                                           hx1-c12-login-1
 # Program compiled for                                                    local
 # Source code revision number                                       git:5518aa6
 &GLOBAL
   EXTENDED_FFT_LENGTHS  T
   PRINT_LEVEL  MEDIUM
   PROJECT_NAME 2_dft_wfn-r-0
   OUTPUT_FILE_NAME 2_dft_wfn-r-0.out
   RUN_TYPE  BAND
 &END GLOBAL
 &MOTION
   &BAND
     NPROC_REP  64
     BAND_TYPE  CI-NEB
     NUMBER_OF_REPLICA  3
     K_SPRING     5.0000000000000003E-02
     &CI_NEB
       NSTEPS_IT  5
     &END CI_NEB
     &OPTIMIZE_BAND
       OPT_TYPE  DIIS
       &DIIS
         MAX_STEPS  1000
       &END DIIS
     &END OPTIMIZE_BAND
     &REPLICA
       &COORD
             0.0000000000000000E+00    0.0000000000000000E+00    0.0000000000000000E+00
             0.0000000000000000E+00    2.9549999999999983E+00    0.0000000000000000E+00
             0.0000000000000000E+00    5.9109999999999978E+00    0.0000000000000000E+00
             2.9560000000000004E+00    0.0000000000000000E+00    0.0000000000000000E+00
             2.9560000000000004E+00    2.9549999999999983E+00    0.0000000000000000E+00
             2.9560000000000004E+00    5.9109999999999978E+00    0.0000000000000000E+00
             5.9120000000000008E+00    0.0000000000000000E+00    0.0000000000000000E+00
             5.9120000000000008E+00    2.9549999999999983E+00    0.0000000000000000E+00
             5.9120000000000008E+00    5.9109999999999978E+00    0.0000000000000000E+00
             8.6700000000000017E+00    0.0000000000000000E+00    0.0000000000000000E+00
             8.6700000000000017E+00    2.9549999999999983E+00    0.0000000000000000E+00
             8.6700000000000017E+00    5.9109999999999978E+00    0.0000000000000000E+00
             1.1625999999999998E+01    0.0000000000000000E+00    0.0000000000000000E+00
             1.1625999999999998E+01    2.9549999999999983E+00    0.0000000000000000E+00
             1.1625999999999998E+01    5.9109999999999978E+00    0.0000000000000000E+00
             1.4780000000000002E+00    1.4780000000000002E+00    2.0899999999999999E+00
             1.4780000000000002E+00    4.4329999999999972E+00    2.0899999999999999E+00
             1.4780000000000002E+00    7.3890000000000029E+00    2.0899999999999999E+00
             4.4340000000000011E+00    1.4780000000000002E+00    2.0899999999999999E+00
             4.4340000000000011E+00    4.4329999999999972E+00    2.0899999999999999E+00
             4.4340000000000011E+00    7.3890000000000029E+00    2.0899999999999999E+00
             7.1919999999999966E+00    1.4780000000000002E+00    2.0899999999999999E+00
             7.1919999999999966E+00    4.4329999999999972E+00    2.0899999999999999E+00
             7.1919999999999966E+00    7.3890000000000029E+00    2.0899999999999999E+00
             1.0147999999999994E+01    1.4780000000000002E+00    2.0899999999999999E+00
             1.0147999999999994E+01    4.4329999999999972E+00    2.0899999999999999E+00
             1.0147999999999994E+01    7.3890000000000029E+00    2.0899999999999999E+00
             1.3103999999999997E+01    1.4780000000000002E+00    2.0899999999999999E+00
             1.3103999999999997E+01    4.4329999999999972E+00    2.0899999999999999E+00
             1.3103999999999997E+01    7.3890000000000029E+00    2.0899999999999999E+00
             0.0000000000000000E+00    0.0000000000000000E+00    4.1799999999999997E+00
             0.0000000000000000E+00    2.9549999999999983E+00    4.1799999999999997E+00
             0.0000000000000000E+00    5.9109999999999978E+00    4.1799999999999997E+00
             2.9560000000000004E+00    0.0000000000000000E+00    4.1799999999999997E+00
             2.9560000000000004E+00    2.9549999999999983E+00    4.1799999999999997E+00
             2.9560000000000004E+00    5.9109999999999978E+00    4.1799999999999997E+00
             5.9120000000000008E+00    0.0000000000000000E+00    4.1799999999999997E+00
             5.9120000000000008E+00    2.9549999999999983E+00    4.1799999999999997E+00
             5.9120000000000008E+00    5.9109999999999978E+00    4.1799999999999997E+00
             8.6700000000000017E+00    0.0000000000000000E+00    4.1799999999999997E+00
             8.6700000000000017E+00    2.9549999999999983E+00    4.1799999999999997E+00
             8.6700000000000017E+00    5.9109999999999978E+00    4.1799999999999997E+00
             1.1625999999999998E+01    0.0000000000000000E+00    4.1799999999999997E+00
             1.1625999999999998E+01    2.9549999999999983E+00    4.1799999999999997E+00
             1.1625999999999998E+01    5.9109999999999978E+00    4.1799999999999997E+00
             1.4780000000000002E+00    1.4780000000000002E+00    6.2699999999999978E+00
             1.4780000000000002E+00    4.4329999999999972E+00    6.2699999999999978E+00
             1.4780000000000002E+00    7.3890000000000029E+00    6.2699999999999978E+00
             4.4340000000000011E+00    1.4780000000000002E+00    6.2699999999999978E+00
             4.4340000000000011E+00    4.4329999999999972E+00    6.2699999999999978E+00
             4.4340000000000011E+00    7.3890000000000029E+00    6.2699999999999978E+00
             7.1919999999999966E+00    1.4780000000000002E+00    6.2699999999999978E+00
             7.1919999999999966E+00    4.4329999999999972E+00    6.2699999999999978E+00
             7.1919999999999966E+00    7.3890000000000029E+00    6.2699999999999978E+00
             1.0147999999999994E+01    1.4780000000000002E+00    6.2699999999999978E+00
             1.0147999999999994E+01    4.4329999999999972E+00    6.2699999999999978E+00
             1.0147999999999994E+01    7.3890000000000029E+00    6.2699999999999978E+00
             1.3103999999999997E+01    1.4780000000000002E+00    6.2699999999999978E+00
             1.3103999999999997E+01    4.4329999999999972E+00    6.2699999999999978E+00
             1.3103999999999997E+01    7.3890000000000029E+00    6.2699999999999978E+00
             0.0000000000000000E+00    0.0000000000000000E+00    8.3599999999999994E+00
             0.0000000000000000E+00    2.9549999999999983E+00    8.3599999999999994E+00
             0.0000000000000000E+00    5.9109999999999978E+00    8.3599999999999994E+00
             2.9560000000000004E+00    0.0000000000000000E+00    8.3599999999999994E+00
             2.9560000000000004E+00    2.9549999999999983E+00    8.3599999999999994E+00
             2.9560000000000004E+00    5.9109999999999978E+00    8.3599999999999994E+00
             5.9120000000000008E+00    0.0000000000000000E+00    8.3599999999999994E+00
             5.9120000000000008E+00    2.9549999999999983E+00    8.3599999999999994E+00
             5.9120000000000008E+00    5.9109999999999978E+00    8.3599999999999994E+00
             8.6700000000000017E+00    0.0000000000000000E+00    8.3599999999999994E+00
             8.6700000000000017E+00    2.9549999999999983E+00    8.3599999999999994E+00
             8.6700000000000017E+00    5.9109999999999978E+00    8.3599999999999994E+00
             1.1625999999999998E+01    0.0000000000000000E+00    8.3599999999999994E+00
             1.1625999999999998E+01    2.9549999999999983E+00    8.3599999999999994E+00
             1.1625999999999998E+01    5.9109999999999978E+00    8.3599999999999994E+00
             1.4780000000000002E+00    1.4780000000000002E+00    1.0449999999999987E+01
             1.4780000000000002E+00    4.4329999999999972E+00    1.0449999999999987E+01
             1.4780000000000002E+00    7.3890000000000029E+00    1.0449999999999987E+01
             4.4340000000000011E+00    1.4780000000000002E+00    1.0449999999999987E+01
             4.4340000000000011E+00    4.4329999999999972E+00    1.0449999999999987E+01
             4.4340000000000011E+00    7.3890000000000029E+00    1.0449999999999987E+01
             7.1919999999999966E+00    1.4780000000000002E+00    1.0449999999999987E+01
             7.1919999999999966E+00    4.4329999999999972E+00    1.0449999999999987E+01
             7.1919999999999966E+00    7.3890000000000029E+00    1.0449999999999987E+01
             1.0147999999999994E+01    1.4780000000000002E+00    1.0449999999999987E+01
             1.0147999999999994E+01    4.4329999999999972E+00    1.0449999999999987E+01
             1.0147999999999994E+01    7.3890000000000029E+00    1.0449999999999987E+01
             1.3103999999999997E+01    1.4780000000000002E+00    1.0449999999999987E+01
             1.3103999999999997E+01    4.4329999999999972E+00    1.0449999999999987E+01
             1.3103999999999997E+01    7.3890000000000029E+00    1.0449999999999987E+01
             4.8554000000000022E+00    5.9118999999999966E+00    1.2031799999999995E+01
             9.5280000000000076E+00    5.9136999999999968E+00    1.2034000000000010E+01
             7.1919999999999966E+00    5.9340000000000011E+00    1.2039999999999996E+01
             4.0673339927999992E+00    5.9059993220000031E+00    1.2687741368899989E+01
             1.0318905404799997E+01    5.9087793825999944E+00    1.2685747073200002E+01
             5.9989554221999990E+00    5.9152564165999966E+00    1.2792642411199994E+01
             8.3738707293000036E+00    5.9179777706999968E+00    1.2731457252199997E+01
             8.3227525762000027E+00    5.9051536094999957E+00    1.4080497642100006E+01
             5.9344285048999961E+00    5.8981604864999966E+00    1.4101749969600002E+01
             7.1039653576999973E+00    5.8899410688999998E+00    1.4828703219099992E+01
             7.2416021047000010E+00    5.8657702091999964E+00    1.6106466757299998E+01
             6.3118250322999954E+00    5.8547577070999965E+00    1.6539601306199998E+01
             9.1743570612999932E+00    5.8876302391999937E+00    1.4641017735299997E+01
             7.3119999999999967E+00    5.9340000000000011E+00    2.1042999999999996E+01
             5.8129999999999988E+00    7.4339999999999948E+00    2.2991999999999994E+01
             8.8129999999999882E+00    4.4340000000000011E+00    2.2991999999999994E+01
             5.8129999999999988E+00    4.4329999999999972E+00    2.2991999999999994E+01
             8.8129999999999882E+00    7.4339999999999948E+00    2.2991999999999994E+01
             1.4780000000000002E+00    1.4780000000000002E+00    2.5082000000000001E+01
             1.4780000000000002E+00    4.4329999999999972E+00    2.5082000000000001E+01
             1.4780000000000002E+00    7.3890000000000029E+00    2.5082000000000001E+01
             4.4340000000000011E+00    1.4780000000000002E+00    2.5082000000000001E+01
             4.4340000000000011E+00    4.4329999999999972E+00    2.5082000000000001E+01
             4.4340000000000011E+00    7.3890000000000029E+00    2.5082000000000001E+01
             7.1919999999999966E+00    1.4780000000000002E+00    2.5082000000000001E+01
             7.1919999999999966E+00    4.4329999999999972E+00    2.5082000000000001E+01
             7.1919999999999966E+00    7.3890000000000029E+00    2.5082000000000001E+01
             1.0147999999999994E+01    1.4780000000000002E+00    2.5082000000000001E+01
             1.0147999999999994E+01    4.4329999999999972E+00    2.5082000000000001E+01
             1.0147999999999994E+01    7.3890000000000029E+00    2.5082000000000001E+01
             1.3103999999999997E+01    1.4780000000000002E+00    2.5082000000000001E+01
             1.3103999999999997E+01    4.4329999999999972E+00    2.5082000000000001E+01
             1.3103999999999997E+01    7.3890000000000029E+00    2.5082000000000001E+01
             0.0000000000000000E+00    0.0000000000000000E+00    2.7171999999999997E+01
             0.0000000000000000E+00    2.9549999999999983E+00    2.7171999999999997E+01
             0.0000000000000000E+00    5.9109999999999978E+00    2.7171999999999997E+01
             2.9560000000000004E+00    0.0000000000000000E+00    2.7171999999999997E+01
             2.9560000000000004E+00    2.9549999999999983E+00    2.7171999999999997E+01
             2.9560000000000004E+00    5.9109999999999978E+00    2.7171999999999997E+01
             5.9120000000000008E+00    0.0000000000000000E+00    2.7171999999999997E+01
             5.9120000000000008E+00    2.9549999999999983E+00    2.7171999999999997E+01
             5.9120000000000008E+00    5.9109999999999978E+00    2.7171999999999997E+01
             8.6700000000000017E+00    0.0000000000000000E+00    2.7171999999999997E+01
             8.6700000000000017E+00    2.9549999999999983E+00    2.7171999999999997E+01
             8.6700000000000017E+00    5.9109999999999978E+00    2.7171999999999997E+01
             1.1625999999999998E+01    0.0000000000000000E+00    2.7171999999999997E+01
             1.1625999999999998E+01    2.9549999999999983E+00    2.7171999999999997E+01
             1.1625999999999998E+01    5.9109999999999978E+00    2.7171999999999997E+01
             1.4780000000000002E+00    1.4780000000000002E+00    2.9262000000000015E+01
             1.4780000000000002E+00    4.4329999999999972E+00    2.9262000000000015E+01
             1.4780000000000002E+00    7.3890000000000029E+00    2.9262000000000015E+01
             4.4340000000000011E+00    1.4780000000000002E+00    2.9262000000000015E+01
             4.4340000000000011E+00    4.4329999999999972E+00    2.9262000000000015E+01
             4.4340000000000011E+00    7.3890000000000029E+00    2.9262000000000015E+01
             7.1919999999999966E+00    1.4780000000000002E+00    2.9262000000000015E+01
             7.1919999999999966E+00    4.4329999999999972E+00    2.9262000000000015E+01
             7.1919999999999966E+00    7.3890000000000029E+00    2.9262000000000015E+01
             1.0147999999999994E+01    1.4780000000000002E+00    2.9262000000000015E+01
             1.0147999999999994E+01    4.4329999999999972E+00    2.9262000000000015E+01
             1.0147999999999994E+01    7.3890000000000029E+00    2.9262000000000015E+01
             1.3103999999999997E+01    1.4780000000000002E+00    2.9262000000000015E+01
             1.3103999999999997E+01    4.4329999999999972E+00    2.9262000000000015E+01
             1.3103999999999997E+01    7.3890000000000029E+00    2.9262000000000015E+01
             0.0000000000000000E+00    0.0000000000000000E+00    3.1351999999999979E+01
             0.0000000000000000E+00    2.9549999999999983E+00    3.1351999999999979E+01
             0.0000000000000000E+00    5.9109999999999978E+00    3.1351999999999979E+01
             2.9560000000000004E+00    0.0000000000000000E+00    3.1351999999999979E+01
             2.9560000000000004E+00    2.9549999999999983E+00    3.1351999999999979E+01
             2.9560000000000004E+00    5.9109999999999978E+00    3.1351999999999979E+01
             5.9120000000000008E+00    0.0000000000000000E+00    3.1351999999999979E+01
             5.9120000000000008E+00    2.9549999999999983E+00    3.1351999999999979E+01
             5.9120000000000008E+00    5.9109999999999978E+00    3.1351999999999979E+01
             8.6700000000000017E+00    0.0000000000000000E+00    3.1351999999999979E+01
             8.6700000000000017E+00    2.9549999999999983E+00    3.1351999999999979E+01
             8.6700000000000017E+00    5.9109999999999978E+00    3.1351999999999979E+01
             1.1625999999999998E+01    0.0000000000000000E+00    3.1351999999999979E+01
             1.1625999999999998E+01    2.9549999999999983E+00    3.1351999999999979E+01
             1.1625999999999998E+01    5.9109999999999978E+00    3.1351999999999979E+01
             1.4780000000000002E+00    1.4780000000000002E+00    3.3442000000000014E+01
             1.4780000000000002E+00    4.4329999999999972E+00    3.3442000000000014E+01
             1.4780000000000002E+00    7.3890000000000029E+00    3.3442000000000014E+01
             4.4340000000000011E+00    1.4780000000000002E+00    3.3442000000000014E+01
             4.4340000000000011E+00    4.4329999999999972E+00    3.3442000000000014E+01
             4.4340000000000011E+00    7.3890000000000029E+00    3.3442000000000014E+01
             7.1919999999999966E+00    1.4780000000000002E+00    3.3442000000000014E+01
             7.1919999999999966E+00    4.4329999999999972E+00    3.3442000000000014E+01
             7.1919999999999966E+00    7.3890000000000029E+00    3.3442000000000014E+01
             1.0147999999999994E+01    1.4780000000000002E+00    3.3442000000000014E+01
             1.0147999999999994E+01    4.4329999999999972E+00    3.3442000000000014E+01
             1.0147999999999994E+01    7.3890000000000029E+00    3.3442000000000014E+01
             1.3103999999999997E+01    1.4780000000000002E+00    3.3442000000000014E+01
             1.3103999999999997E+01    4.4329999999999972E+00    3.3442000000000014E+01
             1.3103999999999997E+01    7.3890000000000029E+00    3.3442000000000014E+01
       &END COORD
       &VELOCITY
             0.0000000000000000E+00    0.0000000000000000E+00    0.0000000000000000E+00
             0.0000000000000000E+00    0.0000000000000000E+00    0.0000000000000000E+00
             0.0000000000000000E+00    0.0000000000000000E+00    0.0000000000000000E+00
             0.0000000000000000E+00    0.0000000000000000E+00    0.0000000000000000E+00
             0.0000000000000000E+00    0.0000000000000000E+00    0.0000000000000000E+00
             0.0000000000000000E+00    0.0000000000000000E+00    0.0000000000000000E+00
             0.0000000000000000E+00    0.0000000000000000E+00    0.0000000000000000E+00
             0.0000000000000000E+00    0.0000000000000000E+00    0.0000000000000000E+00
             0.0000000000000000E+00    0.0000000000000000E+00    0.0000000000000000E+00
             0.0000000000000000E+00    0.0000000000000000E+00    0.0000000000000000E+00
             0.0000000000000000E+00    0.0000000000000000E+00    0.0000000000000000E+00
             0.0000000000000000E+00    0.0000000000000000E+00    0.0000000000000000E+00
             0.0000000000000000E+00    0.0000000000000000E+00    0.0000000000000000E+00
             0.0000000000000000E+00    0.0000000000000000E+00    0.0000000000000000E+00
             0.0000000000000000E+00    0.0000000000000000E+00    0.0000000000000000E+00
             0.0000000000000000E+00    0.0000000000000000E+00    0.0000000000000000E+00
             0.0000000000000000E+00    0.0000000000000000E+00    0.0000000000000000E+00
             0.0000000000000000E+00    0.0000000000000000E+00    0.0000000000000000E+00
             0.0000000000000000E+00    0.0000000000000000E+00    0.0000000000000000E+00
             0.0000000000000000E+00    0.0000000000000000E+00    0.0000000000000000E+00
             0.0000000000000000E+00    0.0000000000000000E+00    0.0000000000000000E+00
             0.0000000000000000E+00    0.0000000000000000E+00    0.0000000000000000E+00
             0.0000000000000000E+00    0.0000000000000000E+00    0.0000000000000000E+00
             0.0000000000000000E+00    0.0000000000000000E+00    0.0000000000000000E+00
             0.0000000000000000E+00    0.0000000000000000E+00    0.0000000000000000E+00
             0.0000000000000000E+00    0.0000000000000000E+00    0.0000000000000000E+00
             0.0000000000000000E+00    0.0000000000000000E+00    0.0000000000000000E+00
             0.0000000000000000E+00    0.0000000000000000E+00    0.0000000000000000E+00
             0.0000000000000000E+00    0.0000000000000000E+00    0.0000000000000000E+00
             0.0000000000000000E+00    0.0000000000000000E+00    0.0000000000000000E+00
             0.0000000000000000E+00    0.0000000000000000E+00    0.0000000000000000E+00
             0.0000000000000000E+00    0.0000000000000000E+00    0.0000000000000000E+00
             0.0000000000000000E+00    0.0000000000000000E+00    0.0000000000000000E+00
             0.0000000000000000E+00    0.0000000000000000E+00    0.0000000000000000E+00
             0.0000000000000000E+00    0.0000000000000000E+00    0.0000000000000000E+00
             0.0000000000000000E+00    0.0000000000000000E+00    0.0000000000000000E+00
             0.0000000000000000E+00    0.0000000000000000E+00    0.0000000000000000E+00
             0.0000000000000000E+00    0.0000000000000000E+00    0.0000000000000000E+00
             0.0000000000000000E+00    0.0000000000000000E+00    0.0000000000000000E+00
             0.0000000000000000E+00    0.0000000000000000E+00    0.0000000000000000E+00
             0.0000000000000000E+00    0.0000000000000000E+00    0.0000000000000000E+00
             0.0000000000000000E+00    0.0000000000000000E+00    0.0000000000000000E+00
             0.0000000000000000E+00    0.0000000000000000E+00    0.0000000000000000E+00
             0.0000000000000000E+00    0.0000000000000000E+00    0.0000000000000000E+00
             0.0000000000000000E+00    0.0000000000000000E+00    0.0000000000000000E+00
             0.0000000000000000E+00    0.0000000000000000E+00    0.0000000000000000E+00
             0.0000000000000000E+00    0.0000000000000000E+00    0.0000000000000000E+00
             0.0000000000000000E+00    0.0000000000000000E+00    0.0000000000000000E+00
             0.0000000000000000E+00    0.0000000000000000E+00    0.0000000000000000E+00
             0.0000000000000000E+00    0.0000000000000000E+00    0.0000000000000000E+00
             0.0000000000000000E+00    0.0000000000000000E+00    0.0000000000000000E+00
             0.0000000000000000E+00    0.0000000000000000E+00    0.0000000000000000E+00
             0.0000000000000000E+00    0.0000000000000000E+00    0.0000000000000000E+00
             0.0000000000000000E+00    0.0000000000000000E+00    0.0000000000000000E+00
             0.0000000000000000E+00    0.0000000000000000E+00    0.0000000000000000E+00
             0.0000000000000000E+00    0.0000000000000000E+00    0.0000000000000000E+00
             0.0000000000000000E+00    0.0000000000000000E+00    0.0000000000000000E+00
             0.0000000000000000E+00    0.0000000000000000E+00    0.0000000000000000E+00
             0.0000000000000000E+00    0.0000000000000000E+00    0.0000000000000000E+00
             0.0000000000000000E+00    0.0000000000000000E+00    0.0000000000000000E+00
             0.0000000000000000E+00    0.0000000000000000E+00    0.0000000000000000E+00
             0.0000000000000000E+00    0.0000000000000000E+00    0.0000000000000000E+00
             0.0000000000000000E+00    0.0000000000000000E+00    0.0000000000000000E+00
             0.0000000000000000E+00    0.0000000000000000E+00    0.0000000000000000E+00
             0.0000000000000000E+00    0.0000000000000000E+00    0.0000000000000000E+00
             0.0000000000000000E+00    0.0000000000000000E+00    0.0000000000000000E+00
             0.0000000000000000E+00    0.0000000000000000E+00    0.0000000000000000E+00
             0.0000000000000000E+00    0.0000000000000000E+00    0.0000000000000000E+00
             0.0000000000000000E+00    0.0000000000000000E+00    0.0000000000000000E+00
             0.0000000000000000E+00    0.0000000000000000E+00    0.0000000000000000E+00
             0.0000000000000000E+00    0.0000000000000000E+00    0.0000000000000000E+00
             0.0000000000000000E+00    0.0000000000000000E+00    0.0000000000000000E+00
             0.0000000000000000E+00    0.0000000000000000E+00    0.0000000000000000E+00
             0.0000000000000000E+00    0.0000000000000000E+00    0.0000000000000000E+00
             0.0000000000000000E+00    0.0000000000000000E+00    0.0000000000000000E+00
             0.0000000000000000E+00    0.0000000000000000E+00    0.0000000000000000E+00
             0.0000000000000000E+00    0.0000000000000000E+00    0.0000000000000000E+00
             0.0000000000000000E+00    0.0000000000000000E+00    0.0000000000000000E+00
             0.0000000000000000E+00    0.0000000000000000E+00    0.0000000000000000E+00
             0.0000000000000000E+00    0.0000000000000000E+00    0.0000000000000000E+00
             0.0000000000000000E+00    0.0000000000000000E+00    0.0000000000000000E+00
             0.0000000000000000E+00    0.0000000000000000E+00    0.0000000000000000E+00
             0.0000000000000000E+00    0.0000000000000000E+00    0.0000000000000000E+00
             0.0000000000000000E+00    0.0000000000000000E+00    0.0000000000000000E+00
             0.0000000000000000E+00    0.0000000000000000E+00    0.0000000000000000E+00
             0.0000000000000000E+00    0.0000000000000000E+00    0.0000000000000000E+00
             0.0000000000000000E+00    0.0000000000000000E+00    0.0000000000000000E+00
             0.0000000000000000E+00    0.0000000000000000E+00    0.0000000000000000E+00
             0.0000000000000000E+00    0.0000000000000000E+00    0.0000000000000000E+00
             0.0000000000000000E+00    0.0000000000000000E+00    0.0000000000000000E+00
             0.0000000000000000E+00    0.0000000000000000E+00    0.0000000000000000E+00
             0.0000000000000000E+00    0.0000000000000000E+00    0.0000000000000000E+00
             0.0000000000000000E+00    0.0000000000000000E+00    0.0000000000000000E+00
             0.0000000000000000E+00    0.0000000000000000E+00    0.0000000000000000E+00
             0.0000000000000000E+00    0.0000000000000000E+00    0.0000000000000000E+00
             0.0000000000000000E+00    0.0000000000000000E+00    0.0000000000000000E+00
             0.0000000000000000E+00    0.0000000000000000E+00    0.0000000000000000E+00
             0.0000000000000000E+00    0.0000000000000000E+00    0.0000000000000000E+00
             0.0000000000000000E+00    0.0000000000000000E+00    0.0000000000000000E+00
             0.0000000000000000E+00    0.0000000000000000E+00    0.0000000000000000E+00
             0.0000000000000000E+00    0.0000000000000000E+00    0.0000000000000000E+00
             0.0000000000000000E+00    0.0000000000000000E+00    0.0000000000000000E+00
             0.0000000000000000E+00    0.0000000000000000E+00    0.0000000000000000E+00
             0.0000000000000000E+00    0.0000000000000000E+00    0.0000000000000000E+00
             0.0000000000000000E+00    0.0000000000000000E+00    0.0000000000000000E+00
             0.0000000000000000E+00    0.0000000000000000E+00    0.0000000000000000E+00
             0.0000000000000000E+00    0.0000000000000000E+00    0.0000000000000000E+00
             0.0000000000000000E+00    0.0000000000000000E+00    0.0000000000000000E+00
             0.0000000000000000E+00    0.0000000000000000E+00    0.0000000000000000E+00
             0.0000000000000000E+00    0.0000000000000000E+00    0.0000000000000000E+00
             0.0000000000000000E+00    0.0000000000000000E+00    0.0000000000000000E+00
             0.0000000000000000E+00    0.0000000000000000E+00    0.0000000000000000E+00
             0.0000000000000000E+00    0.0000000000000000E+00    0.0000000000000000E+00
             0.0000000000000000E+00    0.0000000000000000E+00    0.0000000000000000E+00
             0.0000000000000000E+00    0.0000000000000000E+00    0.0000000000000000E+00
             0.0000000000000000E+00    0.0000000000000000E+00    0.0000000000000000E+00
             0.0000000000000000E+00    0.0000000000000000E+00    0.0000000000000000E+00
             0.0000000000000000E+00    0.0000000000000000E+00    0.0000000000000000E+00
             0.0000000000000000E+00    0.0000000000000000E+00    0.0000000000000000E+00
             0.0000000000000000E+00    0.0000000000000000E+00    0.0000000000000000E+00
             0.0000000000000000E+00    0.0000000000000000E+00    0.0000000000000000E+00
             0.0000000000000000E+00    0.0000000000000000E+00    0.0000000000000000E+00
             0.0000000000000000E+00    0.0000000000000000E+00    0.0000000000000000E+00
             0.0000000000000000E+00    0.0000000000000000E+00    0.0000000000000000E+00
             0.0000000000000000E+00    0.0000000000000000E+00    0.0000000000000000E+00
             0.0000000000000000E+00    0.0000000000000000E+00    0.0000000000000000E+00
             0.0000000000000000E+00    0.0000000000000000E+00    0.0000000000000000E+00
             0.0000000000000000E+00    0.0000000000000000E+00    0.0000000000000000E+00
             0.0000000000000000E+00    0.0000000000000000E+00    0.0000000000000000E+00
             0.0000000000000000E+00    0.0000000000000000E+00    0.0000000000000000E+00
             0.0000000000000000E+00    0.0000000000000000E+00    0.0000000000000000E+00
             0.0000000000000000E+00    0.0000000000000000E+00    0.0000000000000000E+00
             0.0000000000000000E+00    0.0000000000000000E+00    0.0000000000000000E+00
             0.0000000000000000E+00    0.0000000000000000E+00    0.0000000000000000E+00
             0.0000000000000000E+00    0.0000000000000000E+00    0.0000000000000000E+00
             0.0000000000000000E+00    0.0000000000000000E+00    0.0000000000000000E+00
             0.0000000000000000E+00    0.0000000000000000E+00    0.0000000000000000E+00
             0.0000000000000000E+00    0.0000000000000000E+00    0.0000000000000000E+00
             0.0000000000000000E+00    0.0000000000000000E+00    0.0000000000000000E+00
             0.0000000000000000E+00    0.0000000000000000E+00    0.0000000000000000E+00
             0.0000000000000000E+00    0.0000000000000000E+00    0.0000000000000000E+00
             0.0000000000000000E+00    0.0000000000000000E+00    0.0000000000000000E+00
             0.0000000000000000E+00    0.0000000000000000E+00    0.0000000000000000E+00
             0.0000000000000000E+00    0.0000000000000000E+00    0.0000000000000000E+00
             0.0000000000000000E+00    0.0000000000000000E+00    0.0000000000000000E+00