 # Version information for this restart file 
 # current date 2024-01-13 05:21:14.381
 # current working dir /gpfs/home/cahart/transport/melamine/au_from-h2/ci-neb/ts2-fixed/dft_leads-sz_tip-dzvp_surf-dzvp_kpoints-2-4-20_replicas-3
 # Program compiled at                              Thu 21 Sep 19:20:17 BST 2023
 # Program compiled on                                           hx1-c12-login-1
 # Program compiled for                                                    local
 # Source code revision number                                       git:5518aa6
 &GLOBAL
   EXTENDED_FFT_LENGTHS  T
   PRINT_LEVEL  MEDIUM
   PROJECT_NAME 2_dft_wfn-r-0
   OUTPUT_FILE_NAME 2_dft_wfn-r-0.out
   RUN_TYPE  BAND
 &END GLOBAL
 &MOTION
   &BAND
     NPROC_REP  64
     BAND_TYPE  CI-NEB
     NUMBER_OF_REPLICA  3
     K_SPRING     5.0000000000000003E-02
     &CI_NEB
       NSTEPS_IT  5
     &END CI_NEB
     &OPTIMIZE_BAND
       OPT_TYPE  DIIS
       &DIIS
         MAX_STEPS  1000
       &END DIIS
     &END OPTIMIZE_BAND
     &REPLICA
       &COORD
             0.0000000000000000E+00    0.0000000000000000E+00    0.0000000000000000E+00
             0.0000000000000000E+00    2.9549999999999970E+00    0.0000000000000000E+00
             0.0000000000000000E+00    5.9109999999999987E+00    0.0000000000000000E+00
             2.9560000000000004E+00    0.0000000000000000E+00    0.0000000000000000E+00
             2.9560000000000004E+00    2.9549999999999970E+00    0.0000000000000000E+00
             2.9560000000000004E+00    5.9109999999999987E+00    0.0000000000000000E+00
             5.9120000000000008E+00    0.0000000000000000E+00    0.0000000000000000E+00
             5.9120000000000008E+00    2.9549999999999970E+00    0.0000000000000000E+00
             5.9120000000000008E+00    5.9109999999999987E+00    0.0000000000000000E+00
             8.6700000000000088E+00    0.0000000000000000E+00    0.0000000000000000E+00
             8.6700000000000088E+00    2.9549999999999970E+00    0.0000000000000000E+00
             8.6700000000000088E+00    5.9109999999999987E+00    0.0000000000000000E+00
             1.1625999999999994E+01    0.0000000000000000E+00    0.0000000000000000E+00
             1.1625999999999994E+01    2.9549999999999970E+00    0.0000000000000000E+00
             1.1625999999999994E+01    5.9109999999999987E+00    0.0000000000000000E+00
             1.4780000000000002E+00    1.4780000000000002E+00    2.0899999999999990E+00
             1.4780000000000002E+00    4.4329999999999972E+00    2.0899999999999990E+00
             1.4780000000000002E+00    7.3890000000000038E+00    2.0899999999999990E+00
             4.4340000000000028E+00    1.4780000000000002E+00    2.0899999999999990E+00
             4.4340000000000028E+00    4.4329999999999972E+00    2.0899999999999990E+00
             4.4340000000000028E+00    7.3890000000000038E+00    2.0899999999999990E+00
             7.1919999999999948E+00    1.4780000000000002E+00    2.0899999999999990E+00
             7.1919999999999948E+00    4.4329999999999972E+00    2.0899999999999990E+00
             7.1919999999999948E+00    7.3890000000000038E+00    2.0899999999999990E+00
             1.0147999999999998E+01    1.4780000000000002E+00    2.0899999999999990E+00
             1.0147999999999998E+01    4.4329999999999972E+00    2.0899999999999990E+00
             1.0147999999999998E+01    7.3890000000000038E+00    2.0899999999999990E+00
             1.3104000000000006E+01    1.4780000000000002E+00    2.0899999999999990E+00
             1.3104000000000006E+01    4.4329999999999972E+00    2.0899999999999990E+00
             1.3104000000000006E+01    7.3890000000000038E+00    2.0899999999999990E+00
             0.0000000000000000E+00    0.0000000000000000E+00    4.1799999999999979E+00
             0.0000000000000000E+00    2.9549999999999970E+00    4.1799999999999979E+00
             0.0000000000000000E+00    5.9109999999999987E+00    4.1799999999999979E+00
             2.9560000000000004E+00    0.0000000000000000E+00    4.1799999999999979E+00
             2.9560000000000004E+00    2.9549999999999970E+00    4.1799999999999979E+00
             2.9560000000000004E+00    5.9109999999999987E+00    4.1799999999999979E+00
             5.9120000000000008E+00    0.0000000000000000E+00    4.1799999999999979E+00
             5.9120000000000008E+00    2.9549999999999970E+00    4.1799999999999979E+00
             5.9120000000000008E+00    5.9109999999999987E+00    4.1799999999999979E+00
             8.6700000000000088E+00    0.0000000000000000E+00    4.1799999999999979E+00
             8.6700000000000088E+00    2.9549999999999970E+00    4.1799999999999979E+00
             8.6700000000000088E+00    5.9109999999999987E+00    4.1799999999999979E+00
             1.1625999999999994E+01    0.0000000000000000E+00    4.1799999999999979E+00
             1.1625999999999994E+01    2.9549999999999970E+00    4.1799999999999979E+00
             1.1625999999999994E+01    5.9109999999999987E+00    4.1799999999999979E+00
             1.4780000000000002E+00    1.4780000000000002E+00    6.2699999999999978E+00
             1.4780000000000002E+00    4.4329999999999972E+00    6.2699999999999978E+00
             1.4780000000000002E+00    7.3890000000000038E+00    6.2699999999999978E+00
             4.4340000000000028E+00    1.4780000000000002E+00    6.2699999999999978E+00
             4.4340000000000028E+00    4.4329999999999972E+00    6.2699999999999978E+00
             4.4340000000000028E+00    7.3890000000000038E+00    6.2699999999999978E+00
             7.1919999999999948E+00    1.4780000000000002E+00    6.2699999999999978E+00
             7.1919999999999948E+00    4.4329999999999972E+00    6.2699999999999978E+00
             7.1919999999999948E+00    7.3890000000000038E+00    6.2699999999999978E+00
             1.0147999999999998E+01    1.4780000000000002E+00    6.2699999999999978E+00
             1.0147999999999998E+01    4.4329999999999972E+00    6.2699999999999978E+00
             1.0147999999999998E+01    7.3890000000000038E+00    6.2699999999999978E+00
             1.3104000000000006E+01    1.4780000000000002E+00    6.2699999999999978E+00
             1.3104000000000006E+01    4.4329999999999972E+00    6.2699999999999978E+00
             1.3104000000000006E+01    7.3890000000000038E+00    6.2699999999999978E+00
             0.0000000000000000E+00    0.0000000000000000E+00    8.3599999999999959E+00
             0.0000000000000000E+00    2.9549999999999970E+00    8.3599999999999959E+00
             0.0000000000000000E+00    5.9109999999999987E+00    8.3599999999999959E+00
             2.9560000000000004E+00    0.0000000000000000E+00    8.3599999999999959E+00
             2.9560000000000004E+00    2.9549999999999970E+00    8.3599999999999959E+00
             2.9560000000000004E+00    5.9109999999999987E+00    8.3599999999999959E+00
             5.9120000000000008E+00    0.0000000000000000E+00    8.3599999999999959E+00
             5.9120000000000008E+00    2.9549999999999970E+00    8.3599999999999959E+00
             5.9120000000000008E+00    5.9109999999999987E+00    8.3599999999999959E+00
             8.6700000000000088E+00    0.0000000000000000E+00    8.3599999999999959E+00
             8.6700000000000088E+00    2.9549999999999970E+00    8.3599999999999959E+00
             8.6700000000000088E+00    5.9109999999999987E+00    8.3599999999999959E+00
             1.1625999999999994E+01    0.0000000000000000E+00    8.3599999999999959E+00
             1.1625999999999994E+01    2.9549999999999970E+00    8.3599999999999959E+00
             1.1625999999999994E+01    5.9109999999999987E+00    8.3599999999999959E+00
             1.4780000000000002E+00    1.4780000000000002E+00    1.0449999999999989E+01
             1.4780000000000002E+00    4.4329999999999972E+00    1.0449999999999989E+01
             1.4780000000000002E+00    7.3890000000000038E+00    1.0449999999999989E+01
             4.4340000000000028E+00    1.4780000000000002E+00    1.0449999999999989E+01
             4.4340000000000028E+00    4.4329999999999972E+00    1.0449999999999989E+01
             4.4340000000000028E+00    7.3890000000000038E+00    1.0449999999999989E+01
             7.1919999999999948E+00    1.4780000000000002E+00    1.0449999999999989E+01
             7.1919999999999948E+00    4.4329999999999972E+00    1.0449999999999989E+01
             7.1919999999999948E+00    7.3890000000000038E+00    1.0449999999999989E+01
             1.0147999999999998E+01    1.4780000000000002E+00    1.0449999999999989E+01
             1.0147999999999998E+01    4.4329999999999972E+00    1.0449999999999989E+01
             1.0147999999999998E+01    7.3890000000000038E+00    1.0449999999999989E+01
             1.3104000000000006E+01    1.4780000000000002E+00    1.0449999999999989E+01
             1.3104000000000006E+01    4.4329999999999972E+00    1.0449999999999989E+01
             1.3104000000000006E+01    7.3890000000000038E+00    1.0449999999999989E+01
             4.8554000000000022E+00    5.9118999999999993E+00    1.2031800000000004E+01
             9.5280000000000040E+00    5.9136999999999986E+00    1.2034000000000013E+01
             7.1919999999999948E+00    5.9340000000000028E+00    1.2039999999999992E+01
             4.0673339927999983E+00    5.9059993220000075E+00    1.2687741368899980E+01
             1.0318905404799994E+01    5.9087793825999970E+00    1.2685747073200005E+01
             5.9989554222000026E+00    5.9152564165999948E+00    1.2792642411199992E+01
             8.3738707292999965E+00    5.9179777706999950E+00    1.2731457252200004E+01
             8.3227525762000081E+00    5.9051536094999975E+00    1.4080497642100006E+01
             5.9344285048999978E+00    5.8981604865000001E+00    1.4101749969600009E+01
             7.1039653576999928E+00    5.8899410689000042E+00    1.4828703219099989E+01
             7.2416021047000063E+00    5.8657702091999946E+00    1.6106466757300002E+01
             6.3118250322999963E+00    5.8547577070999930E+00    1.6539601306200009E+01
             9.1743570612999950E+00    5.8876302391999928E+00    1.4641017735299993E+01
             7.3119999999999967E+00    5.9340000000000028E+00    2.1043000000000013E+01
             5.8129999999999971E+00    7.4339999999999948E+00    2.2991999999999990E+01
             8.8129999999999882E+00    4.4340000000000028E+00    2.2991999999999990E+01
             5.8129999999999971E+00    4.4329999999999972E+00    2.2991999999999990E+01
             8.8129999999999882E+00    7.4339999999999948E+00    2.2991999999999990E+01
             1.4780000000000002E+00    1.4780000000000002E+00    2.5082000000000008E+01
             1.4780000000000002E+00    4.4329999999999972E+00    2.5082000000000008E+01
             1.4780000000000002E+00    7.3890000000000038E+00    2.5082000000000008E+01
             4.4340000000000028E+00    1.4780000000000002E+00    2.5082000000000008E+01
             4.4340000000000028E+00    4.4329999999999972E+00    2.5082000000000008E+01
             4.4340000000000028E+00    7.3890000000000038E+00    2.5082000000000008E+01
             7.1919999999999948E+00    1.4780000000000002E+00    2.5082000000000008E+01
             7.1919999999999948E+00    4.4329999999999972E+00    2.5082000000000008E+01
             7.1919999999999948E+00    7.3890000000000038E+00    2.5082000000000008E+01
             1.0147999999999998E+01    1.4780000000000002E+00    2.5082000000000008E+01
             1.0147999999999998E+01    4.4329999999999972E+00    2.5082000000000008E+01
             1.0147999999999998E+01    7.3890000000000038E+00    2.5082000000000008E+01
             1.3104000000000006E+01    1.4780000000000002E+00    2.5082000000000008E+01
             1.3104000000000006E+01    4.4329999999999972E+00    2.5082000000000008E+01
             1.3104000000000006E+01    7.3890000000000038E+00    2.5082000000000008E+01
             0.0000000000000000E+00    0.0000000000000000E+00    2.7172000000000015E+01
             0.0000000000000000E+00    2.9549999999999970E+00    2.7172000000000015E+01
             0.0000000000000000E+00    5.9109999999999987E+00    2.7172000000000015E+01
             2.9560000000000004E+00    0.0000000000000000E+00    2.7172000000000015E+01
             2.9560000000000004E+00    2.9549999999999970E+00    2.7172000000000015E+01
             2.9560000000000004E+00    5.9109999999999987E+00    2.7172000000000015E+01
             5.9120000000000008E+00    0.0000000000000000E+00    2.7172000000000015E+01
             5.9120000000000008E+00    2.9549999999999970E+00    2.7172000000000015E+01
             5.9120000000000008E+00    5.9109999999999987E+00    2.7172000000000015E+01
             8.6700000000000088E+00    0.0000000000000000E+00    2.7172000000000015E+01
             8.6700000000000088E+00    2.9549999999999970E+00    2.7172000000000015E+01
             8.6700000000000088E+00    5.9109999999999987E+00    2.7172000000000015E+01
             1.1625999999999994E+01    0.0000000000000000E+00    2.7172000000000015E+01
             1.1625999999999994E+01    2.9549999999999970E+00    2.7172000000000015E+01
             1.1625999999999994E+01    5.9109999999999987E+00    2.7172000000000015E+01
             1.4780000000000002E+00    1.4780000000000002E+00    2.9262000000000040E+01
             1.4780000000000002E+00    4.4329999999999972E+00    2.9262000000000040E+01
             1.4780000000000002E+00    7.3890000000000038E+00    2.9262000000000040E+01
             4.4340000000000028E+00    1.4780000000000002E+00    2.9262000000000040E+01
             4.4340000000000028E+00    4.4329999999999972E+00    2.9262000000000040E+01
             4.4340000000000028E+00    7.3890000000000038E+00    2.9262000000000040E+01
             7.1919999999999948E+00    1.4780000000000002E+00    2.9262000000000040E+01
             7.1919999999999948E+00    4.4329999999999972E+00    2.9262000000000040E+01
             7.1919999999999948E+00    7.3890000000000038E+00    2.9262000000000040E+01
             1.0147999999999998E+01    1.4780000000000002E+00    2.9262000000000040E+01
             1.0147999999999998E+01    4.4329999999999972E+00    2.9262000000000040E+01
             1.0147999999999998E+01    7.3890000000000038E+00    2.9262000000000040E+01
             1.3104000000000006E+01    1.4780000000000002E+00    2.9262000000000040E+01
             1.3104000000000006E+01    4.4329999999999972E+00    2.9262000000000040E+01
             1.3104000000000006E+01    7.3890000000000038E+00    2.9262000000000040E+01
             0.0000000000000000E+00    0.0000000000000000E+00    3.1351999999999972E+01
             0.0000000000000000E+00    2.9549999999999970E+00    3.1351999999999972E+01
             0.0000000000000000E+00    5.9109999999999987E+00    3.1351999999999972E+01
             2.9560000000000004E+00    0.0000000000000000E+00    3.1351999999999972E+01
             2.9560000000000004E+00    2.9549999999999970E+00    3.1351999999999972E+01
             2.9560000000000004E+00    5.9109999999999987E+00    3.1351999999999972E+01
             5.9120000000000008E+00    0.0000000000000000E+00    3.1351999999999972E+01
             5.9120000000000008E+00    2.9549999999999970E+00    3.1351999999999972E+01
             5.9120000000000008E+00    5.9109999999999987E+00    3.1351999999999972E+01
             8.6700000000000088E+00    0.0000000000000000E+00    3.1351999999999972E+01
             8.6700000000000088E+00    2.9549999999999970E+00    3.1351999999999972E+01
             8.6700000000000088E+00    5.9109999999999987E+00    3.1351999999999972E+01
             1.1625999999999994E+01    0.0000000000000000E+00    3.1351999999999972E+01
             1.1625999999999994E+01    2.9549999999999970E+00    3.1351999999999972E+01
             1.1625999999999994E+01    5.9109999999999987E+00    3.1351999999999972E+01
             1.4780000000000002E+00    1.4780000000000002E+00    3.3442000000000036E+01
             1.4780000000000002E+00    4.4329999999999972E+00    3.3442000000000036E+01
             1.4780000000000002E+00    7.3890000000000038E+00    3.3442000000000036E+01
             4.4340000000000028E+00    1.4780000000000002E+00    3.3442000000000036E+01
             4.4340000000000028E+00    4.4329999999999972E+00    3.3442000000000036E+01
             4.4340000000000028E+00    7.3890000000000038E+00    3.3442000000000036E+01
             7.1919999999999948E+00    1.4780000000000002E+00    3.3442000000000036E+01
             7.1919999999999948E+00    4.4329999999999972E+00    3.3442000000000036E+01
             7.1919999999999948E+00    7.3890000000000038E+00    3.3442000000000036E+01
             1.0147999999999998E+01    1.4780000000000002E+00    3.3442000000000036E+01
             1.0147999999999998E+01    4.4329999999999972E+00    3.3442000000000036E+01
             1.0147999999999998E+01    7.3890000000000038E+00    3.3442000000000036E+01
             1.3104000000000006E+01    1.4780000000000002E+00    3.3442000000000036E+01
             1.3104000000000006E+01    4.4329999999999972E+00    3.3442000000000036E+01
             1.3104000000000006E+01    7.3890000000000038E+00    3.3442000000000036E+01
       &END COORD
       &VELOCITY
             0.0000000000000000E+00    0.0000000000000000E+00    0.0000000000000000E+00
             0.0000000000000000E+00    0.0000000000000000E+00    0.0000000000000000E+00
             0.0000000000000000E+00    0.0000000000000000E+00    0.0000000000000000E+00
             0.0000000000000000E+00    0.0000000000000000E+00    0.0000000000000000E+00
             0.0000000000000000E+00    0.0000000000000000E+00    0.0000000000000000E+00
             0.0000000000000000E+00    0.0000000000000000E+00    0.0000000000000000E+00
             0.0000000000000000E+00    0.0000000000000000E+00    0.0000000000000000E+00
             0.0000000000000000E+00    0.0000000000000000E+00    0.0000000000000000E+00
             0.0000000000000000E+00    0.0000000000000000E+00    0.0000000000000000E+00
             0.0000000000000000E+00    0.0000000000000000E+00    0.0000000000000000E+00
             0.0000000000000000E+00    0.0000000000000000E+00    0.0000000000000000E+00
             0.0000000000000000E+00    0.0000000000000000E+00    0.0000000000000000E+00
             0.0000000000000000E+00    0.0000000000000000E+00    0.0000000000000000E+00
             0.0000000000000000E+00    0.0000000000000000E+00    0.0000000000000000E+00
             0.0000000000000000E+00    0.0000000000000000E+00    0.0000000000000000E+00
             0.0000000000000000E+00    0.0000000000000000E+00    0.0000000000000000E+00
             0.0000000000000000E+00    0.0000000000000000E+00    0.0000000000000000E+00
             0.0000000000000000E+00    0.0000000000000000E+00    0.0000000000000000E+00
             0.0000000000000000E+00    0.0000000000000000E+00    0.0000000000000000E+00
             0.0000000000000000E+00    0.0000000000000000E+00    0.0000000000000000E+00
             0.0000000000000000E+00    0.0000000000000000E+00    0.0000000000000000E+00
             0.0000000000000000E+00    0.0000000000000000E+00    0.0000000000000000E+00
             0.0000000000000000E+00    0.0000000000000000E+00    0.0000000000000000E+00
             0.0000000000000000E+00    0.0000000000000000E+00    0.0000000000000000E+00
             0.0000000000000000E+00    0.0000000000000000E+00    0.0000000000000000E+00
             0.0000000000000000E+00    0.0000000000000000E+00    0.0000000000000000E+00
             0.0000000000000000E+00    0.0000000000000000E+00    0.0000000000000000E+00
             0.0000000000000000E+00    0.0000000000000000E+00    0.0000000000000000E+00
             0.0000000000000000E+00    0.0000000000000000E+00    0.0000000000000000E+00
             0.0000000000000000E+00    0.0000000000000000E+00    0.0000000000000000E+00
             0.0000000000000000E+00    0.0000000000000000E+00    0.0000000000000000E+00
             0.0000000000000000E+00    0.0000000000000000E+00    0.0000000000000000E+00
             0.0000000000000000E+00    0.0000000000000000E+00    0.0000000000000000E+00
             0.0000000000000000E+00    0.0000000000000000E+00    0.0000000000000000E+00
             0.0000000000000000E+00    0.0000000000000000E+00    0.0000000000000000E+00
             0.0000000000000000E+00    0.0000000000000000E+00    0.0000000000000000E+00
             0.0000000000000000E+00    0.0000000000000000E+00    0.0000000000000000E+00
             0.0000000000000000E+00    0.0000000000000000E+00    0.0000000000000000E+00
             0.0000000000000000E+00    0.0000000000000000E+00    0.0000000000000000E+00
             0.0000000000000000E+00    0.0000000000000000E+00    0.0000000000000000E+00
             0.0000000000000000E+00    0.0000000000000000E+00    0.0000000000000000E+00
             0.0000000000000000E+00    0.0000000000000000E+00    0.0000000000000000E+00
             0.0000000000000000E+00    0.0000000000000000E+00    0.0000000000000000E+00
             0.0000000000000000E+00    0.0000000000000000E+00    0.0000000000000000E+00
             0.0000000000000000E+00    0.0000000000000000E+00    0.0000000000000000E+00
             0.0000000000000000E+00    0.0000000000000000E+00    0.0000000000000000E+00
             0.0000000000000000E+00    0.0000000000000000E+00    0.0000000000000000E+00
             0.0000000000000000E+00    0.0000000000000000E+00    0.0000000000000000E+00
             0.0000000000000000E+00    0.0000000000000000E+00    0.0000000000000000E+00
             0.0000000000000000E+00    0.0000000000000000E+00    0.0000000000000000E+00
             0.0000000000000000E+00    0.0000000000000000E+00    0.0000000000000000E+00
             0.0000000000000000E+00    0.0000000000000000E+00    0.0000000000000000E+00
             0.0000000000000000E+00    0.0000000000000000E+00    0.0000000000000000E+00
             0.0000000000000000E+00    0.0000000000000000E+00    0.0000000000000000E+00
             0.0000000000000000E+00    0.0000000000000000E+00    0.0000000000000000E+00
             0.0000000000000000E+00    0.0000000000000000E+00    0.0000000000000000E+00
             0.0000000000000000E+00    0.0000000000000000E+00    0.0000000000000000E+00
             0.0000000000000000E+00    0.0000000000000000E+00    0.0000000000000000E+00
             0.0000000000000000E+00    0.0000000000000000E+00    0.0000000000000000E+00
             0.0000000000000000E+00    0.0000000000000000E+00    0.0000000000000000E+00
             0.0000000000000000E+00    0.0000000000000000E+00    0.0000000000000000E+00
             0.0000000000000000E+00    0.0000000000000000E+00    0.0000000000000000E+00
             0.0000000000000000E+00    0.0000000000000000E+00    0.0000000000000000E+00
             0.0000000000000000E+00    0.0000000000000000E+00    0.0000000000000000E+00
             0.0000000000000000E+00    0.0000000000000000E+00    0.0000000000000000E+00
             0.0000000000000000E+00    0.0000000000000000E+00    0.0000000000000000E+00
             0.0000000000000000E+00    0.0000000000000000E+00    0.0000000000000000E+00
             0.0000000000000000E+00    0.0000000000000000E+00    0.0000000000000000E+00
             0.0000000000000000E+00    0.0000000000000000E+00    0.0000000000000000E+00
             0.0000000000000000E+00    0.0000000000000000E+00    0.0000000000000000E+00
             0.0000000000000000E+00    0.0000000000000000E+00    0.0000000000000000E+00
             0.0000000000000000E+00    0.0000000000000000E+00    0.0000000000000000E+00
             0.0000000000000000E+00    0.0000000000000000E+00    0.0000000000000000E+00
             0.0000000000000000E+00    0.0000000000000000E+00    0.0000000000000000E+00
             0.0000000000000000E+00    0.0000000000000000E+00    0.0000000000000000E+00
             0.0000000000000000E+00    0.0000000000000000E+00    0.0000000000000000E+00
             0.0000000000000000E+00    0.0000000000000000E+00    0.0000000000000000E+00
             0.0000000000000000E+00    0.0000000000000000E+00    0.0000000000000000E+00
             0.0000000000000000E+00    0.0000000000000000E+00    0.0000000000000000E+00
             0.0000000000000000E+00    0.0000000000000000E+00    0.0000000000000000E+00
             0.0000000000000000E+00    0.0000000000000000E+00    0.0000000000000000E+00
             0.0000000000000000E+00    0.0000000000000000E+00    0.0000000000000000E+00
             0.0000000000000000E+00    0.0000000000000000E+00    0.0000000000000000E+00
             0.0000000000000000E+00    0.0000000000000000E+00    0.0000000000000000E+00
             0.0000000000000000E+00    0.0000000000000000E+00    0.0000000000000000E+00
             0.0000000000000000E+00    0.0000000000000000E+00    0.0000000000000000E+00
             0.0000000000000000E+00    0.0000000000000000E+00    0.0000000000000000E+00
             0.0000000000000000E+00    0.0000000000000000E+00    0.0000000000000000E+00
             0.0000000000000000E+00    0.0000000000000000E+00    0.0000000000000000E+00
             0.0000000000000000E+00    0.0000000000000000E+00    0.0000000000000000E+00
             0.0000000000000000E+00    0.0000000000000000E+00    0.0000000000000000E+00
             0.0000000000000000E+00    0.0000000000000000E+00    0.0000000000000000E+00
             0.0000000000000000E+00    0.0000000000000000E+00    0.0000000000000000E+00
             0.0000000000000000E+00    0.0000000000000000E+00    0.0000000000000000E+00
             0.0000000000000000E+00    0.0000000000000000E+00    0.0000000000000000E+00
             0.0000000000000000E+00    0.0000000000000000E+00    0.0000000000000000E+00
             0.0000000000000000E+00    0.0000000000000000E+00    0.0000000000000000E+00
             0.0000000000000000E+00    0.0000000000000000E+00    0.0000000000000000E+00
             0.0000000000000000E+00    0.0000000000000000E+00    0.0000000000000000E+00
             0.0000000000000000E+00    0.0000000000000000E+00    0.0000000000000000E+00
             0.0000000000000000E+00    0.0000000000000000E+00    0.0000000000000000E+00
             0.0000000000000000E+00    0.0000000000000000E+00    0.0000000000000000E+00
             0.0000000000000000E+00    0.0000000000000000E+00    0.0000000000000000E+00
             0.0000000000000000E+00    0.0000000000000000E+00    0.0000000000000000E+00
             0.0000000000000000E+00    0.0000000000000000E+00    0.0000000000000000E+00
             0.0000000000000000E+00    0.0000000000000000E+00    0.0000000000000000E+00
             0.0000000000000000E+00    0.0000000000000000E+00    0.0000000000000000E+00
             0.0000000000000000E+00    0.0000000000000000E+00    0.0000000000000000E+00
             0.0000000000000000E+00    0.0000000000000000E+00    0.0000000000000000E+00
             0.0000000000000000E+00    0.0000000000000000E+00    0.0000000000000000E+00
             0.0000000000000000E+00    0.0000000000000000E+00    0.0000000000000000E+00
             0.0000000000000000E+00    0.0000000000000000E+00    0.0000000000000000E+00
             0.0000000000000000E+00    0.0000000000000000E+00    0.0000000000000000E+00
             0.0000000000000000E+00    0.0000000000000000E+00    0.0000000000000000E+00
             0.0000000000000000E+00    0.0000000000000000E+00    0.0000000000000000E+00
             0.0000000000000000E+00    0.0000000000000000E+00    0.0000000000000000E+00
             0.0000000000000000E+00    0.0000000000000000E+00    0.0000000000000000E+00
             0.0000000000000000E+00    0.0000000000000000E+00    0.0000000000000000E+00
             0.0000000000000000E+00    0.0000000000000000E+00    0.0000000000000000E+00
             0.0000000000000000E+00    0.0000000000000000E+00    0.0000000000000000E+00
             0.0000000000000000E+00    0.0000000000000000E+00    0.0000000000000000E+00
             0.0000000000000000E+00    0.0000000000000000E+00    0.0000000000000000E+00
             0.0000000000000000E+00    0.0000000000000000E+00    0.0000000000000000E+00
             0.0000000000000000E+00    0.0000000000000000E+00    0.0000000000000000E+00
             0.0000000000000000E+00    0.0000000000000000E+00    0.0000000000000000E+00
             0.0000000000000000E+00    0.0000000000000000E+00    0.0000000000000000E+00
             0.0000000000000000E+00    0.0000000000000000E+00    0.0000000000000000E+00
             0.0000000000000000E+00    0.0000000000000000E+00    0.0000000000000000E+00
             0.0000000000000000E+00    0.0000000000000000E+00    0.0000000000000000E+00
             0.0000000000000000E+00    0.0000000000000000E+00    0.0000000000000000E+00
             0.0000000000000000E+00    0.0000000000000000E+00    0.0000000000000000E+00
             0.0000000000000000E+00    0.0000000000000000E+00    0.0000000000000000E+00
             0.0000000000000000E+00    0.0000000000000000E+00    0.0000000000000000E+00
             0.0000000000000000E+00    0.0000000000000000E+00    0.0000000000000000E+00
             0.0000000000000000E+00    0.0000000000000000E+00    0.0000000000000000E+00
             0.0000000000000000E+00    0.0000000000000000E+00    0.0000000000000000E+00
             0.0000000000000000E+00    0.0000000000000000E+00    0.0000000000000000E+00
             0.0000000000000000E+00    0.0000000000000000E+00    0.0000000000000000E+00
             0.0000000000000000E+00    0.0000000000000000E+00    0.0000000000000000E+00
             0.0000000000000000E+00    0.0000000000000000E+00    0.0000000000000000E+00
             0.0000000000000000E+00    0.0000000000000000E+00    0.0000000000000000E+00
             0.0000000000000000E+00    0.0000000000000000E+00    0.0000000000000000E+00
             0.0000000000000000E+00    0.0000000000000000E+00    0.0000000000000000E+00
             0.0000000000000000E+00    0.0000000000000000E+00    0.0000000000000000E+00
             0.0000000000000000E+00    0.0000000000000000E+00    0.0000000000000000E+00