 # Version information for this restart file 
 # current date 2024-01-13 05:49:47.085
 # current working dir /gpfs/home/cahart/transport/melamine/au_from-h2/ci-neb/ts2-fixed/dft_leads-sz_tip-dzvp_surf-dzvp_kpoints-2-4-20_replicas-3
 # Program compiled at                              Thu 21 Sep 19:20:17 BST 2023
 # Program compiled on                                           hx1-c12-login-1
 # Program compiled for                                                    local
 # Source code revision number                                       git:5518aa6
 &GLOBAL
   EXTENDED_FFT_LENGTHS  T
   PRINT_LEVEL  MEDIUM
   PROJECT_NAME 2_dft_wfn-r-0
   OUTPUT_FILE_NAME 2_dft_wfn-r-0.out
   RUN_TYPE  BAND
 &END GLOBAL
 &MOTION
   &BAND
     NPROC_REP  64
     BAND_TYPE  CI-NEB
     NUMBER_OF_REPLICA  3
     K_SPRING     5.0000000000000003E-02
     &CI_NEB
       NSTEPS_IT  5
     &END CI_NEB
     &OPTIMIZE_BAND
       OPT_TYPE  DIIS
       &DIIS
         MAX_STEPS  1000
       &END DIIS
     &END OPTIMIZE_BAND
     &REPLICA
       &COORD
             0.0000000000000000E+00    0.0000000000000000E+00    0.0000000000000000E+00
             0.0000000000000000E+00    2.9549999999999983E+00    0.0000000000000000E+00
             0.0000000000000000E+00    5.9110000000000014E+00    0.0000000000000000E+00
             2.9560000000000017E+00    0.0000000000000000E+00    0.0000000000000000E+00
             2.9560000000000017E+00    2.9549999999999983E+00    0.0000000000000000E+00
             2.9560000000000017E+00    5.9110000000000014E+00    0.0000000000000000E+00
             5.9120000000000035E+00    0.0000000000000000E+00    0.0000000000000000E+00
             5.9120000000000035E+00    2.9549999999999983E+00    0.0000000000000000E+00
             5.9120000000000035E+00    5.9110000000000014E+00    0.0000000000000000E+00
             8.6700000000000106E+00    0.0000000000000000E+00    0.0000000000000000E+00
             8.6700000000000106E+00    2.9549999999999983E+00    0.0000000000000000E+00
             8.6700000000000106E+00    5.9110000000000014E+00    0.0000000000000000E+00
             1.1625999999999999E+01    0.0000000000000000E+00    0.0000000000000000E+00
             1.1625999999999999E+01    2.9549999999999983E+00    0.0000000000000000E+00
             1.1625999999999999E+01    5.9110000000000014E+00    0.0000000000000000E+00
             1.4780000000000009E+00    1.4780000000000009E+00    2.0899999999999999E+00
             1.4780000000000009E+00    4.4329999999999998E+00    2.0899999999999999E+00
             1.4780000000000009E+00    7.3890000000000065E+00    2.0899999999999999E+00
             4.4340000000000064E+00    1.4780000000000009E+00    2.0899999999999999E+00
             4.4340000000000064E+00    4.4329999999999998E+00    2.0899999999999999E+00
             4.4340000000000064E+00    7.3890000000000065E+00    2.0899999999999999E+00
             7.1919999999999966E+00    1.4780000000000009E+00    2.0899999999999999E+00
             7.1919999999999966E+00    4.4329999999999998E+00    2.0899999999999999E+00
             7.1919999999999966E+00    7.3890000000000065E+00    2.0899999999999999E+00
             1.0148000000000001E+01    1.4780000000000009E+00    2.0899999999999999E+00
             1.0148000000000001E+01    4.4329999999999998E+00    2.0899999999999999E+00
             1.0148000000000001E+01    7.3890000000000065E+00    2.0899999999999999E+00
             1.3104000000000012E+01    1.4780000000000009E+00    2.0899999999999999E+00
             1.3104000000000012E+01    4.4329999999999998E+00    2.0899999999999999E+00
             1.3104000000000012E+01    7.3890000000000065E+00    2.0899999999999999E+00
             0.0000000000000000E+00    0.0000000000000000E+00    4.1799999999999997E+00
             0.0000000000000000E+00    2.9549999999999983E+00    4.1799999999999997E+00
             0.0000000000000000E+00    5.9110000000000014E+00    4.1799999999999997E+00
             2.9560000000000017E+00    0.0000000000000000E+00    4.1799999999999997E+00
             2.9560000000000017E+00    2.9549999999999983E+00    4.1799999999999997E+00
             2.9560000000000017E+00    5.9110000000000014E+00    4.1799999999999997E+00
             5.9120000000000035E+00    0.0000000000000000E+00    4.1799999999999997E+00
             5.9120000000000035E+00    2.9549999999999983E+00    4.1799999999999997E+00
             5.9120000000000035E+00    5.9110000000000014E+00    4.1799999999999997E+00
             8.6700000000000106E+00    0.0000000000000000E+00    4.1799999999999997E+00
             8.6700000000000106E+00    2.9549999999999983E+00    4.1799999999999997E+00
             8.6700000000000106E+00    5.9110000000000014E+00    4.1799999999999997E+00
             1.1625999999999999E+01    0.0000000000000000E+00    4.1799999999999997E+00
             1.1625999999999999E+01    2.9549999999999983E+00    4.1799999999999997E+00
             1.1625999999999999E+01    5.9110000000000014E+00    4.1799999999999997E+00
             1.4780000000000009E+00    1.4780000000000009E+00    6.2700000000000005E+00
             1.4780000000000009E+00    4.4329999999999998E+00    6.2700000000000005E+00
             1.4780000000000009E+00    7.3890000000000065E+00    6.2700000000000005E+00
             4.4340000000000064E+00    1.4780000000000009E+00    6.2700000000000005E+00
             4.4340000000000064E+00    4.4329999999999998E+00    6.2700000000000005E+00
             4.4340000000000064E+00    7.3890000000000065E+00    6.2700000000000005E+00
             7.1919999999999966E+00    1.4780000000000009E+00    6.2700000000000005E+00
             7.1919999999999966E+00    4.4329999999999998E+00    6.2700000000000005E+00
             7.1919999999999966E+00    7.3890000000000065E+00    6.2700000000000005E+00
             1.0148000000000001E+01    1.4780000000000009E+00    6.2700000000000005E+00
             1.0148000000000001E+01    4.4329999999999998E+00    6.2700000000000005E+00
             1.0148000000000001E+01    7.3890000000000065E+00    6.2700000000000005E+00
             1.3104000000000012E+01    1.4780000000000009E+00    6.2700000000000005E+00
             1.3104000000000012E+01    4.4329999999999998E+00    6.2700000000000005E+00
             1.3104000000000012E+01    7.3890000000000065E+00    6.2700000000000005E+00
             0.0000000000000000E+00    0.0000000000000000E+00    8.3599999999999994E+00
             0.0000000000000000E+00    2.9549999999999983E+00    8.3599999999999994E+00
             0.0000000000000000E+00    5.9110000000000014E+00    8.3599999999999994E+00
             2.9560000000000017E+00    0.0000000000000000E+00    8.3599999999999994E+00
             2.9560000000000017E+00    2.9549999999999983E+00    8.3599999999999994E+00
             2.9560000000000017E+00    5.9110000000000014E+00    8.3599999999999994E+00
             5.9120000000000035E+00    0.0000000000000000E+00    8.3599999999999994E+00
             5.9120000000000035E+00    2.9549999999999983E+00    8.3599999999999994E+00
             5.9120000000000035E+00    5.9110000000000014E+00    8.3599999999999994E+00
             8.6700000000000106E+00    0.0000000000000000E+00    8.3599999999999994E+00
             8.6700000000000106E+00    2.9549999999999983E+00    8.3599999999999994E+00
             8.6700000000000106E+00    5.9110000000000014E+00    8.3599999999999994E+00
             1.1625999999999999E+01    0.0000000000000000E+00    8.3599999999999994E+00
             1.1625999999999999E+01    2.9549999999999983E+00    8.3599999999999994E+00
             1.1625999999999999E+01    5.9110000000000014E+00    8.3599999999999994E+00
             1.4780000000000009E+00    1.4780000000000009E+00    1.0449999999999992E+01
             1.4780000000000009E+00    4.4329999999999998E+00    1.0449999999999992E+01
             1.4780000000000009E+00    7.3890000000000065E+00    1.0449999999999992E+01
             4.4340000000000064E+00    1.4780000000000009E+00    1.0449999999999992E+01
             4.4340000000000064E+00    4.4329999999999998E+00    1.0449999999999992E+01
             4.4340000000000064E+00    7.3890000000000065E+00    1.0449999999999992E+01
             7.1919999999999966E+00    1.4780000000000009E+00    1.0449999999999992E+01
             7.1919999999999966E+00    4.4329999999999998E+00    1.0449999999999992E+01
             7.1919999999999966E+00    7.3890000000000065E+00    1.0449999999999992E+01
             1.0148000000000001E+01    1.4780000000000009E+00    1.0449999999999992E+01
             1.0148000000000001E+01    4.4329999999999998E+00    1.0449999999999992E+01
             1.0148000000000001E+01    7.3890000000000065E+00    1.0449999999999992E+01
             1.3104000000000012E+01    1.4780000000000009E+00    1.0449999999999992E+01
             1.3104000000000012E+01    4.4329999999999998E+00    1.0449999999999992E+01
             1.3104000000000012E+01    7.3890000000000065E+00    1.0449999999999992E+01
             4.8554000000000039E+00    5.9119000000000019E+00    1.2031800000000008E+01
             9.5280000000000094E+00    5.9137000000000022E+00    1.2034000000000017E+01
             7.1919999999999966E+00    5.9340000000000055E+00    1.2039999999999996E+01
             4.0673339928000010E+00    5.9059993220000102E+00    1.2687741368899985E+01
             1.0318905404799999E+01    5.9087793825999988E+00    1.2685747073200011E+01
             5.9989554222000052E+00    5.9152564165999983E+00    1.2792642411199999E+01
             8.3738707293000001E+00    5.9179777706999985E+00    1.2731457252200009E+01
             8.3227525762000099E+00    5.9051536095000001E+00    1.4080497642100013E+01
             5.9344285049000014E+00    5.8981604865000028E+00    1.4101749969600016E+01
             7.1039653576999964E+00    5.8899410689000060E+00    1.4828703219099996E+01
             7.2416021047000099E+00    5.8657702091999964E+00    1.6106466757300009E+01
             6.3118250322999980E+00    5.8547577070999957E+00    1.6539601306200012E+01
             9.1743570612999985E+00    5.8876302391999964E+00    1.4641017735300000E+01
             7.3119999999999994E+00    5.9340000000000055E+00    2.1043000000000028E+01
             5.8129999999999997E+00    7.4339999999999984E+00    2.2991999999999997E+01
             8.8129999999999935E+00    4.4340000000000064E+00    2.2991999999999997E+01
             5.8129999999999997E+00    4.4329999999999998E+00    2.2991999999999997E+01
             8.8129999999999935E+00    7.4339999999999984E+00    2.2991999999999997E+01
             1.4780000000000009E+00    1.4780000000000009E+00    2.5082000000000019E+01
             1.4780000000000009E+00    4.4329999999999998E+00    2.5082000000000019E+01
             1.4780000000000009E+00    7.3890000000000065E+00    2.5082000000000019E+01
             4.4340000000000064E+00    1.4780000000000009E+00    2.5082000000000019E+01
             4.4340000000000064E+00    4.4329999999999998E+00    2.5082000000000019E+01
             4.4340000000000064E+00    7.3890000000000065E+00    2.5082000000000019E+01
             7.1919999999999966E+00    1.4780000000000009E+00    2.5082000000000019E+01
             7.1919999999999966E+00    4.4329999999999998E+00    2.5082000000000019E+01
             7.1919999999999966E+00    7.3890000000000065E+00    2.5082000000000019E+01
             1.0148000000000001E+01    1.4780000000000009E+00    2.5082000000000019E+01
             1.0148000000000001E+01    4.4329999999999998E+00    2.5082000000000019E+01
             1.0148000000000001E+01    7.3890000000000065E+00    2.5082000000000019E+01
             1.3104000000000012E+01    1.4780000000000009E+00    2.5082000000000019E+01
             1.3104000000000012E+01    4.4329999999999998E+00    2.5082000000000019E+01
             1.3104000000000012E+01    7.3890000000000065E+00    2.5082000000000019E+01
             0.0000000000000000E+00    0.0000000000000000E+00    2.7172000000000022E+01
             0.0000000000000000E+00    2.9549999999999983E+00    2.7172000000000022E+01
             0.0000000000000000E+00    5.9110000000000014E+00    2.7172000000000022E+01
             2.9560000000000017E+00    0.0000000000000000E+00    2.7172000000000022E+01
             2.9560000000000017E+00    2.9549999999999983E+00    2.7172000000000022E+01
             2.9560000000000017E+00    5.9110000000000014E+00    2.7172000000000022E+01
             5.9120000000000035E+00    0.0000000000000000E+00    2.7172000000000022E+01
             5.9120000000000035E+00    2.9549999999999983E+00    2.7172000000000022E+01
             5.9120000000000035E+00    5.9110000000000014E+00    2.7172000000000022E+01
             8.6700000000000106E+00    0.0000000000000000E+00    2.7172000000000022E+01
             8.6700000000000106E+00    2.9549999999999983E+00    2.7172000000000022E+01
             8.6700000000000106E+00    5.9110000000000014E+00    2.7172000000000022E+01
             1.1625999999999999E+01    0.0000000000000000E+00    2.7172000000000022E+01
             1.1625999999999999E+01    2.9549999999999983E+00    2.7172000000000022E+01
             1.1625999999999999E+01    5.9110000000000014E+00    2.7172000000000022E+01
             1.4780000000000009E+00    1.4780000000000009E+00    2.9262000000000054E+01
             1.4780000000000009E+00    4.4329999999999998E+00    2.9262000000000054E+01
             1.4780000000000009E+00    7.3890000000000065E+00    2.9262000000000054E+01
             4.4340000000000064E+00    1.4780000000000009E+00    2.9262000000000054E+01
             4.4340000000000064E+00    4.4329999999999998E+00    2.9262000000000054E+01
             4.4340000000000064E+00    7.3890000000000065E+00    2.9262000000000054E+01
             7.1919999999999966E+00    1.4780000000000009E+00    2.9262000000000054E+01
             7.1919999999999966E+00    4.4329999999999998E+00    2.9262000000000054E+01
             7.1919999999999966E+00    7.3890000000000065E+00    2.9262000000000054E+01
             1.0148000000000001E+01    1.4780000000000009E+00    2.9262000000000054E+01
             1.0148000000000001E+01    4.4329999999999998E+00    2.9262000000000054E+01
             1.0148000000000001E+01    7.3890000000000065E+00    2.9262000000000054E+01
             1.3104000000000012E+01    1.4780000000000009E+00    2.9262000000000054E+01
             1.3104000000000012E+01    4.4329999999999998E+00    2.9262000000000054E+01
             1.3104000000000012E+01    7.3890000000000065E+00    2.9262000000000054E+01
             0.0000000000000000E+00    0.0000000000000000E+00    3.1351999999999993E+01
             0.0000000000000000E+00    2.9549999999999983E+00    3.1351999999999993E+01
             0.0000000000000000E+00    5.9110000000000014E+00    3.1351999999999993E+01
             2.9560000000000017E+00    0.0000000000000000E+00    3.1351999999999993E+01
             2.9560000000000017E+00    2.9549999999999983E+00    3.1351999999999993E+01
             2.9560000000000017E+00    5.9110000000000014E+00    3.1351999999999993E+01
             5.9120000000000035E+00    0.0000000000000000E+00    3.1351999999999993E+01
             5.9120000000000035E+00    2.9549999999999983E+00    3.1351999999999993E+01
             5.9120000000000035E+00    5.9110000000000014E+00    3.1351999999999993E+01
             8.6700000000000106E+00    0.0000000000000000E+00    3.1351999999999993E+01
             8.6700000000000106E+00    2.9549999999999983E+00    3.1351999999999993E+01
             8.6700000000000106E+00    5.9110000000000014E+00    3.1351999999999993E+01
             1.1625999999999999E+01    0.0000000000000000E+00    3.1351999999999993E+01
             1.1625999999999999E+01    2.9549999999999983E+00    3.1351999999999993E+01
             1.1625999999999999E+01    5.9110000000000014E+00    3.1351999999999993E+01
             1.4780000000000009E+00    1.4780000000000009E+00    3.3442000000000050E+01
             1.4780000000000009E+00    4.4329999999999998E+00    3.3442000000000050E+01
             1.4780000000000009E+00    7.3890000000000065E+00    3.3442000000000050E+01
             4.4340000000000064E+00    1.4780000000000009E+00    3.3442000000000050E+01
             4.4340000000000064E+00    4.4329999999999998E+00    3.3442000000000050E+01
             4.4340000000000064E+00    7.3890000000000065E+00    3.3442000000000050E+01
             7.1919999999999966E+00    1.4780000000000009E+00    3.3442000000000050E+01
             7.1919999999999966E+00    4.4329999999999998E+00    3.3442000000000050E+01
             7.1919999999999966E+00    7.3890000000000065E+00    3.3442000000000050E+01
             1.0148000000000001E+01    1.4780000000000009E+00    3.3442000000000050E+01
             1.0148000000000001E+01    4.4329999999999998E+00    3.3442000000000050E+01
             1.0148000000000001E+01    7.3890000000000065E+00    3.3442000000000050E+01
             1.3104000000000012E+01    1.4780000000000009E+00    3.3442000000000050E+01
             1.3104000000000012E+01    4.4329999999999998E+00    3.3442000000000050E+01
             1.3104000000000012E+01    7.3890000000000065E+00    3.3442000000000050E+01
       &END COORD
       &VELOCITY
             0.0000000000000000E+00    0.0000000000000000E+00    0.0000000000000000E+00
             0.0000000000000000E+00    0.0000000000000000E+00    0.0000000000000000E+00
             0.0000000000000000E+00    0.0000000000000000E+00    0.0000000000000000E+00
             0.0000000000000000E+00    0.0000000000000000E+00    0.0000000000000000E+00
             0.0000000000000000E+00    0.0000000000000000E+00    0.0000000000000000E+00
             0.0000000000000000E+00    0.0000000000000000E+00    0.0000000000000000E+00
             0.0000000000000000E+00    0.0000000000000000E+00    0.0000000000000000E+00
             0.0000000000000000E+00    0.0000000000000000E+00    0.0000000000000000E+00
             0.0000000000000000E+00    0.0000000000000000E+00    0.0000000000000000E+00
             0.0000000000000000E+00    0.0000000000000000E+00    0.0000000000000000E+00
             0.0000000000000000E+00    0.0000000000000000E+00    0.0000000000000000E+00
             0.0000000000000000E+00    0.0000000000000000E+00    0.0000000000000000E+00
             0.0000000000000000E+00    0.0000000000000000E+00    0.0000000000000000E+00
             0.0000000000000000E+00    0.0000000000000000E+00    0.0000000000000000E+00
             0.0000000000000000E+00    0.0000000000000000E+00    0.0000000000000000E+00
             0.0000000000000000E+00    0.0000000000000000E+00    0.0000000000000000E+00
             0.0000000000000000E+00    0.0000000000000000E+00    0.0000000000000000E+00
             0.0000000000000000E+00    0.0000000000000000E+00    0.0000000000000000E+00
             0.0000000000000000E+00    0.0000000000000000E+00    0.0000000000000000E+00
             0.0000000000000000E+00    0.0000000000000000E+00    0.0000000000000000E+00
             0.0000000000000000E+00    0.0000000000000000E+00    0.0000000000000000E+00
             0.0000000000000000E+00    0.0000000000000000E+00    0.0000000000000000E+00
             0.0000000000000000E+00    0.0000000000000000E+00    0.0000000000000000E+00
             0.0000000000000000E+00    0.0000000000000000E+00    0.0000000000000000E+00
             0.0000000000000000E+00    0.0000000000000000E+00    0.0000000000000000E+00
             0.0000000000000000E+00    0.0000000000000000E+00    0.0000000000000000E+00
             0.0000000000000000E+00    0.0000000000000000E+00    0.0000000000000000E+00
             0.0000000000000000E+00    0.0000000000000000E+00    0.0000000000000000E+00
             0.0000000000000000E+00    0.0000000000000000E+00    0.0000000000000000E+00
             0.0000000000000000E+00    0.0000000000000000E+00    0.0000000000000000E+00
             0.0000000000000000E+00    0.0000000000000000E+00    0.0000000000000000E+00
             0.0000000000000000E+00    0.0000000000000000E+00    0.0000000000000000E+00
             0.0000000000000000E+00    0.0000000000000000E+00    0.0000000000000000E+00
             0.0000000000000000E+00    0.0000000000000000E+00    0.0000000000000000E+00
             0.0000000000000000E+00    0.0000000000000000E+00    0.0000000000000000E+00
             0.0000000000000000E+00    0.0000000000000000E+00    0.0000000000000000E+00
             0.0000000000000000E+00    0.0000000000000000E+00    0.0000000000000000E+00
             0.0000000000000000E+00    0.0000000000000000E+00    0.0000000000000000E+00
             0.0000000000000000E+00    0.0000000000000000E+00    0.0000000000000000E+00
             0.0000000000000000E+00    0.0000000000000000E+00    0.0000000000000000E+00
             0.0000000000000000E+00    0.0000000000000000E+00    0.0000000000000000E+00
             0.0000000000000000E+00    0.0000000000000000E+00    0.0000000000000000E+00
             0.0000000000000000E+00    0.0000000000000000E+00    0.0000000000000000E+00
             0.0000000000000000E+00    0.0000000000000000E+00    0.0000000000000000E+00
             0.0000000000000000E+00    0.0000000000000000E+00    0.0000000000000000E+00
             0.0000000000000000E+00    0.0000000000000000E+00    0.0000000000000000E+00
             0.0000000000000000E+00    0.0000000000000000E+00    0.0000000000000000E+00
             0.0000000000000000E+00    0.0000000000000000E+00    0.0000000000000000E+00
             0.0000000000000000E+00    0.0000000000000000E+00    0.0000000000000000E+00
             0.0000000000000000E+00    0.0000000000000000E+00    0.0000000000000000E+00
             0.0000000000000000E+00    0.0000000000000000E+00    0.0000000000000000E+00
             0.0000000000000000E+00    0.0000000000000000E+00    0.0000000000000000E+00
             0.0000000000000000E+00    0.0000000000000000E+00    0.0000000000000000E+00
             0.0000000000000000E+00    0.0000000000000000E+00    0.0000000000000000E+00
             0.0000000000000000E+00    0.0000000000000000E+00    0.0000000000000000E+00
             0.0000000000000000E+00    0.0000000000000000E+00    0.0000000000000000E+00
             0.0000000000000000E+00    0.0000000000000000E+00    0.0000000000000000E+00
             0.0000000000000000E+00    0.0000000000000000E+00    0.0000000000000000E+00
             0.0000000000000000E+00    0.0000000000000000E+00    0.0000000000000000E+00
             0.0000000000000000E+00    0.0000000000000000E+00    0.0000000000000000E+00
             0.0000000000000000E+00    0.0000000000000000E+00    0.0000000000000000E+00
             0.0000000000000000E+00    0.0000000000000000E+00    0.0000000000000000E+00
             0.0000000000000000E+00    0.0000000000000000E+00    0.0000000000000000E+00
             0.0000000000000000E+00    0.0000000000000000E+00    0.0000000000000000E+00
             0.0000000000000000E+00    0.0000000000000000E+00    0.0000000000000000E+00
             0.0000000000000000E+00    0.0000000000000000E+00    0.0000000000000000E+00
             0.0000000000000000E+00    0.0000000000000000E+00    0.0000000000000000E+00
             0.0000000000000000E+00    0.0000000000000000E+00    0.0000000000000000E+00
             0.0000000000000000E+00    0.0000000000000000E+00    0.0000000000000000E+00
             0.0000000000000000E+00    0.0000000000000000E+00    0.0000000000000000E+00
             0.0000000000000000E+00    0.0000000000000000E+00    0.0000000000000000E+00
             0.0000000000000000E+00    0.0000000000000000E+00    0.0000000000000000E+00
             0.0000000000000000E+00    0.0000000000000000E+00    0.0000000000000000E+00
             0.0000000000000000E+00    0.0000000000000000E+00    0.0000000000000000E+00
             0.0000000000000000E+00    0.0000000000000000E+00    0.0000000000000000E+00
             0.0000000000000000E+00    0.0000000000000000E+00    0.0000000000000000E+00
             0.0000000000000000E+00    0.0000000000000000E+00    0.0000000000000000E+00
             0.0000000000000000E+00    0.0000000000000000E+00    0.0000000000000000E+00
             0.0000000000000000E+00    0.0000000000000000E+00    0.0000000000000000E+00
             0.0000000000000000E+00    0.0000000000000000E+00    0.0000000000000000E+00
             0.0000000000000000E+00    0.0000000000000000E+00    0.0000000000000000E+00
             0.0000000000000000E+00    0.0000000000000000E+00    0.0000000000000000E+00
             0.0000000000000000E+00    0.0000000000000000E+00    0.0000000000000000E+00
             0.0000000000000000E+00    0.0000000000000000E+00    0.0000000000000000E+00
             0.0000000000000000E+00    0.0000000000000000E+00    0.0000000000000000E+00
             0.0000000000000000E+00    0.0000000000000000E+00    0.0000000000000000E+00
             0.0000000000000000E+00    0.0000000000000000E+00    0.0000000000000000E+00
             0.0000000000000000E+00    0.0000000000000000E+00    0.0000000000000000E+00
             0.0000000000000000E+00    0.0000000000000000E+00    0.0000000000000000E+00
             0.0000000000000000E+00    0.0000000000000000E+00    0.0000000000000000E+00
             0.0000000000000000E+00    0.0000000000000000E+00    0.0000000000000000E+00
             0.0000000000000000E+00    0.0000000000000000E+00    0.0000000000000000E+00
             0.0000000000000000E+00    0.0000000000000000E+00    0.0000000000000000E+00
             0.0000000000000000E+00    0.0000000000000000E+00    0.0000000000000000E+00
             0.0000000000000000E+00    0.0000000000000000E+00    0.0000000000000000E+00
             0.0000000000000000E+00    0.0000000000000000E+00    0.0000000000000000E+00
             0.0000000000000000E+00    0.0000000000000000E+00    0.0000000000000000E+00
             0.0000000000000000E+00    0.0000000000000000E+00    0.0000000000000000E+00
             0.0000000000000000E+00    0.0000000000000000E+00    0.0000000000000000E+00
             0.0000000000000000E+00    0.0000000000000000E+00    0.0000000000000000E+00
             0.0000000000000000E+00    0.0000000000000000E+00    0.0000000000000000E+00
             0.0000000000000000E+00    0.0000000000000000E+00    0.0000000000000000E+00
             0.0000000000000000E+00    0.0000000000000000E+00    0.0000000000000000E+00
             0.0000000000000000E+00    0.0000000000000000E+00    0.0000000000000000E+00
             0.0000000000000000E+00    0.0000000000000000E+00    0.0000000000000000E+00
             0.0000000000000000E+00    0.0000000000000000E+00    0.0000000000000000E+00
             0.0000000000000000E+00    0.0000000000000000E+00    0.0000000000000000E+00
             0.0000000000000000E+00    0.0000000000000000E+00    0.0000000000000000E+00
             0.0000000000000000E+00    0.0000000000000000E+00    0.0000000000000000E+00
             0.0000000000000000E+00    0.0000000000000000E+00    0.0000000000000000E+00
             0.0000000000000000E+00    0.0000000000000000E+00    0.0000000000000000E+00
             0.0000000000000000E+00    0.0000000000000000E+00    0.0000000000000000E+00
             0.0000000000000000E+00    0.0000000000000000E+00    0.0000000000000000E+00
             0.0000000000000000E+00    0.0000000000000000E+00    0.0000000000000000E+00
             0.0000000000000000E+00    0.0000000000000000E+00    0.0000000000000000E+00
             0.0000000000000000E+00    0.0000000000000000E+00    0.0000000000000000E+00
             0.0000000000000000E+00    0.0000000000000000E+00    0.0000000000000000E+00
             0.0000000000000000E+00    0.0000000000000000E+00    0.0000000000000000E+00
             0.0000000000000000E+00    0.0000000000000000E+00    0.0000000000000000E+00
             0.0000000000000000E+00    0.0000000000000000E+00    0.0000000000000000E+00
             0.0000000000000000E+00    0.0000000000000000E+00    0.0000000000000000E+00
             0.0000000000000000E+00    0.0000000000000000E+00    0.0000000000000000E+00
             0.0000000000000000E+00    0.0000000000000000E+00    0.0000000000000000E+00
             0.0000000000000000E+00    0.0000000000000000E+00    0.0000000000000000E+00
             0.0000000000000000E+00    0.0000000000000000E+00    0.0000000000000000E+00
             0.0000000000000000E+00    0.0000000000000000E+00    0.0000000000000000E+00
             0.0000000000000000E+00    0.0000000000000000E+00    0.0000000000000000E+00
             0.0000000000000000E+00    0.0000000000000000E+00    0.0000000000000000E+00
             0.0000000000000000E+00    0.0000000000000000E+00    0.0000000000000000E+00
             0.0000000000000000E+00    0.0000000000000000E+00    0.0000000000000000E+00
             0.0000000000000000E+00    0.0000000000000000E+00    0.0000000000000000E+00
             0.0000000000000000E+00    0.0000000000000000E+00    0.0000000000000000E+00
             0.0000000000000000E+00    0.0000000000000000E+00    0.0000000000000000E+00
             0.0000000000000000E+00    0.0000000000000000E+00    0.0000000000000000E+00
             0.0000000000000000E+00    0.0000000000000000E+00    0.0000000000000000E+00
             0.0000000000000000E+00    0.0000000000000000E+00    0.0000000000000000E+00
             0.0000000000000000E+00    0.0000000000000000E+00    0.0000000000000000E+00
             0.0000000000000000E+00    0.0000000000000000E+00    0.0000000000000000E+00
             0.0000000000000000E+00    0.0000000000000000E+00    0.0000000000000000E+00
             0.0000000000000000E+00    0.0000000000000000E+00    0.0000000000000000E+00
             0.0000000000000000E+00    0.0000000000000000E+00    0.0000000000000000E+00
             0.0000000000000000E+00    0.0000000000000000E+00    0.0000000000000000E+00
             0.0000000000000000E+00    0.0000000000000000E+00    0.0000000000000000E+00
             0.0000000000000000E+00    0.0000000000000000E+00    0.0000000000000000E+00
             0.0000000000000000E+00    0.0000000000000000E+00    0.0000000000000000E+00