 # Version information for this restart file 
 # current date 2024-01-13 11:32:31.173
 # current working dir /gpfs/home/cahart/transport/melamine/au_from-h2/ci-neb/ts2-fixed/dft_leads-sz_tip-dzvp_surf-dzvp_kpoints-2-4-20_replicas-3
 # Program compiled at                              Thu 21 Sep 19:20:17 BST 2023
 # Program compiled on                                           hx1-c12-login-1
 # Program compiled for                                                    local
 # Source code revision number                                       git:5518aa6
 &GLOBAL
   EXTENDED_FFT_LENGTHS  T
   PRINT_LEVEL  MEDIUM
   PROJECT_NAME 2_dft_wfn-r-0
   OUTPUT_FILE_NAME 2_dft_wfn-r-0.out
   RUN_TYPE  BAND
 &END GLOBAL
 &MOTION
   &BAND
     NPROC_REP  64
     BAND_TYPE  CI-NEB
     NUMBER_OF_REPLICA  3
     K_SPRING     5.0000000000000003E-02
     &CI_NEB
       NSTEPS_IT  5
     &END CI_NEB
     &OPTIMIZE_BAND
       OPT_TYPE  DIIS
       &DIIS
         MAX_STEPS  1000
       &END DIIS
     &END OPTIMIZE_BAND
     &REPLICA
       &COORD
             0.0000000000000000E+00    0.0000000000000000E+00    0.0000000000000000E+00
             0.0000000000000000E+00    2.9549999999999979E+00    0.0000000000000000E+00
             0.0000000000000000E+00    5.9110000000000031E+00    0.0000000000000000E+00
             2.9560000000000000E+00    0.0000000000000000E+00    0.0000000000000000E+00
             2.9560000000000000E+00    2.9549999999999979E+00    0.0000000000000000E+00
             2.9560000000000000E+00    5.9110000000000031E+00    0.0000000000000000E+00
             5.9119999999999999E+00    0.0000000000000000E+00    0.0000000000000000E+00
             5.9119999999999999E+00    2.9549999999999979E+00    0.0000000000000000E+00
             5.9119999999999999E+00    5.9110000000000031E+00    0.0000000000000000E+00
             8.6700000000000070E+00    0.0000000000000000E+00    0.0000000000000000E+00
             8.6700000000000070E+00    2.9549999999999979E+00    0.0000000000000000E+00
             8.6700000000000070E+00    5.9110000000000031E+00    0.0000000000000000E+00
             1.1625999999999996E+01    0.0000000000000000E+00    0.0000000000000000E+00
             1.1625999999999996E+01    2.9549999999999979E+00    0.0000000000000000E+00
             1.1625999999999996E+01    5.9110000000000031E+00    0.0000000000000000E+00
             1.4780000000000000E+00    1.4780000000000000E+00    2.0899999999999990E+00
             1.4780000000000000E+00    4.4329999999999972E+00    2.0899999999999990E+00
             1.4780000000000000E+00    7.3890000000000056E+00    2.0899999999999990E+00
             4.4340000000000055E+00    1.4780000000000000E+00    2.0899999999999990E+00
             4.4340000000000055E+00    4.4329999999999972E+00    2.0899999999999990E+00
             4.4340000000000055E+00    7.3890000000000056E+00    2.0899999999999990E+00
             7.1919999999999957E+00    1.4780000000000000E+00    2.0899999999999990E+00
             7.1919999999999957E+00    4.4329999999999972E+00    2.0899999999999990E+00
             7.1919999999999957E+00    7.3890000000000056E+00    2.0899999999999990E+00
             1.0148000000000000E+01    1.4780000000000000E+00    2.0899999999999990E+00
             1.0148000000000000E+01    4.4329999999999972E+00    2.0899999999999990E+00
             1.0148000000000000E+01    7.3890000000000056E+00    2.0899999999999990E+00
             1.3104000000000012E+01    1.4780000000000000E+00    2.0899999999999990E+00
             1.3104000000000012E+01    4.4329999999999972E+00    2.0899999999999990E+00
             1.3104000000000012E+01    7.3890000000000056E+00    2.0899999999999990E+00
             0.0000000000000000E+00    0.0000000000000000E+00    4.1799999999999979E+00
             0.0000000000000000E+00    2.9549999999999979E+00    4.1799999999999979E+00
             0.0000000000000000E+00    5.9110000000000031E+00    4.1799999999999979E+00
             2.9560000000000000E+00    0.0000000000000000E+00    4.1799999999999979E+00
             2.9560000000000000E+00    2.9549999999999979E+00    4.1799999999999979E+00
             2.9560000000000000E+00    5.9110000000000031E+00    4.1799999999999979E+00
             5.9119999999999999E+00    0.0000000000000000E+00    4.1799999999999979E+00
             5.9119999999999999E+00    2.9549999999999979E+00    4.1799999999999979E+00
             5.9119999999999999E+00    5.9110000000000031E+00    4.1799999999999979E+00
             8.6700000000000070E+00    0.0000000000000000E+00    4.1799999999999979E+00
             8.6700000000000070E+00    2.9549999999999979E+00    4.1799999999999979E+00
             8.6700000000000070E+00    5.9110000000000031E+00    4.1799999999999979E+00
             1.1625999999999996E+01    0.0000000000000000E+00    4.1799999999999979E+00
             1.1625999999999996E+01    2.9549999999999979E+00    4.1799999999999979E+00
             1.1625999999999996E+01    5.9110000000000031E+00    4.1799999999999979E+00
             1.4780000000000000E+00    1.4780000000000000E+00    6.2699999999999969E+00
             1.4780000000000000E+00    4.4329999999999972E+00    6.2699999999999969E+00
             1.4780000000000000E+00    7.3890000000000056E+00    6.2699999999999969E+00
             4.4340000000000055E+00    1.4780000000000000E+00    6.2699999999999969E+00
             4.4340000000000055E+00    4.4329999999999972E+00    6.2699999999999969E+00
             4.4340000000000055E+00    7.3890000000000056E+00    6.2699999999999969E+00
             7.1919999999999957E+00    1.4780000000000000E+00    6.2699999999999969E+00
             7.1919999999999957E+00    4.4329999999999972E+00    6.2699999999999969E+00
             7.1919999999999957E+00    7.3890000000000056E+00    6.2699999999999969E+00
             1.0148000000000000E+01    1.4780000000000000E+00    6.2699999999999969E+00
             1.0148000000000000E+01    4.4329999999999972E+00    6.2699999999999969E+00
             1.0148000000000000E+01    7.3890000000000056E+00    6.2699999999999969E+00
             1.3104000000000012E+01    1.4780000000000000E+00    6.2699999999999969E+00
             1.3104000000000012E+01    4.4329999999999972E+00    6.2699999999999969E+00
             1.3104000000000012E+01    7.3890000000000056E+00    6.2699999999999969E+00
             0.0000000000000000E+00    0.0000000000000000E+00    8.3599999999999959E+00
             0.0000000000000000E+00    2.9549999999999979E+00    8.3599999999999959E+00
             0.0000000000000000E+00    5.9110000000000031E+00    8.3599999999999959E+00
             2.9560000000000000E+00    0.0000000000000000E+00    8.3599999999999959E+00
             2.9560000000000000E+00    2.9549999999999979E+00    8.3599999999999959E+00
             2.9560000000000000E+00    5.9110000000000031E+00    8.3599999999999959E+00
             5.9119999999999999E+00    0.0000000000000000E+00    8.3599999999999959E+00
             5.9119999999999999E+00    2.9549999999999979E+00    8.3599999999999959E+00
             5.9119999999999999E+00    5.9110000000000031E+00    8.3599999999999959E+00
             8.6700000000000070E+00    0.0000000000000000E+00    8.3599999999999959E+00
             8.6700000000000070E+00    2.9549999999999979E+00    8.3599999999999959E+00
             8.6700000000000070E+00    5.9110000000000031E+00    8.3599999999999959E+00
             1.1625999999999996E+01    0.0000000000000000E+00    8.3599999999999959E+00
             1.1625999999999996E+01    2.9549999999999979E+00    8.3599999999999959E+00
             1.1625999999999996E+01    5.9110000000000031E+00    8.3599999999999959E+00
             1.4780000000000000E+00    1.4780000000000000E+00    1.0449999999999992E+01
             1.4780000000000000E+00    4.4329999999999972E+00    1.0449999999999992E+01
             1.4780000000000000E+00    7.3890000000000056E+00    1.0449999999999992E+01
             4.4340000000000055E+00    1.4780000000000000E+00    1.0449999999999992E+01
             4.4340000000000055E+00    4.4329999999999972E+00    1.0449999999999992E+01
             4.4340000000000055E+00    7.3890000000000056E+00    1.0449999999999992E+01
             7.1919999999999957E+00    1.4780000000000000E+00    1.0449999999999992E+01
             7.1919999999999957E+00    4.4329999999999972E+00    1.0449999999999992E+01
             7.1919999999999957E+00    7.3890000000000056E+00    1.0449999999999992E+01
             1.0148000000000000E+01    1.4780000000000000E+00    1.0449999999999992E+01
             1.0148000000000000E+01    4.4329999999999972E+00    1.0449999999999992E+01
             1.0148000000000000E+01    7.3890000000000056E+00    1.0449999999999992E+01
             1.3104000000000012E+01    1.4780000000000000E+00    1.0449999999999992E+01
             1.3104000000000012E+01    4.4329999999999972E+00    1.0449999999999992E+01
             1.3104000000000012E+01    7.3890000000000056E+00    1.0449999999999992E+01
             4.8554000000000048E+00    5.9119000000000010E+00    1.2031800000000004E+01
             9.5280000000000111E+00    5.9137000000000022E+00    1.2034000000000010E+01
             7.1919999999999957E+00    5.9340000000000055E+00    1.2039999999999992E+01
             4.0673339927999992E+00    5.9059993220000084E+00    1.2687741368899983E+01
             1.0318905404799994E+01    5.9087793825999979E+00    1.2685747073200009E+01
             5.9989554222000070E+00    5.9152564165999966E+00    1.2792642411199992E+01
             8.3738707293000001E+00    5.9179777706999985E+00    1.2731457252200006E+01
             8.3227525762000099E+00    5.9051536094999966E+00    1.4080497642100012E+01
             5.9344285048999970E+00    5.8981604864999984E+00    1.4101749969600014E+01
             7.1039653576999955E+00    5.8899410689000034E+00    1.4828703219099992E+01
             7.2416021047000081E+00    5.8657702091999955E+00    1.6106466757300002E+01
             6.3118250322999954E+00    5.8547577070999894E+00    1.6539601306200005E+01
             9.1743570612999967E+00    5.8876302391999937E+00    1.4641017735299990E+01
             7.3120000000000003E+00    5.9340000000000055E+00    2.1043000000000013E+01
             5.8129999999999979E+00    7.4339999999999975E+00    2.2991999999999994E+01
             8.8129999999999953E+00    4.4340000000000055E+00    2.2991999999999994E+01
             5.8129999999999979E+00    4.4329999999999972E+00    2.2991999999999994E+01
             8.8129999999999953E+00    7.4339999999999975E+00    2.2991999999999994E+01
             1.4780000000000000E+00    1.4780000000000000E+00    2.5082000000000019E+01
             1.4780000000000000E+00    4.4329999999999972E+00    2.5082000000000019E+01
             1.4780000000000000E+00    7.3890000000000056E+00    2.5082000000000019E+01
             4.4340000000000055E+00    1.4780000000000000E+00    2.5082000000000019E+01
             4.4340000000000055E+00    4.4329999999999972E+00    2.5082000000000019E+01
             4.4340000000000055E+00    7.3890000000000056E+00    2.5082000000000019E+01
             7.1919999999999957E+00    1.4780000000000000E+00    2.5082000000000019E+01
             7.1919999999999957E+00    4.4329999999999972E+00    2.5082000000000019E+01
             7.1919999999999957E+00    7.3890000000000056E+00    2.5082000000000019E+01
             1.0148000000000000E+01    1.4780000000000000E+00    2.5082000000000019E+01
             1.0148000000000000E+01    4.4329999999999972E+00    2.5082000000000019E+01
             1.0148000000000000E+01    7.3890000000000056E+00    2.5082000000000019E+01
             1.3104000000000012E+01    1.4780000000000000E+00    2.5082000000000019E+01
             1.3104000000000012E+01    4.4329999999999972E+00    2.5082000000000019E+01
             1.3104000000000012E+01    7.3890000000000056E+00    2.5082000000000019E+01
             0.0000000000000000E+00    0.0000000000000000E+00    2.7172000000000008E+01
             0.0000000000000000E+00    2.9549999999999979E+00    2.7172000000000008E+01
             0.0000000000000000E+00    5.9110000000000031E+00    2.7172000000000008E+01
             2.9560000000000000E+00    0.0000000000000000E+00    2.7172000000000008E+01
             2.9560000000000000E+00    2.9549999999999979E+00    2.7172000000000008E+01
             2.9560000000000000E+00    5.9110000000000031E+00    2.7172000000000008E+01
             5.9119999999999999E+00    0.0000000000000000E+00    2.7172000000000008E+01
             5.9119999999999999E+00    2.9549999999999979E+00    2.7172000000000008E+01
             5.9119999999999999E+00    5.9110000000000031E+00    2.7172000000000008E+01
             8.6700000000000070E+00    0.0000000000000000E+00    2.7172000000000008E+01
             8.6700000000000070E+00    2.9549999999999979E+00    2.7172000000000008E+01
             8.6700000000000070E+00    5.9110000000000031E+00    2.7172000000000008E+01
             1.1625999999999996E+01    0.0000000000000000E+00    2.7172000000000008E+01
             1.1625999999999996E+01    2.9549999999999979E+00    2.7172000000000008E+01
             1.1625999999999996E+01    5.9110000000000031E+00    2.7172000000000008E+01
             1.4780000000000000E+00    1.4780000000000000E+00    2.9262000000000025E+01
             1.4780000000000000E+00    4.4329999999999972E+00    2.9262000000000025E+01
             1.4780000000000000E+00    7.3890000000000056E+00    2.9262000000000025E+01
             4.4340000000000055E+00    1.4780000000000000E+00    2.9262000000000025E+01
             4.4340000000000055E+00    4.4329999999999972E+00    2.9262000000000025E+01
             4.4340000000000055E+00    7.3890000000000056E+00    2.9262000000000025E+01
             7.1919999999999957E+00    1.4780000000000000E+00    2.9262000000000025E+01
             7.1919999999999957E+00    4.4329999999999972E+00    2.9262000000000025E+01
             7.1919999999999957E+00    7.3890000000000056E+00    2.9262000000000025E+01
             1.0148000000000000E+01    1.4780000000000000E+00    2.9262000000000025E+01
             1.0148000000000000E+01    4.4329999999999972E+00    2.9262000000000025E+01
             1.0148000000000000E+01    7.3890000000000056E+00    2.9262000000000025E+01
             1.3104000000000012E+01    1.4780000000000000E+00    2.9262000000000025E+01
             1.3104000000000012E+01    4.4329999999999972E+00    2.9262000000000025E+01
             1.3104000000000012E+01    7.3890000000000056E+00    2.9262000000000025E+01
             0.0000000000000000E+00    0.0000000000000000E+00    3.1351999999999983E+01
             0.0000000000000000E+00    2.9549999999999979E+00    3.1351999999999983E+01
             0.0000000000000000E+00    5.9110000000000031E+00    3.1351999999999983E+01
             2.9560000000000000E+00    0.0000000000000000E+00    3.1351999999999983E+01
             2.9560000000000000E+00    2.9549999999999979E+00    3.1351999999999983E+01
             2.9560000000000000E+00    5.9110000000000031E+00    3.1351999999999983E+01
             5.9119999999999999E+00    0.0000000000000000E+00    3.1351999999999983E+01
             5.9119999999999999E+00    2.9549999999999979E+00    3.1351999999999983E+01
             5.9119999999999999E+00    5.9110000000000031E+00    3.1351999999999983E+01
             8.6700000000000070E+00    0.0000000000000000E+00    3.1351999999999983E+01
             8.6700000000000070E+00    2.9549999999999979E+00    3.1351999999999983E+01
             8.6700000000000070E+00    5.9110000000000031E+00    3.1351999999999983E+01
             1.1625999999999996E+01    0.0000000000000000E+00    3.1351999999999983E+01
             1.1625999999999996E+01    2.9549999999999979E+00    3.1351999999999983E+01
             1.1625999999999996E+01    5.9110000000000031E+00    3.1351999999999983E+01
             1.4780000000000000E+00    1.4780000000000000E+00    3.3442000000000043E+01
             1.4780000000000000E+00    4.4329999999999972E+00    3.3442000000000043E+01
             1.4780000000000000E+00    7.3890000000000056E+00    3.3442000000000043E+01
             4.4340000000000055E+00    1.4780000000000000E+00    3.3442000000000043E+01
             4.4340000000000055E+00    4.4329999999999972E+00    3.3442000000000043E+01
             4.4340000000000055E+00    7.3890000000000056E+00    3.3442000000000043E+01
             7.1919999999999957E+00    1.4780000000000000E+00    3.3442000000000043E+01
             7.1919999999999957E+00    4.4329999999999972E+00    3.3442000000000043E+01
             7.1919999999999957E+00    7.3890000000000056E+00    3.3442000000000043E+01
             1.0148000000000000E+01    1.4780000000000000E+00    3.3442000000000043E+01
             1.0148000000000000E+01    4.4329999999999972E+00    3.3442000000000043E+01
             1.0148000000000000E+01    7.3890000000000056E+00    3.3442000000000043E+01
             1.3104000000000012E+01    1.4780000000000000E+00    3.3442000000000043E+01
             1.3104000000000012E+01    4.4329999999999972E+00    3.3442000000000043E+01
             1.3104000000000012E+01    7.3890000000000056E+00    3.3442000000000043E+01
       &END COORD
       &VELOCITY
             0.0000000000000000E+00    0.0000000000000000E+00    0.0000000000000000E+00
             0.0000000000000000E+00    0.0000000000000000E+00    0.0000000000000000E+00
             0.0000000000000000E+00    0.0000000000000000E+00    0.0000000000000000E+00
             0.0000000000000000E+00    0.0000000000000000E+00    0.0000000000000000E+00
             0.0000000000000000E+00    0.0000000000000000E+00    0.0000000000000000E+00
             0.0000000000000000E+00    0.0000000000000000E+00    0.0000000000000000E+00
             0.0000000000000000E+00    0.0000000000000000E+00    0.0000000000000000E+00
             0.0000000000000000E+00    0.0000000000000000E+00    0.0000000000000000E+00
             0.0000000000000000E+00    0.0000000000000000E+00    0.0000000000000000E+00
             0.0000000000000000E+00    0.0000000000000000E+00    0.0000000000000000E+00
             0.0000000000000000E+00    0.0000000000000000E+00    0.0000000000000000E+00
             0.0000000000000000E+00    0.0000000000000000E+00    0.0000000000000000E+00
             0.0000000000000000E+00    0.0000000000000000E+00    0.0000000000000000E+00
             0.0000000000000000E+00    0.0000000000000000E+00    0.0000000000000000E+00
             0.0000000000000000E+00    0.0000000000000000E+00    0.0000000000000000E+00
             0.0000000000000000E+00    0.0000000000000000E+00    0.0000000000000000E+00
             0.0000000000000000E+00    0.0000000000000000E+00    0.0000000000000000E+00
             0.0000000000000000E+00    0.0000000000000000E+00    0.0000000000000000E+00
             0.0000000000000000E+00    0.0000000000000000E+00    0.0000000000000000E+00
             0.0000000000000000E+00    0.0000000000000000E+00    0.0000000000000000E+00
             0.0000000000000000E+00    0.0000000000000000E+00    0.0000000000000000E+00
             0.0000000000000000E+00    0.0000000000000000E+00    0.0000000000000000E+00
             0.0000000000000000E+00    0.0000000000000000E+00    0.0000000000000000E+00
             0.0000000000000000E+00    0.0000000000000000E+00    0.0000000000000000E+00
             0.0000000000000000E+00    0.0000000000000000E+00    0.0000000000000000E+00
             0.0000000000000000E+00    0.0000000000000000E+00    0.0000000000000000E+00
             0.0000000000000000E+00    0.0000000000000000E+00    0.0000000000000000E+00
             0.0000000000000000E+00    0.0000000000000000E+00    0.0000000000000000E+00
             0.0000000000000000E+00    0.0000000000000000E+00    0.0000000000000000E+00
             0.0000000000000000E+00    0.0000000000000000E+00    0.0000000000000000E+00
             0.0000000000000000E+00    0.0000000000000000E+00    0.0000000000000000E+00
             0.0000000000000000E+00    0.0000000000000000E+00    0.0000000000000000E+00
             0.0000000000000000E+00    0.0000000000000000E+00    0.0000000000000000E+00
             0.0000000000000000E+00    0.0000000000000000E+00    0.0000000000000000E+00
             0.0000000000000000E+00    0.0000000000000000E+00    0.0000000000000000E+00
             0.0000000000000000E+00    0.0000000000000000E+00    0.0000000000000000E+00
             0.0000000000000000E+00    0.0000000000000000E+00    0.0000000000000000E+00
             0.0000000000000000E+00    0.0000000000000000E+00    0.0000000000000000E+00
             0.0000000000000000E+00    0.0000000000000000E+00    0.0000000000000000E+00
             0.0000000000000000E+00    0.0000000000000000E+00    0.0000000000000000E+00
             0.0000000000000000E+00    0.0000000000000000E+00    0.0000000000000000E+00
             0.0000000000000000E+00    0.0000000000000000E+00    0.0000000000000000E+00
             0.0000000000000000E+00    0.0000000000000000E+00    0.0000000000000000E+00
             0.0000000000000000E+00    0.0000000000000000E+00    0.0000000000000000E+00
             0.0000000000000000E+00    0.0000000000000000E+00    0.0000000000000000E+00
             0.0000000000000000E+00    0.0000000000000000E+00    0.0000000000000000E+00
             0.0000000000000000E+00    0.0000000000000000E+00    0.0000000000000000E+00
             0.0000000000000000E+00    0.0000000000000000E+00    0.0000000000000000E+00
             0.0000000000000000E+00    0.0000000000000000E+00    0.0000000000000000E+00
             0.0000000000000000E+00    0.0000000000000000E+00    0.0000000000000000E+00
             0.0000000000000000E+00    0.0000000000000000E+00    0.0000000000000000E+00
             0.0000000000000000E+00    0.0000000000000000E+00    0.0000000000000000E+00
             0.0000000000000000E+00    0.0000000000000000E+00    0.0000000000000000E+00
             0.0000000000000000E+00    0.0000000000000000E+00    0.0000000000000000E+00
             0.0000000000000000E+00    0.0000000000000000E+00    0.0000000000000000E+00
             0.0000000000000000E+00    0.0000000000000000E+00    0.0000000000000000E+00
             0.0000000000000000E+00    0.0000000000000000E+00    0.0000000000000000E+00
             0.0000000000000000E+00    0.0000000000000000E+00    0.0000000000000000E+00
             0.0000000000000000E+00    0.0000000000000000E+00    0.0000000000000000E+00
             0.0000000000000000E+00    0.0000000000000000E+00    0.0000000000000000E+00
             0.0000000000000000E+00    0.0000000000000000E+00    0.0000000000000000E+00
             0.0000000000000000E+00    0.0000000000000000E+00    0.0000000000000000E+00
             0.0000000000000000E+00    0.0000000000000000E+00    0.0000000000000000E+00
             0.0000000000000000E+00    0.0000000000000000E+00    0.0000000000000000E+00
             0.0000000000000000E+00    0.0000000000000000E+00    0.0000000000000000E+00
             0.0000000000000000E+00    0.0000000000000000E+00    0.0000000000000000E+00
             0.0000000000000000E+00    0.0000000000000000E+00    0.0000000000000000E+00
             0.0000000000000000E+00    0.0000000000000000E+00    0.0000000000000000E+00
             0.0000000000000000E+00    0.0000000000000000E+00    0.0000000000000000E+00
             0.0000000000000000E+00    0.0000000000000000E+00    0.0000000000000000E+00
             0.0000000000000000E+00    0.0000000000000000E+00    0.0000000000000000E+00
             0.0000000000000000E+00    0.0000000000000000E+00    0.0000000000000000E+00
             0.0000000000000000E+00    0.0000000000000000E+00    0.0000000000000000E+00
             0.0000000000000000E+00    0.0000000000000000E+00    0.0000000000000000E+00
             0.0000000000000000E+00    0.0000000000000000E+00    0.0000000000000000E+00
             0.0000000000000000E+00    0.0000000000000000E+00    0.0000000000000000E+00
             0.0000000000000000E+00    0.0000000000000000E+00    0.0000000000000000E+00
             0.0000000000000000E+00    0.0000000000000000E+00    0.0000000000000000E+00
             0.0000000000000000E+00    0.0000000000000000E+00    0.0000000000000000E+00
             0.0000000000000000E+00    0.0000000000000000E+00    0.0000000000000000E+00
             0.0000000000000000E+00    0.0000000000000000E+00    0.0000000000000000E+00
             0.0000000000000000E+00    0.0000000000000000E+00    0.0000000000000000E+00
             0.0000000000000000E+00    0.0000000000000000E+00    0.0000000000000000E+00
             0.0000000000000000E+00    0.0000000000000000E+00    0.0000000000000000E+00
             0.0000000000000000E+00    0.0000000000000000E+00    0.0000000000000000E+00
             0.0000000000000000E+00    0.0000000000000000E+00    0.0000000000000000E+00
             0.0000000000000000E+00    0.0000000000000000E+00    0.0000000000000000E+00
             0.0000000000000000E+00    0.0000000000000000E+00    0.0000000000000000E+00
             0.0000000000000000E+00    0.0000000000000000E+00    0.0000000000000000E+00
             0.0000000000000000E+00    0.0000000000000000E+00    0.0000000000000000E+00
             0.0000000000000000E+00    0.0000000000000000E+00    0.0000000000000000E+00
             0.0000000000000000E+00    0.0000000000000000E+00    0.0000000000000000E+00
             0.0000000000000000E+00    0.0000000000000000E+00    0.0000000000000000E+00
             0.0000000000000000E+00    0.0000000000000000E+00    0.0000000000000000E+00
             0.0000000000000000E+00    0.0000000000000000E+00    0.0000000000000000E+00
             0.0000000000000000E+00    0.0000000000000000E+00    0.0000000000000000E+00
             0.0000000000000000E+00    0.0000000000000000E+00    0.0000000000000000E+00
             0.0000000000000000E+00    0.0000000000000000E+00    0.0000000000000000E+00
             0.0000000000000000E+00    0.0000000000000000E+00    0.0000000000000000E+00
             0.0000000000000000E+00    0.0000000000000000E+00    0.0000000000000000E+00
             0.0000000000000000E+00    0.0000000000000000E+00    0.0000000000000000E+00
             0.0000000000000000E+00    0.0000000000000000E+00    0.0000000000000000E+00
             0.0000000000000000E+00    0.0000000000000000E+00    0.0000000000000000E+00
             0.0000000000000000E+00    0.0000000000000000E+00    0.0000000000000000E+00
             0.0000000000000000E+00    0.0000000000000000E+00    0.0000000000000000E+00
             0.0000000000000000E+00    0.0000000000000000E+00    0.0000000000000000E+00
             0.0000000000000000E+00    0.0000000000000000E+00    0.0000000000000000E+00
             0.0000000000000000E+00    0.0000000000000000E+00    0.0000000000000000E+00
             0.0000000000000000E+00    0.0000000000000000E+00    0.0000000000000000E+00
             0.0000000000000000E+00    0.0000000000000000E+00    0.0000000000000000E+00
             0.0000000000000000E+00    0.0000000000000000E+00    0.0000000000000000E+00
             0.0000000000000000E+00    0.0000000000000000E+00    0.0000000000000000E+00
             0.0000000000000000E+00    0.0000000000000000E+00    0.0000000000000000E+00
             0.0000000000000000E+00    0.0000000000000000E+00    0.0000000000000000E+00
             0.0000000000000000E+00    0.0000000000000000E+00    0.0000000000000000E+00
             0.0000000000000000E+00    0.0000000000000000E+00    0.0000000000000000E+00
             0.0000000000000000E+00    0.0000000000000000E+00    0.0000000000000000E+00
             0.0000000000000000E+00    0.0000000000000000E+00    0.0000000000000000E+00
             0.0000000000000000E+00    0.0000000000000000E+00    0.0000000000000000E+00
             0.0000000000000000E+00    0.0000000000000000E+00    0.0000000000000000E+00
             0.0000000000000000E+00    0.0000000000000000E+00    0.0000000000000000E+00
             0.0000000000000000E+00    0.0000000000000000E+00    0.0000000000000000E+00
             0.0000000000000000E+00    0.0000000000000000E+00    0.0000000000000000E+00
             0.0000000000000000E+00    0.0000000000000000E+00    0.0000000000000000E+00
             0.0000000000000000E+00    0.0000000000000000E+00    0.0000000000000000E+00
             0.0000000000000000E+00    0.0000000000000000E+00    0.0000000000000000E+00
             0.0000000000000000E+00    0.0000000000000000E+00    0.0000000000000000E+00
             0.0000000000000000E+00    0.0000000000000000E+00    0.0000000000000000E+00
             0.0000000000000000E+00    0.0000000000000000E+00    0.0000000000000000E+00
             0.0000000000000000E+00    0.0000000000000000E+00    0.0000000000000000E+00
             0.0000000000000000E+00    0.0000000000000000E+00    0.0000000000000000E+00
             0.0000000000000000E+00    0.0000000000000000E+00    0.0000000000000000E+00
             0.0000000000000000E+00    0.0000000000000000E+00    0.0000000000000000E+00
             0.0000000000000000E+00    0.0000000000000000E+00    0.0000000000000000E+00
             0.0000000000000000E+00    0.0000000000000000E+00    0.0000000000000000E+00
             0.0000000000000000E+00    0.0000000000000000E+00    0.0000000000000000E+00
             0.0000000000000000E+00    0.0000000000000000E+00    0.0000000000000000E+00
             0.0000000000000000E+00    0.0000000000000000E+00    0.0000000000000000E+00
             0.0000000000000000E+00    0.0000000000000000E+00    0.0000000000000000E+00
             0.0000000000000000E+00    0.0000000000000000E+00    0.0000000000000000E+00
             0.0000000000000000E+00    0.0000000000000000E+00    0.0000000000000000E+00
             0.0000000000000000E+00    0.0000000000000000E+00    0.0000000000000000E+00
             0.0000000000000000E+00    0.0000000000000000E+00    0.0000000000000000E+00
             0.0000000000000000E+00    0.0000000000000000E+00    0.0000000000000000E+00
             0.0000000000000000E+00    0.0000000000000000E+00    0.0000000000000000E+00