 # Version information for this restart file 
 # current date 2024-01-12 22:47:26.741
 # current working dir /gpfs/home/cahart/transport/melamine/au_from-h2/ci-neb/ts2-fixed/dft_leads-sz_tip-dzvp_surf-dzvp_kpoints-2-4-20_replicas-3
 # Program compiled at                              Thu 21 Sep 19:20:17 BST 2023
 # Program compiled on                                           hx1-c12-login-1
 # Program compiled for                                                    local
 # Source code revision number                                       git:5518aa6
 &GLOBAL
   EXTENDED_FFT_LENGTHS  T
   PRINT_LEVEL  MEDIUM
   PROJECT_NAME 2_dft_wfn-r-0
   OUTPUT_FILE_NAME 2_dft_wfn-r-0.out
   RUN_TYPE  BAND
 &END GLOBAL
 &MOTION
   &BAND
     NPROC_REP  64
     BAND_TYPE  CI-NEB
     NUMBER_OF_REPLICA  3
     K_SPRING     5.0000000000000003E-02
     &CI_NEB
       NSTEPS_IT  5
     &END CI_NEB
     &OPTIMIZE_BAND
       OPT_TYPE  DIIS
       &DIIS
         MAX_STEPS  1000
       &END DIIS
     &END OPTIMIZE_BAND
     &REPLICA
       &COORD
             0.0000000000000000E+00    0.0000000000000000E+00    0.0000000000000000E+00
             0.0000000000000000E+00    2.9549999999999956E+00    0.0000000000000000E+00
             0.0000000000000000E+00    5.9109999999999925E+00    0.0000000000000000E+00
             2.9559999999999977E+00    0.0000000000000000E+00    0.0000000000000000E+00
             2.9559999999999977E+00    2.9549999999999956E+00    0.0000000000000000E+00
             2.9559999999999977E+00    5.9109999999999925E+00    0.0000000000000000E+00
             5.9119999999999955E+00    0.0000000000000000E+00    0.0000000000000000E+00
             5.9119999999999955E+00    2.9549999999999956E+00    0.0000000000000000E+00
             5.9119999999999955E+00    5.9109999999999925E+00    0.0000000000000000E+00
             8.6699999999999946E+00    0.0000000000000000E+00    0.0000000000000000E+00
             8.6699999999999946E+00    2.9549999999999956E+00    0.0000000000000000E+00
             8.6699999999999946E+00    5.9109999999999925E+00    0.0000000000000000E+00
             1.1625999999999983E+01    0.0000000000000000E+00    0.0000000000000000E+00
             1.1625999999999983E+01    2.9549999999999956E+00    0.0000000000000000E+00
             1.1625999999999983E+01    5.9109999999999925E+00    0.0000000000000000E+00
             1.4779999999999989E+00    1.4779999999999989E+00    2.0899999999999976E+00
             1.4779999999999989E+00    4.4329999999999927E+00    2.0899999999999976E+00
             1.4779999999999989E+00    7.3889999999999949E+00    2.0899999999999976E+00
             4.4339999999999975E+00    1.4779999999999989E+00    2.0899999999999976E+00
             4.4339999999999975E+00    4.4329999999999927E+00    2.0899999999999976E+00
             4.4339999999999975E+00    7.3889999999999949E+00    2.0899999999999976E+00
             7.1919999999999904E+00    1.4779999999999989E+00    2.0899999999999976E+00
             7.1919999999999904E+00    4.4329999999999927E+00    2.0899999999999976E+00
             7.1919999999999904E+00    7.3889999999999949E+00    2.0899999999999976E+00
             1.0147999999999987E+01    1.4779999999999989E+00    2.0899999999999976E+00
             1.0147999999999987E+01    4.4329999999999927E+00    2.0899999999999976E+00
             1.0147999999999987E+01    7.3889999999999949E+00    2.0899999999999976E+00
             1.3103999999999987E+01    1.4779999999999989E+00    2.0899999999999976E+00
             1.3103999999999987E+01    4.4329999999999927E+00    2.0899999999999976E+00
             1.3103999999999987E+01    7.3889999999999949E+00    2.0899999999999976E+00
             0.0000000000000000E+00    0.0000000000000000E+00    4.1799999999999953E+00
             0.0000000000000000E+00    2.9549999999999956E+00    4.1799999999999953E+00
             0.0000000000000000E+00    5.9109999999999925E+00    4.1799999999999953E+00
             2.9559999999999977E+00    0.0000000000000000E+00    4.1799999999999953E+00
             2.9559999999999977E+00    2.9549999999999956E+00    4.1799999999999953E+00
             2.9559999999999977E+00    5.9109999999999925E+00    4.1799999999999953E+00
             5.9119999999999955E+00    0.0000000000000000E+00    4.1799999999999953E+00
             5.9119999999999955E+00    2.9549999999999956E+00    4.1799999999999953E+00
             5.9119999999999955E+00    5.9109999999999925E+00    4.1799999999999953E+00
             8.6699999999999946E+00    0.0000000000000000E+00    4.1799999999999953E+00
             8.6699999999999946E+00    2.9549999999999956E+00    4.1799999999999953E+00
             8.6699999999999946E+00    5.9109999999999925E+00    4.1799999999999953E+00
             1.1625999999999983E+01    0.0000000000000000E+00    4.1799999999999953E+00
             1.1625999999999983E+01    2.9549999999999956E+00    4.1799999999999953E+00
             1.1625999999999983E+01    5.9109999999999925E+00    4.1799999999999953E+00
             1.4779999999999989E+00    1.4779999999999989E+00    6.2699999999999907E+00
             1.4779999999999989E+00    4.4329999999999927E+00    6.2699999999999907E+00
             1.4779999999999989E+00    7.3889999999999949E+00    6.2699999999999907E+00
             4.4339999999999975E+00    1.4779999999999989E+00    6.2699999999999907E+00
             4.4339999999999975E+00    4.4329999999999927E+00    6.2699999999999907E+00
             4.4339999999999975E+00    7.3889999999999949E+00    6.2699999999999907E+00
             7.1919999999999904E+00    1.4779999999999989E+00    6.2699999999999907E+00
             7.1919999999999904E+00    4.4329999999999927E+00    6.2699999999999907E+00
             7.1919999999999904E+00    7.3889999999999949E+00    6.2699999999999907E+00
             1.0147999999999987E+01    1.4779999999999989E+00    6.2699999999999907E+00
             1.0147999999999987E+01    4.4329999999999927E+00    6.2699999999999907E+00
             1.0147999999999987E+01    7.3889999999999949E+00    6.2699999999999907E+00
             1.3103999999999987E+01    1.4779999999999989E+00    6.2699999999999907E+00
             1.3103999999999987E+01    4.4329999999999927E+00    6.2699999999999907E+00
             1.3103999999999987E+01    7.3889999999999949E+00    6.2699999999999907E+00
             0.0000000000000000E+00    0.0000000000000000E+00    8.3599999999999905E+00
             0.0000000000000000E+00    2.9549999999999956E+00    8.3599999999999905E+00
             0.0000000000000000E+00    5.9109999999999925E+00    8.3599999999999905E+00
             2.9559999999999977E+00    0.0000000000000000E+00    8.3599999999999905E+00
             2.9559999999999977E+00    2.9549999999999956E+00    8.3599999999999905E+00
             2.9559999999999977E+00    5.9109999999999925E+00    8.3599999999999905E+00
             5.9119999999999955E+00    0.0000000000000000E+00    8.3599999999999905E+00
             5.9119999999999955E+00    2.9549999999999956E+00    8.3599999999999905E+00
             5.9119999999999955E+00    5.9109999999999925E+00    8.3599999999999905E+00
             8.6699999999999946E+00    0.0000000000000000E+00    8.3599999999999905E+00
             8.6699999999999946E+00    2.9549999999999956E+00    8.3599999999999905E+00
             8.6699999999999946E+00    5.9109999999999925E+00    8.3599999999999905E+00
             1.1625999999999983E+01    0.0000000000000000E+00    8.3599999999999905E+00
             1.1625999999999983E+01    2.9549999999999956E+00    8.3599999999999905E+00
             1.1625999999999983E+01    5.9109999999999925E+00    8.3599999999999905E+00
             1.4779999999999989E+00    1.4779999999999989E+00    1.0449999999999974E+01
             1.4779999999999989E+00    4.4329999999999927E+00    1.0449999999999974E+01
             1.4779999999999989E+00    7.3889999999999949E+00    1.0449999999999974E+01
             4.4339999999999975E+00    1.4779999999999989E+00    1.0449999999999974E+01
             4.4339999999999975E+00    4.4329999999999927E+00    1.0449999999999974E+01
             4.4339999999999975E+00    7.3889999999999949E+00    1.0449999999999974E+01
             7.1919999999999904E+00    1.4779999999999989E+00    1.0449999999999974E+01
             7.1919999999999904E+00    4.4329999999999927E+00    1.0449999999999974E+01
             7.1919999999999904E+00    7.3889999999999949E+00    1.0449999999999974E+01
             1.0147999999999987E+01    1.4779999999999989E+00    1.0449999999999974E+01
             1.0147999999999987E+01    4.4329999999999927E+00    1.0449999999999974E+01
             1.0147999999999987E+01    7.3889999999999949E+00    1.0449999999999974E+01
             1.3103999999999987E+01    1.4779999999999989E+00    1.0449999999999974E+01
             1.3103999999999987E+01    4.4329999999999927E+00    1.0449999999999974E+01
             1.3103999999999987E+01    7.3889999999999949E+00    1.0449999999999974E+01
             4.8553999999999968E+00    5.9118999999999913E+00    1.2031799999999985E+01
             9.5279999999999969E+00    5.9136999999999915E+00    1.2033999999999997E+01
             7.1919999999999904E+00    5.9339999999999957E+00    1.2039999999999985E+01
             4.0673339927999947E+00    5.9059993219999996E+00    1.2687741368899976E+01
             1.0318905404799986E+01    5.9087793825999908E+00    1.2685747073199991E+01
             5.9989554221999928E+00    5.9152564165999904E+00    1.2792642411199981E+01
             8.3738707292999948E+00    5.9179777706999905E+00    1.2731457252199988E+01
             8.3227525761999974E+00    5.9051536094999912E+00    1.4080497642099994E+01
             5.9344285048999916E+00    5.8981604864999921E+00    1.4101749969599989E+01
             7.1039653576999910E+00    5.8899410688999945E+00    1.4828703219099978E+01
             7.2416021046999957E+00    5.8657702091999910E+00    1.6106466757299984E+01
             6.3118250322999909E+00    5.8547577070999912E+00    1.6539601306199984E+01
             9.1743570612999843E+00    5.8876302391999875E+00    1.4641017735299982E+01
             7.3119999999999878E+00    5.9339999999999957E+00    2.1042999999999978E+01
             5.8129999999999917E+00    7.4339999999999877E+00    2.2991999999999969E+01
             8.8129999999999793E+00    4.4339999999999975E+00    2.2991999999999969E+01
             5.8129999999999917E+00    4.4329999999999927E+00    2.2991999999999969E+01
             8.8129999999999793E+00    7.4339999999999877E+00    2.2991999999999969E+01
             1.4779999999999989E+00    1.4779999999999989E+00    2.5081999999999972E+01
             1.4779999999999989E+00    4.4329999999999927E+00    2.5081999999999972E+01
             1.4779999999999989E+00    7.3889999999999949E+00    2.5081999999999972E+01
             4.4339999999999975E+00    1.4779999999999989E+00    2.5081999999999972E+01
             4.4339999999999975E+00    4.4329999999999927E+00    2.5081999999999972E+01
             4.4339999999999975E+00    7.3889999999999949E+00    2.5081999999999972E+01
             7.1919999999999904E+00    1.4779999999999989E+00    2.5081999999999972E+01
             7.1919999999999904E+00    4.4329999999999927E+00    2.5081999999999972E+01
             7.1919999999999904E+00    7.3889999999999949E+00    2.5081999999999972E+01
             1.0147999999999987E+01    1.4779999999999989E+00    2.5081999999999972E+01
             1.0147999999999987E+01    4.4329999999999927E+00    2.5081999999999972E+01
             1.0147999999999987E+01    7.3889999999999949E+00    2.5081999999999972E+01
             1.3103999999999987E+01    1.4779999999999989E+00    2.5081999999999972E+01
             1.3103999999999987E+01    4.4329999999999927E+00    2.5081999999999972E+01
             1.3103999999999987E+01    7.3889999999999949E+00    2.5081999999999972E+01
             0.0000000000000000E+00    0.0000000000000000E+00    2.7171999999999972E+01
             0.0000000000000000E+00    2.9549999999999956E+00    2.7171999999999972E+01
             0.0000000000000000E+00    5.9109999999999925E+00    2.7171999999999972E+01
             2.9559999999999977E+00    0.0000000000000000E+00    2.7171999999999972E+01
             2.9559999999999977E+00    2.9549999999999956E+00    2.7171999999999972E+01
             2.9559999999999977E+00    5.9109999999999925E+00    2.7171999999999972E+01
             5.9119999999999955E+00    0.0000000000000000E+00    2.7171999999999972E+01
             5.9119999999999955E+00    2.9549999999999956E+00    2.7171999999999972E+01
             5.9119999999999955E+00    5.9109999999999925E+00    2.7171999999999972E+01
             8.6699999999999946E+00    0.0000000000000000E+00    2.7171999999999972E+01
             8.6699999999999946E+00    2.9549999999999956E+00    2.7171999999999972E+01
             8.6699999999999946E+00    5.9109999999999925E+00    2.7171999999999972E+01
             1.1625999999999983E+01    0.0000000000000000E+00    2.7171999999999972E+01
             1.1625999999999983E+01    2.9549999999999956E+00    2.7171999999999972E+01
             1.1625999999999983E+01    5.9109999999999925E+00    2.7171999999999972E+01
             1.4779999999999989E+00    1.4779999999999989E+00    2.9261999999999986E+01
             1.4779999999999989E+00    4.4329999999999927E+00    2.9261999999999986E+01
             1.4779999999999989E+00    7.3889999999999949E+00    2.9261999999999986E+01
             4.4339999999999975E+00    1.4779999999999989E+00    2.9261999999999986E+01
             4.4339999999999975E+00    4.4329999999999927E+00    2.9261999999999986E+01
             4.4339999999999975E+00    7.3889999999999949E+00    2.9261999999999986E+01
             7.1919999999999904E+00    1.4779999999999989E+00    2.9261999999999986E+01
             7.1919999999999904E+00    4.4329999999999927E+00    2.9261999999999986E+01
             7.1919999999999904E+00    7.3889999999999949E+00    2.9261999999999986E+01
             1.0147999999999987E+01    1.4779999999999989E+00    2.9261999999999986E+01
             1.0147999999999987E+01    4.4329999999999927E+00    2.9261999999999986E+01
             1.0147999999999987E+01    7.3889999999999949E+00    2.9261999999999986E+01
             1.3103999999999987E+01    1.4779999999999989E+00    2.9261999999999986E+01
             1.3103999999999987E+01    4.4329999999999927E+00    2.9261999999999986E+01
             1.3103999999999987E+01    7.3889999999999949E+00    2.9261999999999986E+01
             0.0000000000000000E+00    0.0000000000000000E+00    3.1351999999999951E+01
             0.0000000000000000E+00    2.9549999999999956E+00    3.1351999999999951E+01
             0.0000000000000000E+00    5.9109999999999925E+00    3.1351999999999951E+01
             2.9559999999999977E+00    0.0000000000000000E+00    3.1351999999999951E+01
             2.9559999999999977E+00    2.9549999999999956E+00    3.1351999999999951E+01
             2.9559999999999977E+00    5.9109999999999925E+00    3.1351999999999951E+01
             5.9119999999999955E+00    0.0000000000000000E+00    3.1351999999999951E+01
             5.9119999999999955E+00    2.9549999999999956E+00    3.1351999999999951E+01
             5.9119999999999955E+00    5.9109999999999925E+00    3.1351999999999951E+01
             8.6699999999999946E+00    0.0000000000000000E+00    3.1351999999999951E+01
             8.6699999999999946E+00    2.9549999999999956E+00    3.1351999999999951E+01
             8.6699999999999946E+00    5.9109999999999925E+00    3.1351999999999951E+01
             1.1625999999999983E+01    0.0000000000000000E+00    3.1351999999999951E+01
             1.1625999999999983E+01    2.9549999999999956E+00    3.1351999999999951E+01
             1.1625999999999983E+01    5.9109999999999925E+00    3.1351999999999951E+01
             1.4779999999999989E+00    1.4779999999999989E+00    3.3441999999999993E+01
             1.4779999999999989E+00    4.4329999999999927E+00    3.3441999999999993E+01
             1.4779999999999989E+00    7.3889999999999949E+00    3.3441999999999993E+01
             4.4339999999999975E+00    1.4779999999999989E+00    3.3441999999999993E+01
             4.4339999999999975E+00    4.4329999999999927E+00    3.3441999999999993E+01
             4.4339999999999975E+00    7.3889999999999949E+00    3.3441999999999993E+01
             7.1919999999999904E+00    1.4779999999999989E+00    3.3441999999999993E+01
             7.1919999999999904E+00    4.4329999999999927E+00    3.3441999999999993E+01
             7.1919999999999904E+00    7.3889999999999949E+00    3.3441999999999993E+01
             1.0147999999999987E+01    1.4779999999999989E+00    3.3441999999999993E+01
             1.0147999999999987E+01    4.4329999999999927E+00    3.3441999999999993E+01
             1.0147999999999987E+01    7.3889999999999949E+00    3.3441999999999993E+01
             1.3103999999999987E+01    1.4779999999999989E+00    3.3441999999999993E+01
             1.3103999999999987E+01    4.4329999999999927E+00    3.3441999999999993E+01
             1.3103999999999987E+01    7.3889999999999949E+00    3.3441999999999993E+01
       &END COORD
       &VELOCITY
             0.0000000000000000E+00    0.0000000000000000E+00    0.0000000000000000E+00
             0.0000000000000000E+00    0.0000000000000000E+00    0.0000000000000000E+00
             0.0000000000000000E+00    0.0000000000000000E+00    0.0000000000000000E+00
             0.0000000000000000E+00    0.0000000000000000E+00    0.0000000000000000E+00
             0.0000000000000000E+00    0.0000000000000000E+00    0.0000000000000000E+00
             0.0000000000000000E+00    0.0000000000000000E+00    0.0000000000000000E+00
             0.0000000000000000E+00    0.0000000000000000E+00    0.0000000000000000E+00
             0.0000000000000000E+00    0.0000000000000000E+00    0.0000000000000000E+00
             0.0000000000000000E+00    0.0000000000000000E+00    0.0000000000000000E+00
             0.0000000000000000E+00    0.0000000000000000E+00    0.0000000000000000E+00
             0.0000000000000000E+00    0.0000000000000000E+00    0.0000000000000000E+00
             0.0000000000000000E+00    0.0000000000000000E+00    0.0000000000000000E+00
             0.0000000000000000E+00    0.0000000000000000E+00    0.0000000000000000E+00
             0.0000000000000000E+00    0.0000000000000000E+00    0.0000000000000000E+00
             0.0000000000000000E+00    0.0000000000000000E+00    0.0000000000000000E+00
             0.0000000000000000E+00    0.0000000000000000E+00    0.0000000000000000E+00
             0.0000000000000000E+00    0.0000000000000000E+00    0.0000000000000000E+00
             0.0000000000000000E+00    0.0000000000000000E+00    0.0000000000000000E+00
             0.0000000000000000E+00    0.0000000000000000E+00    0.0000000000000000E+00
             0.0000000000000000E+00    0.0000000000000000E+00    0.0000000000000000E+00
             0.0000000000000000E+00    0.0000000000000000E+00    0.0000000000000000E+00
             0.0000000000000000E+00    0.0000000000000000E+00    0.0000000000000000E+00
             0.0000000000000000E+00    0.0000000000000000E+00    0.0000000000000000E+00
             0.0000000000000000E+00    0.0000000000000000E+00    0.0000000000000000E+00
             0.0000000000000000E+00    0.0000000000000000E+00    0.0000000000000000E+00
             0.0000000000000000E+00    0.0000000000000000E+00    0.0000000000000000E+00
             0.0000000000000000E+00    0.0000000000000000E+00    0.0000000000000000E+00
             0.0000000000000000E+00    0.0000000000000000E+00    0.0000000000000000E+00
             0.0000000000000000E+00    0.0000000000000000E+00    0.0000000000000000E+00
             0.0000000000000000E+00    0.0000000000000000E+00    0.0000000000000000E+00
             0.0000000000000000E+00    0.0000000000000000E+00    0.0000000000000000E+00
             0.0000000000000000E+00    0.0000000000000000E+00    0.0000000000000000E+00
             0.0000000000000000E+00    0.0000000000000000E+00    0.0000000000000000E+00
             0.0000000000000000E+00    0.0000000000000000E+00    0.0000000000000000E+00
             0.0000000000000000E+00    0.0000000000000000E+00    0.0000000000000000E+00
             0.0000000000000000E+00    0.0000000000000000E+00    0.0000000000000000E+00
             0.0000000000000000E+00    0.0000000000000000E+00    0.0000000000000000E+00
             0.0000000000000000E+00    0.0000000000000000E+00    0.0000000000000000E+00
             0.0000000000000000E+00    0.0000000000000000E+00    0.0000000000000000E+00
             0.0000000000000000E+00    0.0000000000000000E+00    0.0000000000000000E+00
             0.0000000000000000E+00    0.0000000000000000E+00    0.0000000000000000E+00
             0.0000000000000000E+00    0.0000000000000000E+00    0.0000000000000000E+00
             0.0000000000000000E+00    0.0000000000000000E+00    0.0000000000000000E+00
             0.0000000000000000E+00    0.0000000000000000E+00    0.0000000000000000E+00
             0.0000000000000000E+00    0.0000000000000000E+00    0.0000000000000000E+00
             0.0000000000000000E+00    0.0000000000000000E+00    0.0000000000000000E+00
             0.0000000000000000E+00    0.0000000000000000E+00    0.0000000000000000E+00
             0.0000000000000000E+00    0.0000000000000000E+00    0.0000000000000000E+00
             0.0000000000000000E+00    0.0000000000000000E+00    0.0000000000000000E+00
             0.0000000000000000E+00    0.0000000000000000E+00    0.0000000000000000E+00
             0.0000000000000000E+00    0.0000000000000000E+00    0.0000000000000000E+00
             0.0000000000000000E+00    0.0000000000000000E+00    0.0000000000000000E+00
             0.0000000000000000E+00    0.0000000000000000E+00    0.0000000000000000E+00
             0.0000000000000000E+00    0.0000000000000000E+00    0.0000000000000000E+00
             0.0000000000000000E+00    0.0000000000000000E+00    0.0000000000000000E+00
             0.0000000000000000E+00    0.0000000000000000E+00    0.0000000000000000E+00
             0.0000000000000000E+00    0.0000000000000000E+00    0.0000000000000000E+00
             0.0000000000000000E+00    0.0000000000000000E+00    0.0000000000000000E+00
             0.0000000000000000E+00    0.0000000000000000E+00    0.0000000000000000E+00
             0.0000000000000000E+00    0.0000000000000000E+00    0.0000000000000000E+00
             0.0000000000000000E+00    0.0000000000000000E+00    0.0000000000000000E+00
             0.0000000000000000E+00    0.0000000000000000E+00    0.0000000000000000E+00
             0.0000000000000000E+00    0.0000000000000000E+00    0.0000000000000000E+00
             0.0000000000000000E+00    0.0000000000000000E+00    0.0000000000000000E+00
             0.0000000000000000E+00    0.0000000000000000E+00    0.0000000000000000E+00
             0.0000000000000000E+00    0.0000000000000000E+00    0.0000000000000000E+00
             0.0000000000000000E+00    0.0000000000000000E+00    0.0000000000000000E+00
             0.0000000000000000E+00    0.0000000000000000E+00    0.0000000000000000E+00
             0.0000000000000000E+00    0.0000000000000000E+00    0.0000000000000000E+00
             0.0000000000000000E+00    0.0000000000000000E+00    0.0000000000000000E+00
             0.0000000000000000E+00    0.0000000000000000E+00    0.0000000000000000E+00
             0.0000000000000000E+00    0.0000000000000000E+00    0.0000000000000000E+00
             0.0000000000000000E+00    0.0000000000000000E+00    0.0000000000000000E+00
             0.0000000000000000E+00    0.0000000000000000E+00    0.0000000000000000E+00
             0.0000000000000000E+00    0.0000000000000000E+00    0.0000000000000000E+00
             0.0000000000000000E+00    0.0000000000000000E+00    0.0000000000000000E+00
             0.0000000000000000E+00    0.0000000000000000E+00    0.0000000000000000E+00
             0.0000000000000000E+00    0.0000000000000000E+00    0.0000000000000000E+00
             0.0000000000000000E+00    0.0000000000000000E+00    0.0000000000000000E+00
             0.0000000000000000E+00    0.0000000000000000E+00    0.0000000000000000E+00
             0.0000000000000000E+00    0.0000000000000000E+00    0.0000000000000000E+00
             0.0000000000000000E+00    0.0000000000000000E+00    0.0000000000000000E+00
             0.0000000000000000E+00    0.0000000000000000E+00    0.0000000000000000E+00
             0.0000000000000000E+00    0.0000000000000000E+00    0.0000000000000000E+00
             0.0000000000000000E+00    0.0000000000000000E+00    0.0000000000000000E+00
             0.0000000000000000E+00    0.0000000000000000E+00    0.0000000000000000E+00
             0.0000000000000000E+00    0.0000000000000000E+00    0.0000000000000000E+00
             0.0000000000000000E+00    0.0000000000000000E+00    0.0000000000000000E+00
             0.0000000000000000E+00    0.0000000000000000E+00    0.0000000000000000E+00
             0.0000000000000000E+00    0.0000000000000000E+00    0.0000000000000000E+00
             0.0000000000000000E+00    0.0000000000000000E+00    0.0000000000000000E+00
             0.0000000000000000E+00    0.0000000000000000E+00    0.0000000000000000E+00
             0.0000000000000000E+00    0.0000000000000000E+00    0.0000000000000000E+00
             0.0000000000000000E+00    0.0000000000000000E+00    0.0000000000000000E+00
             0.0000000000000000E+00    0.0000000000000000E+00    0.0000000000000000E+00
             0.0000000000000000E+00    0.0000000000000000E+00    0.0000000000000000E+00
             0.0000000000000000E+00    0.0000000000000000E+00    0.0000000000000000E+00
             0.0000000000000000E+00    0.0000000000000000E+00    0.0000000000000000E+00
             0.0000000000000000E+00    0.0000000000000000E+00    0.0000000000000000E+00
             0.0000000000000000E+00    0.0000000000000000E+00    0.0000000000000000E+00
             0.0000000000000000E+00    0.0000000000000000E+00    0.0000000000000000E+00
             0.0000000000000000E+00    0.0000000000000000E+00    0.0000000000000000E+00
             0.0000000000000000E+00    0.0000000000000000E+00    0.0000000000000000E+00
             0.0000000000000000E+00    0.0000000000000000E+00    0.0000000000000000E+00
             0.0000000000000000E+00    0.0000000000000000E+00    0.0000000000000000E+00
             0.0000000000000000E+00    0.0000000000000000E+00    0.0000000000000000E+00
             0.0000000000000000E+00    0.0000000000000000E+00    0.0000000000000000E+00
             0.0000000000000000E+00    0.0000000000000000E+00    0.0000000000000000E+00
             0.0000000000000000E+00    0.0000000000000000E+00    0.0000000000000000E+00
             0.0000000000000000E+00    0.0000000000000000E+00    0.0000000000000000E+00
             0.0000000000000000E+00    0.0000000000000000E+00    0.0000000000000000E+00
             0.0000000000000000E+00    0.0000000000000000E+00    0.0000000000000000E+00
             0.0000000000000000E+00    0.0000000000000000E+00    0.0000000000000000E+00
             0.0000000000000000E+00    0.0000000000000000E+00    0.0000000000000000E+00
             0.0000000000000000E+00    0.0000000000000000E+00    0.0000000000000000E+00
             0.0000000000000000E+00    0.0000000000000000E+00    0.0000000000000000E+00
             0.0000000000000000E+00    0.0000000000000000E+00    0.0000000000000000E+00
             0.0000000000000000E+00    0.0000000000000000E+00    0.0000000000000000E+00
             0.0000000000000000E+00    0.0000000000000000E+00    0.0000000000000000E+00
             0.0000000000000000E+00    0.0000000000000000E+00    0.0000000000000000E+00
             0.0000000000000000E+00    0.0000000000000000E+00    0.0000000000000000E+00
             0.0000000000000000E+00    0.0000000000000000E+00    0.0000000000000000E+00
             0.0000000000000000E+00    0.0000000000000000E+00    0.0000000000000000E+00
             0.0000000000000000E+00    0.0000000000000000E+00    0.0000000000000000E+00
             0.0000000000000000E+00    0.0000000000000000E+00    0.0000000000000000E+00
             0.0000000000000000E+00    0.0000000000000000E+00    0.0000000000000000E+00
             0.0000000000000000E+00    0.0000000000000000E+00    0.0000000000000000E+00
             0.0000000000000000E+00    0.0000000000000000E+00    0.0000000000000000E+00
             0.0000000000000000E+00    0.0000000000000000E+00    0.0000000000000000E+00
             0.0000000000000000E+00    0.0000000000000000E+00    0.0000000000000000E+00
             0.0000000000000000E+00    0.0000000000000000E+00    0.0000000000000000E+00
             0.0000000000000000E+00    0.0000000000000000E+00    0.0000000000000000E+00
             0.0000000000000000E+00    0.0000000000000000E+00    0.0000000000000000E+00
             0.0000000000000000E+00    0.0000000000000000E+00    0.0000000000000000E+00
             0.0000000000000000E+00    0.0000000000000000E+00    0.0000000000000000E+00
             0.0000000000000000E+00    0.0000000000000000E+00    0.0000000000000000E+00
             0.0000000000000000E+00    0.0000000000000000E+00    0.0000000000000000E+00
             0.0000000000000000E+00    0.0000000000000000E+00    0.0000000000000000E+00
             0.0000000000000000E+00    0.0000000000000000E+00    0.0000000000000000E+00
             0.0000000000000000E+00    0.0000000000000000E+00    0.0000000000000000E+00
             0.0000000000000000E+00    0.0000000000000000E+00    0.0000000000000000E+00
             0.0000000000000000E+00    0.0000000000000000E+00    0.0000000000000000E+00
             0.0000000000000000E+00    0.0000000000000000E+00    0.0000000000000000E+00
             0.0000000000000000E+00    0.0000000000000000E+00    0.0000000000000000E+00
             0.0000000000000000E+00    0.0000000000000000E+00    0.0000000000000000E+00