 # Version information for this restart file 
 # current date 2024-01-13 07:41:56.633
 # current working dir /gpfs/home/cahart/transport/melamine/au_from-h2/ci-neb/ts2-fixed/dft_leads-sz_tip-dzvp_surf-dzvp_kpoints-2-4-20_replicas-3
 # Program compiled at                              Thu 21 Sep 19:20:17 BST 2023
 # Program compiled on                                           hx1-c12-login-1
 # Program compiled for                                                    local
 # Source code revision number                                       git:5518aa6
 &GLOBAL
   EXTENDED_FFT_LENGTHS  T
   PRINT_LEVEL  MEDIUM
   PROJECT_NAME 2_dft_wfn-r-0
   OUTPUT_FILE_NAME 2_dft_wfn-r-0.out
   RUN_TYPE  BAND
 &END GLOBAL
 &MOTION
   &BAND
     NPROC_REP  64
     BAND_TYPE  CI-NEB
     NUMBER_OF_REPLICA  3
     K_SPRING     5.0000000000000003E-02
     &CI_NEB
       NSTEPS_IT  5
     &END CI_NEB
     &OPTIMIZE_BAND
       OPT_TYPE  DIIS
       &DIIS
         MAX_STEPS  1000
       &END DIIS
     &END OPTIMIZE_BAND
     &REPLICA
       &COORD
             0.0000000000000000E+00    0.0000000000000000E+00    0.0000000000000000E+00
             0.0000000000000000E+00    2.9549999999999956E+00    0.0000000000000000E+00
             0.0000000000000000E+00    5.9109999999999960E+00    0.0000000000000000E+00
             2.9559999999999977E+00    0.0000000000000000E+00    0.0000000000000000E+00
             2.9559999999999977E+00    2.9549999999999956E+00    0.0000000000000000E+00
             2.9559999999999977E+00    5.9109999999999960E+00    0.0000000000000000E+00
             5.9119999999999955E+00    0.0000000000000000E+00    0.0000000000000000E+00
             5.9119999999999955E+00    2.9549999999999956E+00    0.0000000000000000E+00
             5.9119999999999955E+00    5.9109999999999960E+00    0.0000000000000000E+00
             8.6699999999999964E+00    0.0000000000000000E+00    0.0000000000000000E+00
             8.6699999999999964E+00    2.9549999999999956E+00    0.0000000000000000E+00
             8.6699999999999964E+00    5.9109999999999960E+00    0.0000000000000000E+00
             1.1625999999999985E+01    0.0000000000000000E+00    0.0000000000000000E+00
             1.1625999999999985E+01    2.9549999999999956E+00    0.0000000000000000E+00
             1.1625999999999985E+01    5.9109999999999960E+00    0.0000000000000000E+00
             1.4779999999999989E+00    1.4779999999999989E+00    2.0899999999999976E+00
             1.4779999999999989E+00    4.4329999999999927E+00    2.0899999999999976E+00
             1.4779999999999989E+00    7.3889999999999967E+00    2.0899999999999976E+00
             4.4340000000000011E+00    1.4779999999999989E+00    2.0899999999999976E+00
             4.4340000000000011E+00    4.4329999999999927E+00    2.0899999999999976E+00
             4.4340000000000011E+00    7.3889999999999967E+00    2.0899999999999976E+00
             7.1919999999999886E+00    1.4779999999999989E+00    2.0899999999999976E+00
             7.1919999999999886E+00    4.4329999999999927E+00    2.0899999999999976E+00
             7.1919999999999886E+00    7.3889999999999967E+00    2.0899999999999976E+00
             1.0147999999999991E+01    1.4779999999999989E+00    2.0899999999999976E+00
             1.0147999999999991E+01    4.4329999999999927E+00    2.0899999999999976E+00
             1.0147999999999991E+01    7.3889999999999967E+00    2.0899999999999976E+00
             1.3103999999999997E+01    1.4779999999999989E+00    2.0899999999999976E+00
             1.3103999999999997E+01    4.4329999999999927E+00    2.0899999999999976E+00
             1.3103999999999997E+01    7.3889999999999967E+00    2.0899999999999976E+00
             0.0000000000000000E+00    0.0000000000000000E+00    4.1799999999999953E+00
             0.0000000000000000E+00    2.9549999999999956E+00    4.1799999999999953E+00
             0.0000000000000000E+00    5.9109999999999960E+00    4.1799999999999953E+00
             2.9559999999999977E+00    0.0000000000000000E+00    4.1799999999999953E+00
             2.9559999999999977E+00    2.9549999999999956E+00    4.1799999999999953E+00
             2.9559999999999977E+00    5.9109999999999960E+00    4.1799999999999953E+00
             5.9119999999999955E+00    0.0000000000000000E+00    4.1799999999999953E+00
             5.9119999999999955E+00    2.9549999999999956E+00    4.1799999999999953E+00
             5.9119999999999955E+00    5.9109999999999960E+00    4.1799999999999953E+00
             8.6699999999999964E+00    0.0000000000000000E+00    4.1799999999999953E+00
             8.6699999999999964E+00    2.9549999999999956E+00    4.1799999999999953E+00
             8.6699999999999964E+00    5.9109999999999960E+00    4.1799999999999953E+00
             1.1625999999999985E+01    0.0000000000000000E+00    4.1799999999999953E+00
             1.1625999999999985E+01    2.9549999999999956E+00    4.1799999999999953E+00
             1.1625999999999985E+01    5.9109999999999960E+00    4.1799999999999953E+00
             1.4779999999999989E+00    1.4779999999999989E+00    6.2699999999999934E+00
             1.4779999999999989E+00    4.4329999999999927E+00    6.2699999999999934E+00
             1.4779999999999989E+00    7.3889999999999967E+00    6.2699999999999934E+00
             4.4340000000000011E+00    1.4779999999999989E+00    6.2699999999999934E+00
             4.4340000000000011E+00    4.4329999999999927E+00    6.2699999999999934E+00
             4.4340000000000011E+00    7.3889999999999967E+00    6.2699999999999934E+00
             7.1919999999999886E+00    1.4779999999999989E+00    6.2699999999999934E+00
             7.1919999999999886E+00    4.4329999999999927E+00    6.2699999999999934E+00
             7.1919999999999886E+00    7.3889999999999967E+00    6.2699999999999934E+00
             1.0147999999999991E+01    1.4779999999999989E+00    6.2699999999999934E+00
             1.0147999999999991E+01    4.4329999999999927E+00    6.2699999999999934E+00
             1.0147999999999991E+01    7.3889999999999967E+00    6.2699999999999934E+00
             1.3103999999999997E+01    1.4779999999999989E+00    6.2699999999999934E+00
             1.3103999999999997E+01    4.4329999999999927E+00    6.2699999999999934E+00
             1.3103999999999997E+01    7.3889999999999967E+00    6.2699999999999934E+00
             0.0000000000000000E+00    0.0000000000000000E+00    8.3599999999999905E+00
             0.0000000000000000E+00    2.9549999999999956E+00    8.3599999999999905E+00
             0.0000000000000000E+00    5.9109999999999960E+00    8.3599999999999905E+00
             2.9559999999999977E+00    0.0000000000000000E+00    8.3599999999999905E+00
             2.9559999999999977E+00    2.9549999999999956E+00    8.3599999999999905E+00
             2.9559999999999977E+00    5.9109999999999960E+00    8.3599999999999905E+00
             5.9119999999999955E+00    0.0000000000000000E+00    8.3599999999999905E+00
             5.9119999999999955E+00    2.9549999999999956E+00    8.3599999999999905E+00
             5.9119999999999955E+00    5.9109999999999960E+00    8.3599999999999905E+00
             8.6699999999999964E+00    0.0000000000000000E+00    8.3599999999999905E+00
             8.6699999999999964E+00    2.9549999999999956E+00    8.3599999999999905E+00
             8.6699999999999964E+00    5.9109999999999960E+00    8.3599999999999905E+00
             1.1625999999999985E+01    0.0000000000000000E+00    8.3599999999999905E+00
             1.1625999999999985E+01    2.9549999999999956E+00    8.3599999999999905E+00
             1.1625999999999985E+01    5.9109999999999960E+00    8.3599999999999905E+00
             1.4779999999999989E+00    1.4779999999999989E+00    1.0449999999999982E+01
             1.4779999999999989E+00    4.4329999999999927E+00    1.0449999999999982E+01
             1.4779999999999989E+00    7.3889999999999967E+00    1.0449999999999982E+01
             4.4340000000000011E+00    1.4779999999999989E+00    1.0449999999999982E+01
             4.4340000000000011E+00    4.4329999999999927E+00    1.0449999999999982E+01
             4.4340000000000011E+00    7.3889999999999967E+00    1.0449999999999982E+01
             7.1919999999999886E+00    1.4779999999999989E+00    1.0449999999999982E+01
             7.1919999999999886E+00    4.4329999999999927E+00    1.0449999999999982E+01
             7.1919999999999886E+00    7.3889999999999967E+00    1.0449999999999982E+01
             1.0147999999999991E+01    1.4779999999999989E+00    1.0449999999999982E+01
             1.0147999999999991E+01    4.4329999999999927E+00    1.0449999999999982E+01
             1.0147999999999991E+01    7.3889999999999967E+00    1.0449999999999982E+01
             1.3103999999999997E+01    1.4779999999999989E+00    1.0449999999999982E+01
             1.3103999999999997E+01    4.4329999999999927E+00    1.0449999999999982E+01
             1.3103999999999997E+01    7.3889999999999967E+00    1.0449999999999982E+01
             4.8553999999999986E+00    5.9118999999999966E+00    1.2031799999999992E+01
             9.5279999999999987E+00    5.9136999999999977E+00    1.2034000000000004E+01
             7.1919999999999886E+00    5.9339999999999984E+00    1.2039999999999983E+01
             4.0673339927999956E+00    5.9059993220000049E+00    1.2687741368899973E+01
             1.0318905404799985E+01    5.9087793825999926E+00    1.2685747073199996E+01
             5.9989554222000008E+00    5.9152564165999912E+00    1.2792642411199983E+01
             8.3738707292999912E+00    5.9179777706999923E+00    1.2731457252199991E+01
             8.3227525761999992E+00    5.9051536094999948E+00    1.4080497642099999E+01
             5.9344285048999934E+00    5.8981604864999966E+00    1.4101749969600000E+01
             7.1039653576999910E+00    5.8899410688999980E+00    1.4828703219099975E+01
             7.2416021047000010E+00    5.8657702091999884E+00    1.6106466757299987E+01
             6.3118250322999927E+00    5.8547577070999868E+00    1.6539601306199991E+01
             9.1743570612999878E+00    5.8876302391999884E+00    1.4641017735299981E+01
             7.3119999999999932E+00    5.9339999999999984E+00    2.1043000000000006E+01
             5.8129999999999926E+00    7.4339999999999886E+00    2.2991999999999976E+01
             8.8129999999999828E+00    4.4340000000000011E+00    2.2991999999999976E+01
             5.8129999999999926E+00    4.4329999999999927E+00    2.2991999999999976E+01
             8.8129999999999828E+00    7.4339999999999886E+00    2.2991999999999976E+01
             1.4779999999999989E+00    1.4779999999999989E+00    2.5082000000000001E+01
             1.4779999999999989E+00    4.4329999999999927E+00    2.5082000000000001E+01
             1.4779999999999989E+00    7.3889999999999967E+00    2.5082000000000001E+01
             4.4340000000000011E+00    1.4779999999999989E+00    2.5082000000000001E+01
             4.4340000000000011E+00    4.4329999999999927E+00    2.5082000000000001E+01
             4.4340000000000011E+00    7.3889999999999967E+00    2.5082000000000001E+01
             7.1919999999999886E+00    1.4779999999999989E+00    2.5082000000000001E+01
             7.1919999999999886E+00    4.4329999999999927E+00    2.5082000000000001E+01
             7.1919999999999886E+00    7.3889999999999967E+00    2.5082000000000001E+01
             1.0147999999999991E+01    1.4779999999999989E+00    2.5082000000000001E+01
             1.0147999999999991E+01    4.4329999999999927E+00    2.5082000000000001E+01
             1.0147999999999991E+01    7.3889999999999967E+00    2.5082000000000001E+01
             1.3103999999999997E+01    1.4779999999999989E+00    2.5082000000000001E+01
             1.3103999999999997E+01    4.4329999999999927E+00    2.5082000000000001E+01
             1.3103999999999997E+01    7.3889999999999967E+00    2.5082000000000001E+01
             0.0000000000000000E+00    0.0000000000000000E+00    2.7171999999999997E+01
             0.0000000000000000E+00    2.9549999999999956E+00    2.7171999999999997E+01
             0.0000000000000000E+00    5.9109999999999960E+00    2.7171999999999997E+01
             2.9559999999999977E+00    0.0000000000000000E+00    2.7171999999999997E+01
             2.9559999999999977E+00    2.9549999999999956E+00    2.7171999999999997E+01
             2.9559999999999977E+00    5.9109999999999960E+00    2.7171999999999997E+01
             5.9119999999999955E+00    0.0000000000000000E+00    2.7171999999999997E+01
             5.9119999999999955E+00    2.9549999999999956E+00    2.7171999999999997E+01
             5.9119999999999955E+00    5.9109999999999960E+00    2.7171999999999997E+01
             8.6699999999999964E+00    0.0000000000000000E+00    2.7171999999999997E+01
             8.6699999999999964E+00    2.9549999999999956E+00    2.7171999999999997E+01
             8.6699999999999964E+00    5.9109999999999960E+00    2.7171999999999997E+01
             1.1625999999999985E+01    0.0000000000000000E+00    2.7171999999999997E+01
             1.1625999999999985E+01    2.9549999999999956E+00    2.7171999999999997E+01
             1.1625999999999985E+01    5.9109999999999960E+00    2.7171999999999997E+01
             1.4779999999999989E+00    1.4779999999999989E+00    2.9262000000000008E+01
             1.4779999999999989E+00    4.4329999999999927E+00    2.9262000000000008E+01
             1.4779999999999989E+00    7.3889999999999967E+00    2.9262000000000008E+01
             4.4340000000000011E+00    1.4779999999999989E+00    2.9262000000000008E+01
             4.4340000000000011E+00    4.4329999999999927E+00    2.9262000000000008E+01
             4.4340000000000011E+00    7.3889999999999967E+00    2.9262000000000008E+01
             7.1919999999999886E+00    1.4779999999999989E+00    2.9262000000000008E+01
             7.1919999999999886E+00    4.4329999999999927E+00    2.9262000000000008E+01
             7.1919999999999886E+00    7.3889999999999967E+00    2.9262000000000008E+01
             1.0147999999999991E+01    1.4779999999999989E+00    2.9262000000000008E+01
             1.0147999999999991E+01    4.4329999999999927E+00    2.9262000000000008E+01
             1.0147999999999991E+01    7.3889999999999967E+00    2.9262000000000008E+01
             1.3103999999999997E+01    1.4779999999999989E+00    2.9262000000000008E+01
             1.3103999999999997E+01    4.4329999999999927E+00    2.9262000000000008E+01
             1.3103999999999997E+01    7.3889999999999967E+00    2.9262000000000008E+01
             0.0000000000000000E+00    0.0000000000000000E+00    3.1351999999999958E+01
             0.0000000000000000E+00    2.9549999999999956E+00    3.1351999999999958E+01
             0.0000000000000000E+00    5.9109999999999960E+00    3.1351999999999958E+01
             2.9559999999999977E+00    0.0000000000000000E+00    3.1351999999999958E+01
             2.9559999999999977E+00    2.9549999999999956E+00    3.1351999999999958E+01
             2.9559999999999977E+00    5.9109999999999960E+00    3.1351999999999958E+01
             5.9119999999999955E+00    0.0000000000000000E+00    3.1351999999999958E+01
             5.9119999999999955E+00    2.9549999999999956E+00    3.1351999999999958E+01
             5.9119999999999955E+00    5.9109999999999960E+00    3.1351999999999958E+01
             8.6699999999999964E+00    0.0000000000000000E+00    3.1351999999999958E+01
             8.6699999999999964E+00    2.9549999999999956E+00    3.1351999999999958E+01
             8.6699999999999964E+00    5.9109999999999960E+00    3.1351999999999958E+01
             1.1625999999999985E+01    0.0000000000000000E+00    3.1351999999999958E+01
             1.1625999999999985E+01    2.9549999999999956E+00    3.1351999999999958E+01
             1.1625999999999985E+01    5.9109999999999960E+00    3.1351999999999958E+01
             1.4779999999999989E+00    1.4779999999999989E+00    3.3442000000000014E+01
             1.4779999999999989E+00    4.4329999999999927E+00    3.3442000000000014E+01
             1.4779999999999989E+00    7.3889999999999967E+00    3.3442000000000014E+01
             4.4340000000000011E+00    1.4779999999999989E+00    3.3442000000000014E+01
             4.4340000000000011E+00    4.4329999999999927E+00    3.3442000000000014E+01
             4.4340000000000011E+00    7.3889999999999967E+00    3.3442000000000014E+01
             7.1919999999999886E+00    1.4779999999999989E+00    3.3442000000000014E+01
             7.1919999999999886E+00    4.4329999999999927E+00    3.3442000000000014E+01
             7.1919999999999886E+00    7.3889999999999967E+00    3.3442000000000014E+01
             1.0147999999999991E+01    1.4779999999999989E+00    3.3442000000000014E+01
             1.0147999999999991E+01    4.4329999999999927E+00    3.3442000000000014E+01
             1.0147999999999991E+01    7.3889999999999967E+00    3.3442000000000014E+01
             1.3103999999999997E+01    1.4779999999999989E+00    3.3442000000000014E+01
             1.3103999999999997E+01    4.4329999999999927E+00    3.3442000000000014E+01
             1.3103999999999997E+01    7.3889999999999967E+00    3.3442000000000014E+01
       &END COORD
       &VELOCITY
             0.0000000000000000E+00    0.0000000000000000E+00    0.0000000000000000E+00
             0.0000000000000000E+00    0.0000000000000000E+00    0.0000000000000000E+00
             0.0000000000000000E+00    0.0000000000000000E+00    0.0000000000000000E+00
             0.0000000000000000E+00    0.0000000000000000E+00    0.0000000000000000E+00
             0.0000000000000000E+00    0.0000000000000000E+00    0.0000000000000000E+00
             0.0000000000000000E+00    0.0000000000000000E+00    0.0000000000000000E+00
             0.0000000000000000E+00    0.0000000000000000E+00    0.0000000000000000E+00
             0.0000000000000000E+00    0.0000000000000000E+00    0.0000000000000000E+00
             0.0000000000000000E+00    0.0000000000000000E+00    0.0000000000000000E+00
             0.0000000000000000E+00    0.0000000000000000E+00    0.0000000000000000E+00
             0.0000000000000000E+00    0.0000000000000000E+00    0.0000000000000000E+00
             0.0000000000000000E+00    0.0000000000000000E+00    0.0000000000000000E+00
             0.0000000000000000E+00    0.0000000000000000E+00    0.0000000000000000E+00
             0.0000000000000000E+00    0.0000000000000000E+00    0.0000000000000000E+00
             0.0000000000000000E+00    0.0000000000000000E+00    0.0000000000000000E+00
             0.0000000000000000E+00    0.0000000000000000E+00    0.0000000000000000E+00
             0.0000000000000000E+00    0.0000000000000000E+00    0.0000000000000000E+00
             0.0000000000000000E+00    0.0000000000000000E+00    0.0000000000000000E+00
             0.0000000000000000E+00    0.0000000000000000E+00    0.0000000000000000E+00
             0.0000000000000000E+00    0.0000000000000000E+00    0.0000000000000000E+00
             0.0000000000000000E+00    0.0000000000000000E+00    0.0000000000000000E+00
             0.0000000000000000E+00    0.0000000000000000E+00    0.0000000000000000E+00
             0.0000000000000000E+00    0.0000000000000000E+00    0.0000000000000000E+00
             0.0000000000000000E+00    0.0000000000000000E+00    0.0000000000000000E+00
             0.0000000000000000E+00    0.0000000000000000E+00    0.0000000000000000E+00
             0.0000000000000000E+00    0.0000000000000000E+00    0.0000000000000000E+00
             0.0000000000000000E+00    0.0000000000000000E+00    0.0000000000000000E+00
             0.0000000000000000E+00    0.0000000000000000E+00    0.0000000000000000E+00
             0.0000000000000000E+00    0.0000000000000000E+00    0.0000000000000000E+00
             0.0000000000000000E+00    0.0000000000000000E+00    0.0000000000000000E+00
             0.0000000000000000E+00    0.0000000000000000E+00    0.0000000000000000E+00
             0.0000000000000000E+00    0.0000000000000000E+00    0.0000000000000000E+00
             0.0000000000000000E+00    0.0000000000000000E+00    0.0000000000000000E+00
             0.0000000000000000E+00    0.0000000000000000E+00    0.0000000000000000E+00
             0.0000000000000000E+00    0.0000000000000000E+00    0.0000000000000000E+00
             0.0000000000000000E+00    0.0000000000000000E+00    0.0000000000000000E+00
             0.0000000000000000E+00    0.0000000000000000E+00    0.0000000000000000E+00
             0.0000000000000000E+00    0.0000000000000000E+00    0.0000000000000000E+00
             0.0000000000000000E+00    0.0000000000000000E+00    0.0000000000000000E+00
             0.0000000000000000E+00    0.0000000000000000E+00    0.0000000000000000E+00
             0.0000000000000000E+00    0.0000000000000000E+00    0.0000000000000000E+00
             0.0000000000000000E+00    0.0000000000000000E+00    0.0000000000000000E+00
             0.0000000000000000E+00    0.0000000000000000E+00    0.0000000000000000E+00
             0.0000000000000000E+00    0.0000000000000000E+00    0.0000000000000000E+00
             0.0000000000000000E+00    0.0000000000000000E+00    0.0000000000000000E+00
             0.0000000000000000E+00    0.0000000000000000E+00    0.0000000000000000E+00
             0.0000000000000000E+00    0.0000000000000000E+00    0.0000000000000000E+00
             0.0000000000000000E+00    0.0000000000000000E+00    0.0000000000000000E+00
             0.0000000000000000E+00    0.0000000000000000E+00    0.0000000000000000E+00
             0.0000000000000000E+00    0.0000000000000000E+00    0.0000000000000000E+00
             0.0000000000000000E+00    0.0000000000000000E+00    0.0000000000000000E+00
             0.0000000000000000E+00    0.0000000000000000E+00    0.0000000000000000E+00
             0.0000000000000000E+00    0.0000000000000000E+00    0.0000000000000000E+00
             0.0000000000000000E+00    0.0000000000000000E+00    0.0000000000000000E+00
             0.0000000000000000E+00    0.0000000000000000E+00    0.0000000000000000E+00
             0.0000000000000000E+00    0.0000000000000000E+00    0.0000000000000000E+00
             0.0000000000000000E+00    0.0000000000000000E+00    0.0000000000000000E+00
             0.0000000000000000E+00    0.0000000000000000E+00    0.0000000000000000E+00
             0.0000000000000000E+00    0.0000000000000000E+00    0.0000000000000000E+00
             0.0000000000000000E+00    0.0000000000000000E+00    0.0000000000000000E+00
             0.0000000000000000E+00    0.0000000000000000E+00    0.0000000000000000E+00
             0.0000000000000000E+00    0.0000000000000000E+00    0.0000000000000000E+00
             0.0000000000000000E+00    0.0000000000000000E+00    0.0000000000000000E+00
             0.0000000000000000E+00    0.0000000000000000E+00    0.0000000000000000E+00
             0.0000000000000000E+00    0.0000000000000000E+00    0.0000000000000000E+00
             0.0000000000000000E+00    0.0000000000000000E+00    0.0000000000000000E+00
             0.0000000000000000E+00    0.0000000000000000E+00    0.0000000000000000E+00
             0.0000000000000000E+00    0.0000000000000000E+00    0.0000000000000000E+00
             0.0000000000000000E+00    0.0000000000000000E+00    0.0000000000000000E+00
             0.0000000000000000E+00    0.0000000000000000E+00    0.0000000000000000E+00
             0.0000000000000000E+00    0.0000000000000000E+00    0.0000000000000000E+00
             0.0000000000000000E+00    0.0000000000000000E+00    0.0000000000000000E+00
             0.0000000000000000E+00    0.0000000000000000E+00    0.0000000000000000E+00
             0.0000000000000000E+00    0.0000000000000000E+00    0.0000000000000000E+00
             0.0000000000000000E+00    0.0000000000000000E+00    0.0000000000000000E+00
             0.0000000000000000E+00    0.0000000000000000E+00    0.0000000000000000E+00
             0.0000000000000000E+00    0.0000000000000000E+00    0.0000000000000000E+00
             0.0000000000000000E+00    0.0000000000000000E+00    0.0000000000000000E+00
             0.0000000000000000E+00    0.0000000000000000E+00    0.0000000000000000E+00
             0.0000000000000000E+00    0.0000000000000000E+00    0.0000000000000000E+00
             0.0000000000000000E+00    0.0000000000000000E+00    0.0000000000000000E+00
             0.0000000000000000E+00    0.0000000000000000E+00    0.0000000000000000E+00
             0.0000000000000000E+00    0.0000000000000000E+00    0.0000000000000000E+00
             0.0000000000000000E+00    0.0000000000000000E+00    0.0000000000000000E+00
             0.0000000000000000E+00    0.0000000000000000E+00    0.0000000000000000E+00
             0.0000000000000000E+00    0.0000000000000000E+00    0.0000000000000000E+00
             0.0000000000000000E+00    0.0000000000000000E+00    0.0000000000000000E+00
             0.0000000000000000E+00    0.0000000000000000E+00    0.0000000000000000E+00
             0.0000000000000000E+00    0.0000000000000000E+00    0.0000000000000000E+00
             0.0000000000000000E+00    0.0000000000000000E+00    0.0000000000000000E+00
             0.0000000000000000E+00    0.0000000000000000E+00    0.0000000000000000E+00
             0.0000000000000000E+00    0.0000000000000000E+00    0.0000000000000000E+00
             0.0000000000000000E+00    0.0000000000000000E+00    0.0000000000000000E+00
             0.0000000000000000E+00    0.0000000000000000E+00    0.0000000000000000E+00
             0.0000000000000000E+00    0.0000000000000000E+00    0.0000000000000000E+00
             0.0000000000000000E+00    0.0000000000000000E+00    0.0000000000000000E+00
             0.0000000000000000E+00    0.0000000000000000E+00    0.0000000000000000E+00
             0.0000000000000000E+00    0.0000000000000000E+00    0.0000000000000000E+00
             0.0000000000000000E+00    0.0000000000000000E+00    0.0000000000000000E+00
             0.0000000000000000E+00    0.0000000000000000E+00    0.0000000000000000E+00
             0.0000000000000000E+00    0.0000000000000000E+00    0.0000000000000000E+00
             0.0000000000000000E+00    0.0000000000000000E+00    0.0000000000000000E+00
             0.0000000000000000E+00    0.0000000000000000E+00    0.0000000000000000E+00
             0.0000000000000000E+00    0.0000000000000000E+00    0.0000000000000000E+00
             0.0000000000000000E+00    0.0000000000000000E+00    0.0000000000000000E+00
             0.0000000000000000E+00    0.0000000000000000E+00    0.0000000000000000E+00
             0.0000000000000000E+00    0.0000000000000000E+00    0.0000000000000000E+00
             0.0000000000000000E+00    0.0000000000000000E+00    0.0000000000000000E+00
             0.0000000000000000E+00    0.0000000000000000E+00    0.0000000000000000E+00
             0.0000000000000000E+00    0.0000000000000000E+00    0.0000000000000000E+00
             0.0000000000000000E+00    0.0000000000000000E+00    0.0000000000000000E+00
             0.0000000000000000E+00    0.0000000000000000E+00    0.0000000000000000E+00
             0.0000000000000000E+00    0.0000000000000000E+00    0.0000000000000000E+00
             0.0000000000000000E+00    0.0000000000000000E+00    0.0000000000000000E+00
             0.0000000000000000E+00    0.0000000000000000E+00    0.0000000000000000E+00
             0.0000000000000000E+00    0.0000000000000000E+00    0.0000000000000000E+00
             0.0000000000000000E+00    0.0000000000000000E+00    0.0000000000000000E+00
             0.0000000000000000E+00    0.0000000000000000E+00    0.0000000000000000E+00
             0.0000000000000000E+00    0.0000000000000000E+00    0.0000000000000000E+00
             0.0000000000000000E+00    0.0000000000000000E+00    0.0000000000000000E+00
             0.0000000000000000E+00    0.0000000000000000E+00    0.0000000000000000E+00
             0.0000000000000000E+00    0.0000000000000000E+00    0.0000000000000000E+00
             0.0000000000000000E+00    0.0000000000000000E+00    0.0000000000000000E+00
             0.0000000000000000E+00    0.0000000000000000E+00    0.0000000000000000E+00
             0.0000000000000000E+00    0.0000000000000000E+00    0.0000000000000000E+00
             0.0000000000000000E+00    0.0000000000000000E+00    0.0000000000000000E+00
             0.0000000000000000E+00    0.0000000000000000E+00    0.0000000000000000E+00
             0.0000000000000000E+00    0.0000000000000000E+00    0.0000000000000000E+00
             0.0000000000000000E+00    0.0000000000000000E+00    0.0000000000000000E+00
             0.0000000000000000E+00    0.0000000000000000E+00    0.0000000000000000E+00
             0.0000000000000000E+00    0.0000000000000000E+00    0.0000000000000000E+00
             0.0000000000000000E+00    0.0000000000000000E+00    0.0000000000000000E+00
             0.0000000000000000E+00    0.0000000000000000E+00    0.0000000000000000E+00
             0.0000000000000000E+00    0.0000000000000000E+00    0.0000000000000000E+00
             0.0000000000000000E+00    0.0000000000000000E+00    0.0000000000000000E+00
             0.0000000000000000E+00    0.0000000000000000E+00    0.0000000000000000E+00
             0.0000000000000000E+00    0.0000000000000000E+00    0.0000000000000000E+00
             0.0000000000000000E+00    0.0000000000000000E+00    0.0000000000000000E+00
             0.0000000000000000E+00    0.0000000000000000E+00    0.0000000000000000E+00
             0.0000000000000000E+00    0.0000000000000000E+00    0.0000000000000000E+00
             0.0000000000000000E+00    0.0000000000000000E+00    0.0000000000000000E+00
             0.0000000000000000E+00    0.0000000000000000E+00    0.0000000000000000E+00
             0.0000000000000000E+00    0.0000000000000000E+00    0.0000000000000000E+00
             0.0000000000000000E+00    0.0000000000000000E+00    0.0000000000000000E+00
             0.0000000000000000E+00    0.0000000000000000E+00    0.0000000000000000E+00