         0      -5729.782607899      -5729.737335714      -5729.772184595          2.465033410          2.263266197
         1      -5729.782607899      -5729.864073929      -5729.772184594          2.525770825          2.403557392
         2      -5729.782607898      -5729.884943538      -5729.772184594          2.596561494          2.478882428
         3      -5729.782607899      -5729.893645382      -5729.772184595          2.598584129          2.491202880
         4      -5729.782607899      -5729.900807798      -5729.772184595          2.640160911          2.539159857
         5      -5729.782607899      -5729.906504259      -5729.772184595          2.649540413          2.556925572
         6      -5729.782607898      -5729.911541249      -5729.772184595          2.687537629          2.600142756
         7      -5729.782607899      -5729.914442580      -5729.772184594          2.698617539          2.602209131
         8      -5729.782607898      -5729.945102287      -5729.772184595          3.546897337          3.151082339
         9      -5729.782607898      -5729.949479716      -5729.772184595          3.562384118          3.151812192
        10      -5729.782607899      -5729.951873821      -5729.772184595          3.569951123          3.149882137
        11      -5729.782607898      -5729.953514484      -5729.772184594          3.570140498          3.137227484
        12      -5729.782607899      -5729.954769069      -5729.772184595          3.577385104          3.140399590
        13      -5729.782607898      -5729.967971130      -5729.772184594          3.813319148          3.225080606
        14      -5729.782607899      -5729.972435678      -5729.772184595          3.875472776          3.308117528
        15      -5729.782607898      -5729.975284699      -5729.772184595          3.887941223          3.328993174
        16      -5729.782607899      -5729.976763319      -5729.772184595          3.914381907          3.366454023
        17      -5729.782607899      -5729.979828333      -5729.772184595          3.953237040          3.428072898
        18      -5729.782607899      -5729.981375220      -5729.772184595          3.996998389          3.511772294
        19      -5729.782607899      -5729.983115307      -5729.772184594          4.003692502          3.525805516
        20      -5729.782607898      -5729.984390381      -5729.772184595          4.073722839          3.664100499
        21      -5729.782607899      -5729.988072367      -5729.772184594          4.086660191          3.695904787
        22      -5729.782607898      -5729.988831621      -5729.772184595          4.097515630          3.721103413
        23      -5729.782607899      -5729.989507628      -5729.772184595          4.108878959          3.747297291
        24      -5729.782607898      -5729.990478130      -5729.772184595          4.123524142          3.781726173
        25      -5729.782607899      -5729.991611380      -5729.772184595          4.143678382          3.827734398
        26      -5729.782607899      -5729.996303440      -5729.772184594          4.782574283          4.928725418
        27      -5729.782607899      -5730.006774966      -5729.772184595          4.785485391          4.936362040
        28      -5729.782607899      -5730.009648006      -5729.772184595          4.800443903          4.958272512
        29      -5729.782607899      -5730.010229513      -5729.772184595          4.817800222          4.986560384
        30      -5729.782607899      -5730.014874310      -5729.772184595          5.175101380          5.532783859
        31      -5729.782607899      -5730.019696915      -5729.772184595          5.178818934          5.535892932
        32      -5729.782607898      -5730.020663964      -5729.772184595          5.189956422          5.543061094
        33      -5729.782607899      -5730.021845296      -5729.772184595          5.241035308          5.576043420
        34      -5729.782607898      -5730.023241681      -5729.772184594          5.253244614          5.581921436
        35      -5729.782607899      -5730.023828373      -5729.772184595          5.279541013          5.594521162
        36      -5729.782607898      -5730.024685991      -5729.772184595          5.289735194          5.599036299
        37      -5729.782607898      -5730.016767660      -5729.772184595          5.788170677          5.855841334
        38      -5729.782607898      -5730.034336865      -5729.772184595          5.813681762          5.861673736
        39      -5729.782607899      -5730.034478053      -5729.772184595          5.833363110          5.860848704
        40      -5729.782607899      -5730.034490026      -5729.772184595          5.855791681          5.865880275
        41      -5729.782607898      -5730.034605112      -5729.772184595          5.870439717          5.867913604
        42      -5729.782607899      -5730.032489218      -5729.772184595          5.964388432          5.887821022
        43      -5729.782607898      -5730.033730954      -5729.772184595          5.973947723          5.889379892
        44      -5729.782607899      -5730.033894587      -5729.772184594          5.991659766          5.896340775
        45      -5729.782607898      -5730.033705297      -5729.772184594          6.011602611          5.901888418
        46      -5729.782607899      -5730.033847175      -5729.772184595          6.028598562          5.909059814
        47      -5729.782607899      -5730.033717081      -5729.772184594          6.048174211          5.915288228
        48      -5729.782607898      -5730.033958824      -5729.772184595          6.058107905          5.919884018
        49      -5729.782607898      -5730.014014247      -5729.772184595          7.508653558          6.729117696
        50      -5729.782607898      -5730.034199327      -5729.772184595          7.525533692          6.707776356
        51      -5729.782607898      -5730.051308969      -5729.772184595          7.544976655          6.699003594
        52      -5729.782607899      -5730.057780184      -5729.772184595          7.589219791          6.696851103
        53      -5729.782607898      -5730.063359984      -5729.772184595          7.599840375          6.699724075
        54      -5729.782607899      -5730.054681375      -5729.772184595          7.839128056          6.793427776
        55      -5729.782607899      -5730.069494784      -5729.772184595          7.866857971          6.801298680
        56      -5729.782607899      -5730.055248900      -5729.772184595          8.008982560          6.853017099
        57      -5729.782607899      -5730.049577592      -5729.772184595          8.087527897          6.881455294
        58      -5729.782607898      -5730.049381752      -5729.772184595          8.126066792          6.894737815
        59      -5729.782607899      -5729.920813997      -5729.772184594          8.827344865          7.232880980
        60      -5729.782607899      -5729.952176982      -5729.772184595          8.886368885          7.261889679
        61      -5729.782607898      -5729.950445739      -5729.772184595          8.987754515          7.309276374
        62      -5729.782607899      -5729.910208956      -5729.772184595          9.259662488          7.458189937
        63      -5729.782607898      -5729.919342933      -5729.772184595          9.295445281          7.475199877
        64      -5729.782607899      -5729.897473617      -5729.772184595          9.483182001          7.581770250
        65      -5729.782607898      -5729.899869381      -5729.772184594          9.525489122          7.605602291
        66      -5729.782607899      -5729.888248812      -5729.772184595          9.642864190          7.673308942
        67      -5729.782607898      -5729.888520435      -5729.772184594          9.682011782          7.696471523
        68      -5729.782607899      -5729.885673346      -5729.772184595          9.709644719          7.711255115
        69      -5729.782607899      -5729.884961307      -5729.772184594          9.739232944          7.728405107
        70      -5729.782607898      -5729.829245470      -5729.772184594         10.810559771          8.461713509
        71      -5729.782607899      -5729.840109453      -5729.772184595         10.814572008          8.460059532
        72      -5729.782607899      -5729.840117215      -5729.772184595         10.836891202          8.473137045
        73      -5729.782607899      -5729.839447904      -5729.772184594         10.862415558          8.488674500
        74      -5729.782607898      -5729.838946225      -5729.772184595         10.884996288          8.502537931
        75      -5729.782607898      -5729.838980894      -5729.772184595         10.895038552          8.508711471
        76      -5729.782607899      -5729.824234791      -5729.772184594         11.249047474          8.744746978
        77      -5729.782607898      -5729.829274599      -5729.772184595         11.254031564          8.746037947
        78      -5729.782607899      -5729.826909887      -5729.772184594         11.303372384          8.775683125
        79      -5729.782607899      -5729.827458727      -5729.772184595         11.313154440          8.780985262
        80      -5729.782607898      -5729.827141045      -5729.772184595         11.323255579          8.786656876
        81      -5729.782607898      -5729.821319753      -5729.772184595         11.427910545          8.847825159
        82      -5729.782607898      -5729.823156524      -5729.772184595         11.432352547          8.848765928
        83      -5729.782607899      -5729.818113048      -5729.772184595         11.500224402          8.880452047
        84      -5729.782607899      -5729.819641627      -5729.772184595         11.502500455          8.879091557
        85      -5729.782607899      -5729.816429370      -5729.772184595         11.530543967          8.883930734
        86      -5729.782607898      -5729.817174521      -5729.772184595         11.531430126          8.881126307
        87      -5729.782607898      -5729.816922698      -5729.772184595         11.528481175          8.875446082
        88      -5729.782607898      -5729.816762851      -5729.772184595         11.525052585          8.870361898
        89      -5729.782607898      -5729.812951417      -5729.772184594         11.538321597          8.856918699
        90      -5729.782607899      -5729.813949227      -5729.772184594         11.535124146          8.850634126
        91      -5729.782607899      -5729.807608065      -5729.772184595         11.516612555          8.788033777
        92      -5729.782607898      -5729.809145360      -5729.772184595         11.503187235          8.771783629
        93      -5729.782607899      -5729.807606269      -5729.772184595         11.473593870          8.732482166
        94      -5729.782607899      -5729.807740510      -5729.772184595         11.459352267          8.715037388
        95      -5729.782607899      -5729.806394302      -5729.772184595         11.431293009          8.675139377
        96      -5729.782607899      -5729.806221137      -5729.772184595         11.416498071          8.657765471
        97      -5729.782607899      -5729.801608764      -5729.772184595         11.247261345          8.459569628
        98      -5729.782607898      -5729.802656049      -5729.772184595         11.227895729          8.439477322
        99      -5729.782607899      -5729.801126381      -5729.772184595         11.143820242          8.349775473
       100      -5729.782607899      -5729.801877183      -5729.772184595         11.122581688          8.327877127
       101      -5729.782607899      -5729.800648118      -5729.772184595         11.044528098          8.245775055
       102      -5729.782607899      -5729.801387377      -5729.772184595         11.026501734          8.227308658
       103      -5729.782607899      -5729.763322960      -5729.772184595          9.282257083          6.400869379
       104      -5729.782607899      -5729.775995711      -5729.772184595          9.282079028          6.408185757
       105      -5729.782607898      -5729.794450786      -5729.772184595          9.282101865          6.415250825
       106      -5729.782607898      -5729.795590223      -5729.772184594          9.219474550          6.357190617
       107      -5729.782607899      -5729.796217936      -5729.772184595          9.199569352          6.337642561
       108      -5729.782607899      -5729.771374552      -5729.772184595          7.264363118          4.434347372
       109      -5729.782607899      -5729.783626819      -5729.772184595          7.269325956          4.457648811
       110      -5729.782607899      -5729.812628655      -5729.772184595          7.253159416          4.459145064
       111      -5729.782607899      -5729.813227146      -5729.772184595          7.297739059          4.498656788
       112      -5729.782607898      -5729.797993298      -5729.772184595          7.990777009          5.131239549
       113      -5729.782607898      -5729.800509049      -5729.772184595          7.952677167          5.084870362
       114      -5729.782607898      -5729.798630560      -5729.772184595          7.940769875          5.057337151
       115      -5729.782607898      -5729.796041107      -5729.772184594          7.909412686          5.011234676
       116      -5729.782607898      -5729.795526267      -5729.772184595          7.863307924          4.957329627
       117      -5729.782607899      -5729.793199675      -5729.772184595          7.769282624          4.851486356
       118      -5729.782607898      -5729.793936321      -5729.772184595          7.726137440          4.808114023
       119      -5729.782607899      -5729.702227797      -5729.772184595          5.938984588          2.910224937
       120      -5729.782607898      -5729.693399569      -5729.772184595          6.020849496          3.032201068
       121      -5729.782607898      -5729.773487792      -5729.772184595          6.111102847          3.121398605
       122      -5729.782607899      -5729.796674393      -5729.772184595          6.117134837          3.148892418
       123      -5729.782607899      -5729.794709544      -5729.772184595          6.149071240          3.165277675
       124      -5729.782607899      -5729.757578013      -5729.772184595          6.254833796          3.158393225
       125      -5729.782607899      -5729.739960273      -5729.772184594          6.533804211          3.409777142
       126      -5729.782607899      -5729.749857425      -5729.772184595          6.650611668          3.539250806
       127      -5729.782607898      -5729.753147021      -5729.772184595          6.718631291          3.612697871
       128      -5729.782607898      -5729.719816757      -5729.772184595          7.584884279          4.457088327
       129      -5729.782607899      -5729.739329719      -5729.772184595          7.633557578          4.511067060
       130      -5729.782607898      -5729.741669481      -5729.772184595          7.686856566          4.567715795
       131      -5729.782607899      -5729.735131527      -5729.772184595          8.593362418          5.510879123
       132      -5729.782607899      -5729.747965804      -5729.772184595          8.615838535          5.533224679
       133      -5729.782607899      -5729.744714282      -5729.772184594          8.713117590          5.618040773
       134      -5729.782607898      -5729.745042310      -5729.772184595          8.768951410          5.670144882
       135      -5729.782607899      -5729.737443205      -5729.772184595          9.051649778          5.941224622
       136      -5729.782607898      -5729.741155197      -5729.772184594          9.112397439          6.003389230
       137      -5729.782607898      -5729.741719725      -5729.772184595          9.156081610          6.046934961
       138      -5729.782607898      -5729.728292965      -5729.772184595         10.052348438          6.933037161
       139      -5729.782607898      -5729.738498976      -5729.772184595         10.077585943          6.959594495
       140      -5729.782607898      -5729.738840395      -5729.772184595         10.136285387          7.018000841
       141      -5729.782607898      -5729.739328078      -5729.772184595         10.328972961          7.209404749
       142      -5729.782607899      -5729.739379956      -5729.772184595         10.433891797          7.313221202
       143      -5729.782607899      -5729.700942224      -5729.772184595         12.357191525          9.209706491
       144      -5729.782607899      -5729.736004373      -5729.772184594         12.365302210          9.219340301
       145      -5729.782607899      -5729.740719065      -5729.772184595         12.397962326          9.251139637
       146      -5729.782607899      -5729.736209667      -5729.772184595         12.451241449          9.295695074
       147      -5729.782607899      -5729.736904768      -5729.772184595         12.495848268          9.339001682
       148      -5729.782607898      -5729.735405520      -5729.772184595         12.568160176          9.408522901
       149      -5729.782607899      -5729.736380220      -5729.772184595         12.594882234          9.434619901
       150      -5729.782607899      -5729.726896002      -5729.772184595         13.127661181          9.950690918
       151      -5729.782607899      -5729.731468759      -5729.772184595         13.151511419          9.975130697
       152      -5729.782607899      -5729.730270479      -5729.772184595         13.389435519         10.212671725
       153      -5729.782607898      -5729.733217328      -5729.772184594         13.414788611         10.238093923
       154      -5729.782607899      -5729.733043790      -5729.772184595         13.457106229         10.279612342
       155      -5729.782607899      -5729.729345573      -5729.772184595         13.699169064         10.516882252
       156      -5729.782607898      -5729.731720485      -5729.772184594         13.729611931         10.547408123
       157      -5729.782607898      -5729.729530612      -5729.772184595         13.875877859         10.691544590
       158      -5729.782607899      -5729.731466920      -5729.772184595         13.905143867         10.720760722
       159      -5729.782607898      -5729.727391051      -5729.772184595         14.184409375         10.995571923
       160      -5729.782607898      -5729.730256005      -5729.772184594         14.213602652         11.024928973
       161      -5729.782607899      -5729.727580873      -5729.772184595         14.389937444         11.198966181
       162      -5729.782607899      -5729.729786505      -5729.772184595         14.422095124         11.231164290
       163      -5729.782607899      -5729.729660114      -5729.772184595         14.489512397         11.297810072
       164      -5729.782607899      -5729.726104453      -5729.772184595         14.715485947         11.520619199
       165      -5729.782607898      -5729.728592634      -5729.772184595         14.748319542         11.553583317
       166      -5729.782607899      -5729.726750856      -5729.772184595         14.872848289         11.676678393
       167      -5729.782607898      -5729.728217105      -5729.772184595         14.910444627         11.714200599
       168      -5729.782607898      -5729.726546378      -5729.772184595         15.021405063         11.823829105
       169      -5729.782607899      -5729.727748417      -5729.772184595         15.061485486         11.863780054
       170      -5729.782607898      -5729.727712671      -5729.772184595         15.091867823         11.893883517
       171      -5729.782607899      -5729.727696102      -5729.772184595         15.132127884         11.933648846
       172      -5729.782607898      -5729.673103813      -5729.772184595         17.042611164         13.825685311
       173      -5729.782607899      -5729.713224435      -5729.772184594         17.056908258         13.841198091
       174      -5729.782607898      -5729.719256013      -5729.772184595         17.112422251         13.897741360
       175      -5729.782607899      -5729.716939537      -5729.772184594         17.336972736         14.122608986
       176      -5729.782607899      -5729.721680776      -5729.772184595         17.386741718         14.172698729
       177      -5729.782607899      -5729.721026731      -5729.772184595         17.423495416         14.208855100
       178      -5729.782607899      -5729.713528581      -5729.772184594         17.705367207         14.487829142
       179      -5729.782607899      -5729.719092558      -5729.772184595         17.760228035         14.543357200
       180      -5729.782607898      -5729.719197192      -5729.772184594         17.822294530         14.605245279
       181      -5729.782607898      -5729.711575708      -5729.772184595         18.153312610         14.934020821
       182      -5729.782607899      -5729.718382544      -5729.772184594         18.205360095         14.986743767
       183      -5729.782607899      -5729.711935693      -5729.772184595         18.458237361         15.237559854
       184      -5729.782607898      -5729.716885370      -5729.772184595         18.500787687         15.280507737
       185      -5729.782607898      -5729.706957015      -5729.772184595         19.148228012         15.924604435
       186      -5729.782607899      -5729.714398811      -5729.772184595         19.182358308         15.959260248
       187      -5729.782607899      -5729.711122613      -5729.772184595         19.394256641         16.170445239
       188      -5729.782607898      -5729.714523260      -5729.772184595         19.444714391         16.221117817
       189      -5729.782607899      -5729.714479989      -5729.772184595         19.563529157         16.339554917
       190      -5729.782607899      -5729.713936996      -5729.772184595         19.611923733         16.387551219
       191      -5729.782607899      -5729.729237857      -5729.772184594         15.140729100         11.972166031
       192      -5729.782607899      -5729.740918791      -5729.772184595         15.140083761         11.971894908
       193      -5729.782607898      -5729.743268596      -5729.772184595         15.131738704         11.963454271
       194      -5729.782607899      -5729.744490975      -5729.772184595         15.114046045         11.945848919
       195      -5729.782607898      -5729.745466469      -5729.772184595         15.096193105         11.928209407
       196      -5729.782607899      -5729.745981865      -5729.772184595         15.085441108         11.917635584
       197      -5729.782607898      -5729.749282411      -5729.772184595         14.836317056         11.674443000
       198      -5729.782607899      -5729.750041389      -5729.772184594         14.745716193         11.587132328
       199      -5729.782607899      -5729.751508326      -5729.772184595         14.725128977         11.567346109
       200      -5729.782607899      -5729.751916921      -5729.772184595         14.660626975         11.505823655
       201      -5729.782607898      -5729.753942174      -5729.772184595         14.575574105         11.424816673
       202      -5729.782607899      -5729.754590918      -5729.772184595         14.417800281         11.276400097
       203      -5729.782607899      -5729.757265278      -5729.772184595         14.400163308         11.259850610
       204      -5729.782607898      -5729.757699562      -5729.772184595         14.382129418         11.243130342
       205      -5729.782607899      -5729.758879530      -5729.772184595         14.207975602         11.083036795
       206      -5729.782607899      -5729.762146874      -5729.772184595         14.193487834         11.069809261
       207      -5729.782607899      -5729.763478308      -5729.772184594         14.072006107         10.961379809
       208      -5729.782607899      -5729.766158825      -5729.772184595         14.055185267         10.946490127
       209      -5729.782607898      -5729.767547900      -5729.772184594         13.962091928         10.865981871
       210      -5729.782607898      -5729.769504320      -5729.772184595         13.953348013         10.858513778
       211      -5729.782607898      -5729.770163649      -5729.772184595         13.928261575         10.837381801
       212      -5729.782607898      -5729.771414812      -5729.772184594         13.901610117         10.815051153
       213      -5729.782607899      -5729.772233814      -5729.772184595         13.873601964         10.791927532
       214      -5729.782607898      -5729.772908560      -5729.772184595         13.867155463         10.786639660
       215      -5729.782607898      -5729.774191408      -5729.772184595         13.802893896         10.734301200
       216      -5729.782607899      -5729.775769922      -5729.772184595         13.793556963         10.726689839
       217      -5729.782607898      -5729.776229941      -5729.772184595         13.778481296         10.714313451
       218      -5729.782607899      -5729.776700067      -5729.772184594         13.768634294         10.706236898
       219      -5729.782607899      -5729.776990846      -5729.772184595         13.763086157         10.701674335
       220      -5729.782607898      -5729.785828143      -5729.772184595         13.305904076         10.351340999
       221      -5729.782607898      -5729.793353196      -5729.772184595         13.301393720         10.347775036
       222      -5729.782607898      -5729.793683112      -5729.772184595         13.287049921         10.334593142
       223      -5729.782607899      -5729.793701623      -5729.772184595         13.253814592         10.303958272
       224      -5729.782607899      -5729.794002317      -5729.772184595         13.244219497         10.295107271
       225      -5729.782607898      -5729.792970730      -5729.772184595         12.773481892          9.862884453
       226      -5729.782607898      -5729.796537190      -5729.772184595         12.764490579          9.854741660
       227      -5729.782607899      -5729.795869738      -5729.772184595         12.671577370          9.766319442
       228      -5729.782607899      -5729.796553461      -5729.772184595         12.655627719          9.751256352
       229      -5729.782607899      -5729.796575117      -5729.772184595         12.644917443          9.741038211
       230      -5729.782607899      -5729.794642785      -5729.772184595         12.417209393          9.524209610
       231      -5729.782607899      -5729.796542277      -5729.772184595         12.403113006          9.511116561
       232      -5729.782607898      -5729.796177522      -5729.772184595         12.344242090          9.454924044
       233      -5729.782607899      -5729.796518886      -5729.772184595         12.326698084          9.438255550
       234      -5729.782607899      -5729.796245066      -5729.772184595         12.278765321          9.392490275
       235      -5729.782607898      -5729.796500362      -5729.772184594         12.261311188          9.375885004
       236      -5729.782607898      -5729.796517312      -5729.772184595         12.186228461          9.304328819
       237      -5729.782607899      -5729.796530682      -5729.772184595         12.169168343          9.288020817
       238      -5729.782607898      -5729.789401843      -5729.772184595         10.742991066          7.938462826
       239      -5729.782607898      -5729.799621790      -5729.772184595         10.733216301          7.931342531
       240      -5729.782607899      -5729.799534661      -5729.772184595         10.697187164          7.894338582
       241      -5729.782607899      -5729.799299896      -5729.772184594         10.659500704          7.855644197
       242      -5729.782607899      -5729.799235754      -5729.772184595         10.625336861          7.820717253
       243      -5729.782607899      -5729.799352029      -5729.772184594         10.609465389          7.804487503
       244      -5729.782607899      -5729.784087673      -5729.772184595          8.757896254          5.900297476
       245      -5729.782607898      -5729.796596973      -5729.772184594          8.746355383          5.897416862
       246      -5729.782607899      -5729.794172201      -5729.772184595          8.573756596          5.714032750
       247      -5729.782607899      -5729.796397850      -5729.772184595          8.524856619          5.666341064
       248      -5729.782607898      -5729.796509907      -5729.772184594          8.481572460          5.620476696
       249      -5729.782607899      -5729.787856703      -5729.772184595          8.111988023          5.216265768
       250      -5729.782607898      -5729.794481915      -5729.772184595          8.086185010          5.197776104
       251      -5729.782607899      -5729.786823945      -5729.772184595          7.608531156          4.700763312
       252      -5729.782607899      -5729.795747626      -5729.772184595          7.586857502          4.687119397
       253      -5729.782607899      -5729.786561634      -5729.772184595          7.423770746          4.481957692
       254      -5729.782607899      -5729.791556855      -5729.772184594          7.378365912          4.451209923
       255      -5729.782607899      -5729.790029220      -5729.772184595          7.320467448          4.383158436
       256      -5729.782607899      -5729.791972495      -5729.772184595          7.269051888          4.337144924
       257      -5729.782607899      -5729.794052167      -5729.772184594          5.416307036          2.500895795