 # Version information for this restart file 
 # current date 2024-01-12 20:56:20.995
 # current working dir /gpfs/home/cahart/transport/melamine/au_from-h2/ci-neb/ts2-fixed/dft_leads-sz_tip-dzvp_surf-dzvp_kpoints-2-4-20_replicas-3
 # Program compiled at                              Thu 21 Sep 19:20:17 BST 2023
 # Program compiled on                                           hx1-c12-login-1
 # Program compiled for                                                    local
 # Source code revision number                                       git:5518aa6
 &GLOBAL
   EXTENDED_FFT_LENGTHS  T
   PRINT_LEVEL  MEDIUM
   PROJECT_NAME 2_dft_wfn-r-0
   OUTPUT_FILE_NAME 2_dft_wfn-r-0.out
   RUN_TYPE  BAND
 &END GLOBAL
 &MOTION
   &BAND
     NPROC_REP  64
     BAND_TYPE  CI-NEB
     NUMBER_OF_REPLICA  3
     K_SPRING     5.0000000000000003E-02
     &CI_NEB
       NSTEPS_IT  5
     &END CI_NEB
     &OPTIMIZE_BAND
       OPT_TYPE  DIIS
       &DIIS
         MAX_STEPS  1000
       &END DIIS
     &END OPTIMIZE_BAND
     &REPLICA
       &COORD
             0.0000000000000000E+00    0.0000000000000000E+00    0.0000000000000000E+00
             0.0000000000000000E+00    2.9550000000000001E+00    0.0000000000000000E+00
             0.0000000000000000E+00    5.9110000000000014E+00    0.0000000000000000E+00
             2.9560000000000022E+00    0.0000000000000000E+00    0.0000000000000000E+00
             2.9560000000000022E+00    2.9550000000000001E+00    0.0000000000000000E+00
             2.9560000000000022E+00    5.9110000000000014E+00    0.0000000000000000E+00
             5.9120000000000044E+00    0.0000000000000000E+00    0.0000000000000000E+00
             5.9120000000000044E+00    2.9550000000000001E+00    0.0000000000000000E+00
             5.9120000000000044E+00    5.9110000000000014E+00    0.0000000000000000E+00
             8.6700000000000035E+00    0.0000000000000000E+00    0.0000000000000000E+00
             8.6700000000000035E+00    2.9550000000000001E+00    0.0000000000000000E+00
             8.6700000000000035E+00    5.9110000000000014E+00    0.0000000000000000E+00
             1.1626000000000007E+01    0.0000000000000000E+00    0.0000000000000000E+00
             1.1626000000000007E+01    2.9550000000000001E+00    0.0000000000000000E+00
             1.1626000000000007E+01    5.9110000000000014E+00    0.0000000000000000E+00
             1.4780000000000011E+00    1.4780000000000011E+00    2.0900000000000016E+00
             1.4780000000000011E+00    4.4330000000000016E+00    2.0900000000000016E+00
             1.4780000000000011E+00    7.3890000000000091E+00    2.0900000000000016E+00
             4.4340000000000055E+00    1.4780000000000011E+00    2.0900000000000016E+00
             4.4340000000000055E+00    4.4330000000000016E+00    2.0900000000000016E+00
             4.4340000000000055E+00    7.3890000000000091E+00    2.0900000000000016E+00
             7.1920000000000011E+00    1.4780000000000011E+00    2.0900000000000016E+00
             7.1920000000000011E+00    4.4330000000000016E+00    2.0900000000000016E+00
             7.1920000000000011E+00    7.3890000000000091E+00    2.0900000000000016E+00
             1.0148000000000000E+01    1.4780000000000011E+00    2.0900000000000016E+00
             1.0148000000000000E+01    4.4330000000000016E+00    2.0900000000000016E+00
             1.0148000000000000E+01    7.3890000000000091E+00    2.0900000000000016E+00
             1.3104000000000008E+01    1.4780000000000011E+00    2.0900000000000016E+00
             1.3104000000000008E+01    4.4330000000000016E+00    2.0900000000000016E+00
             1.3104000000000008E+01    7.3890000000000091E+00    2.0900000000000016E+00
             0.0000000000000000E+00    0.0000000000000000E+00    4.1800000000000033E+00
             0.0000000000000000E+00    2.9550000000000001E+00    4.1800000000000033E+00
             0.0000000000000000E+00    5.9110000000000014E+00    4.1800000000000033E+00
             2.9560000000000022E+00    0.0000000000000000E+00    4.1800000000000033E+00
             2.9560000000000022E+00    2.9550000000000001E+00    4.1800000000000033E+00
             2.9560000000000022E+00    5.9110000000000014E+00    4.1800000000000033E+00
             5.9120000000000044E+00    0.0000000000000000E+00    4.1800000000000033E+00
             5.9120000000000044E+00    2.9550000000000001E+00    4.1800000000000033E+00
             5.9120000000000044E+00    5.9110000000000014E+00    4.1800000000000033E+00
             8.6700000000000035E+00    0.0000000000000000E+00    4.1800000000000033E+00
             8.6700000000000035E+00    2.9550000000000001E+00    4.1800000000000033E+00
             8.6700000000000035E+00    5.9110000000000014E+00    4.1800000000000033E+00
             1.1626000000000007E+01    0.0000000000000000E+00    4.1800000000000033E+00
             1.1626000000000007E+01    2.9550000000000001E+00    4.1800000000000033E+00
             1.1626000000000007E+01    5.9110000000000014E+00    4.1800000000000033E+00
             1.4780000000000011E+00    1.4780000000000011E+00    6.2700000000000040E+00
             1.4780000000000011E+00    4.4330000000000016E+00    6.2700000000000040E+00
             1.4780000000000011E+00    7.3890000000000091E+00    6.2700000000000040E+00
             4.4340000000000055E+00    1.4780000000000011E+00    6.2700000000000040E+00
             4.4340000000000055E+00    4.4330000000000016E+00    6.2700000000000040E+00
             4.4340000000000055E+00    7.3890000000000091E+00    6.2700000000000040E+00
             7.1920000000000011E+00    1.4780000000000011E+00    6.2700000000000040E+00
             7.1920000000000011E+00    4.4330000000000016E+00    6.2700000000000040E+00
             7.1920000000000011E+00    7.3890000000000091E+00    6.2700000000000040E+00
             1.0148000000000000E+01    1.4780000000000011E+00    6.2700000000000040E+00
             1.0148000000000000E+01    4.4330000000000016E+00    6.2700000000000040E+00
             1.0148000000000000E+01    7.3890000000000091E+00    6.2700000000000040E+00
             1.3104000000000008E+01    1.4780000000000011E+00    6.2700000000000040E+00
             1.3104000000000008E+01    4.4330000000000016E+00    6.2700000000000040E+00
             1.3104000000000008E+01    7.3890000000000091E+00    6.2700000000000040E+00
             0.0000000000000000E+00    0.0000000000000000E+00    8.3600000000000065E+00
             0.0000000000000000E+00    2.9550000000000001E+00    8.3600000000000065E+00
             0.0000000000000000E+00    5.9110000000000014E+00    8.3600000000000065E+00
             2.9560000000000022E+00    0.0000000000000000E+00    8.3600000000000065E+00
             2.9560000000000022E+00    2.9550000000000001E+00    8.3600000000000065E+00
             2.9560000000000022E+00    5.9110000000000014E+00    8.3600000000000065E+00
             5.9120000000000044E+00    0.0000000000000000E+00    8.3600000000000065E+00
             5.9120000000000044E+00    2.9550000000000001E+00    8.3600000000000065E+00
             5.9120000000000044E+00    5.9110000000000014E+00    8.3600000000000065E+00
             8.6700000000000035E+00    0.0000000000000000E+00    8.3600000000000065E+00
             8.6700000000000035E+00    2.9550000000000001E+00    8.3600000000000065E+00
             8.6700000000000035E+00    5.9110000000000014E+00    8.3600000000000065E+00
             1.1626000000000007E+01    0.0000000000000000E+00    8.3600000000000065E+00
             1.1626000000000007E+01    2.9550000000000001E+00    8.3600000000000065E+00
             1.1626000000000007E+01    5.9110000000000014E+00    8.3600000000000065E+00
             1.4780000000000011E+00    1.4780000000000011E+00    1.0449999999999992E+01
             1.4780000000000011E+00    4.4330000000000016E+00    1.0449999999999992E+01
             1.4780000000000011E+00    7.3890000000000091E+00    1.0449999999999992E+01
             4.4340000000000055E+00    1.4780000000000011E+00    1.0449999999999992E+01
             4.4340000000000055E+00    4.4330000000000016E+00    1.0449999999999992E+01
             4.4340000000000055E+00    7.3890000000000091E+00    1.0449999999999992E+01
             7.1920000000000011E+00    1.4780000000000011E+00    1.0449999999999992E+01
             7.1920000000000011E+00    4.4330000000000016E+00    1.0449999999999992E+01
             7.1920000000000011E+00    7.3890000000000091E+00    1.0449999999999992E+01
             1.0148000000000000E+01    1.4780000000000011E+00    1.0449999999999992E+01
             1.0148000000000000E+01    4.4330000000000016E+00    1.0449999999999992E+01
             1.0148000000000000E+01    7.3890000000000091E+00    1.0449999999999992E+01
             1.3104000000000008E+01    1.4780000000000011E+00    1.0449999999999992E+01
             1.3104000000000008E+01    4.4330000000000016E+00    1.0449999999999992E+01
             1.3104000000000008E+01    7.3890000000000091E+00    1.0449999999999992E+01
             4.8554000000000039E+00    5.9119000000000019E+00    1.2031800000000006E+01
             9.5280000000000129E+00    5.9136999999999995E+00    1.2034000000000013E+01
             7.1920000000000011E+00    5.9340000000000028E+00    1.2040000000000003E+01
             4.0673339928000010E+00    5.9059993220000049E+00    1.2687741368899999E+01
             1.0318905404800006E+01    5.9087793825999988E+00    1.2685747073200011E+01
             5.9989554222000026E+00    5.9152564166000010E+00    1.2792642411200001E+01
             8.3738707293000090E+00    5.9179777707000012E+00    1.2731457252200006E+01
             8.3227525762000063E+00    5.9051536094999992E+00    1.4080497642100013E+01
             5.9344285048999996E+00    5.8981604865000001E+00    1.4101749969600013E+01
             7.1039653577000061E+00    5.8899410689000025E+00    1.4828703219099999E+01
             7.2416021047000037E+00    5.8657702091999999E+00    1.6106466757300005E+01
             6.3118250323000007E+00    5.8547577071000028E+00    1.6539601306200012E+01
             9.1743570613000003E+00    5.8876302391999999E+00    1.4641017735300005E+01
             7.3120000000000029E+00    5.9340000000000028E+00    2.1043000000000006E+01
             5.8130000000000033E+00    7.4339999999999993E+00    2.2992000000000015E+01
             8.8129999999999988E+00    4.4340000000000055E+00    2.2992000000000015E+01
             5.8130000000000033E+00    4.4330000000000016E+00    2.2992000000000015E+01
             8.8129999999999988E+00    7.4339999999999993E+00    2.2992000000000015E+01
             1.4780000000000011E+00    1.4780000000000011E+00    2.5082000000000015E+01
             1.4780000000000011E+00    4.4330000000000016E+00    2.5082000000000015E+01
             1.4780000000000011E+00    7.3890000000000091E+00    2.5082000000000015E+01
             4.4340000000000055E+00    1.4780000000000011E+00    2.5082000000000015E+01
             4.4340000000000055E+00    4.4330000000000016E+00    2.5082000000000015E+01
             4.4340000000000055E+00    7.3890000000000091E+00    2.5082000000000015E+01
             7.1920000000000011E+00    1.4780000000000011E+00    2.5082000000000015E+01
             7.1920000000000011E+00    4.4330000000000016E+00    2.5082000000000015E+01
             7.1920000000000011E+00    7.3890000000000091E+00    2.5082000000000015E+01
             1.0148000000000000E+01    1.4780000000000011E+00    2.5082000000000015E+01
             1.0148000000000000E+01    4.4330000000000016E+00    2.5082000000000015E+01
             1.0148000000000000E+01    7.3890000000000091E+00    2.5082000000000015E+01
             1.3104000000000008E+01    1.4780000000000011E+00    2.5082000000000015E+01
             1.3104000000000008E+01    4.4330000000000016E+00    2.5082000000000015E+01
             1.3104000000000008E+01    7.3890000000000091E+00    2.5082000000000015E+01
             0.0000000000000000E+00    0.0000000000000000E+00    2.7172000000000018E+01
             0.0000000000000000E+00    2.9550000000000001E+00    2.7172000000000018E+01
             0.0000000000000000E+00    5.9110000000000014E+00    2.7172000000000018E+01
             2.9560000000000022E+00    0.0000000000000000E+00    2.7172000000000018E+01
             2.9560000000000022E+00    2.9550000000000001E+00    2.7172000000000018E+01
             2.9560000000000022E+00    5.9110000000000014E+00    2.7172000000000018E+01
             5.9120000000000044E+00    0.0000000000000000E+00    2.7172000000000018E+01
             5.9120000000000044E+00    2.9550000000000001E+00    2.7172000000000018E+01
             5.9120000000000044E+00    5.9110000000000014E+00    2.7172000000000018E+01
             8.6700000000000035E+00    0.0000000000000000E+00    2.7172000000000018E+01
             8.6700000000000035E+00    2.9550000000000001E+00    2.7172000000000018E+01
             8.6700000000000035E+00    5.9110000000000014E+00    2.7172000000000018E+01
             1.1626000000000007E+01    0.0000000000000000E+00    2.7172000000000018E+01
             1.1626000000000007E+01    2.9550000000000001E+00    2.7172000000000018E+01
             1.1626000000000007E+01    5.9110000000000014E+00    2.7172000000000018E+01
             1.4780000000000011E+00    1.4780000000000011E+00    2.9262000000000022E+01
             1.4780000000000011E+00    4.4330000000000016E+00    2.9262000000000022E+01
             1.4780000000000011E+00    7.3890000000000091E+00    2.9262000000000022E+01
             4.4340000000000055E+00    1.4780000000000011E+00    2.9262000000000022E+01
             4.4340000000000055E+00    4.4330000000000016E+00    2.9262000000000022E+01
             4.4340000000000055E+00    7.3890000000000091E+00    2.9262000000000022E+01
             7.1920000000000011E+00    1.4780000000000011E+00    2.9262000000000022E+01
             7.1920000000000011E+00    4.4330000000000016E+00    2.9262000000000022E+01
             7.1920000000000011E+00    7.3890000000000091E+00    2.9262000000000022E+01
             1.0148000000000000E+01    1.4780000000000011E+00    2.9262000000000022E+01
             1.0148000000000000E+01    4.4330000000000016E+00    2.9262000000000022E+01
             1.0148000000000000E+01    7.3890000000000091E+00    2.9262000000000022E+01
             1.3104000000000008E+01    1.4780000000000011E+00    2.9262000000000022E+01
             1.3104000000000008E+01    4.4330000000000016E+00    2.9262000000000022E+01
             1.3104000000000008E+01    7.3890000000000091E+00    2.9262000000000022E+01
             0.0000000000000000E+00    0.0000000000000000E+00    3.1352000000000004E+01
             0.0000000000000000E+00    2.9550000000000001E+00    3.1352000000000004E+01
             0.0000000000000000E+00    5.9110000000000014E+00    3.1352000000000004E+01
             2.9560000000000022E+00    0.0000000000000000E+00    3.1352000000000004E+01
             2.9560000000000022E+00    2.9550000000000001E+00    3.1352000000000004E+01
             2.9560000000000022E+00    5.9110000000000014E+00    3.1352000000000004E+01
             5.9120000000000044E+00    0.0000000000000000E+00    3.1352000000000004E+01
             5.9120000000000044E+00    2.9550000000000001E+00    3.1352000000000004E+01
             5.9120000000000044E+00    5.9110000000000014E+00    3.1352000000000004E+01
             8.6700000000000035E+00    0.0000000000000000E+00    3.1352000000000004E+01
             8.6700000000000035E+00    2.9550000000000001E+00    3.1352000000000004E+01
             8.6700000000000035E+00    5.9110000000000014E+00    3.1352000000000004E+01
             1.1626000000000007E+01    0.0000000000000000E+00    3.1352000000000004E+01
             1.1626000000000007E+01    2.9550000000000001E+00    3.1352000000000004E+01
             1.1626000000000007E+01    5.9110000000000014E+00    3.1352000000000004E+01
             1.4780000000000011E+00    1.4780000000000011E+00    3.3442000000000029E+01
             1.4780000000000011E+00    4.4330000000000016E+00    3.3442000000000029E+01
             1.4780000000000011E+00    7.3890000000000091E+00    3.3442000000000029E+01
             4.4340000000000055E+00    1.4780000000000011E+00    3.3442000000000029E+01
             4.4340000000000055E+00    4.4330000000000016E+00    3.3442000000000029E+01
             4.4340000000000055E+00    7.3890000000000091E+00    3.3442000000000029E+01
             7.1920000000000011E+00    1.4780000000000011E+00    3.3442000000000029E+01
             7.1920000000000011E+00    4.4330000000000016E+00    3.3442000000000029E+01
             7.1920000000000011E+00    7.3890000000000091E+00    3.3442000000000029E+01
             1.0148000000000000E+01    1.4780000000000011E+00    3.3442000000000029E+01
             1.0148000000000000E+01    4.4330000000000016E+00    3.3442000000000029E+01
             1.0148000000000000E+01    7.3890000000000091E+00    3.3442000000000029E+01
             1.3104000000000008E+01    1.4780000000000011E+00    3.3442000000000029E+01
             1.3104000000000008E+01    4.4330000000000016E+00    3.3442000000000029E+01
             1.3104000000000008E+01    7.3890000000000091E+00    3.3442000000000029E+01
       &END COORD
       &VELOCITY
             0.0000000000000000E+00    0.0000000000000000E+00    0.0000000000000000E+00
             0.0000000000000000E+00    0.0000000000000000E+00    0.0000000000000000E+00
             0.0000000000000000E+00    0.0000000000000000E+00    0.0000000000000000E+00
             0.0000000000000000E+00    0.0000000000000000E+00    0.0000000000000000E+00
             0.0000000000000000E+00    0.0000000000000000E+00    0.0000000000000000E+00
             0.0000000000000000E+00    0.0000000000000000E+00    0.0000000000000000E+00
             0.0000000000000000E+00    0.0000000000000000E+00    0.0000000000000000E+00
             0.0000000000000000E+00    0.0000000000000000E+00    0.0000000000000000E+00
             0.0000000000000000E+00    0.0000000000000000E+00    0.0000000000000000E+00
             0.0000000000000000E+00    0.0000000000000000E+00    0.0000000000000000E+00
             0.0000000000000000E+00    0.0000000000000000E+00    0.0000000000000000E+00
             0.0000000000000000E+00    0.0000000000000000E+00    0.0000000000000000E+00
             0.0000000000000000E+00    0.0000000000000000E+00    0.0000000000000000E+00
             0.0000000000000000E+00    0.0000000000000000E+00    0.0000000000000000E+00
             0.0000000000000000E+00    0.0000000000000000E+00    0.0000000000000000E+00
             0.0000000000000000E+00    0.0000000000000000E+00    0.0000000000000000E+00
             0.0000000000000000E+00    0.0000000000000000E+00    0.0000000000000000E+00
             0.0000000000000000E+00    0.0000000000000000E+00    0.0000000000000000E+00
             0.0000000000000000E+00    0.0000000000000000E+00    0.0000000000000000E+00
             0.0000000000000000E+00    0.0000000000000000E+00    0.0000000000000000E+00
             0.0000000000000000E+00    0.0000000000000000E+00    0.0000000000000000E+00
             0.0000000000000000E+00    0.0000000000000000E+00    0.0000000000000000E+00
             0.0000000000000000E+00    0.0000000000000000E+00    0.0000000000000000E+00
             0.0000000000000000E+00    0.0000000000000000E+00    0.0000000000000000E+00
             0.0000000000000000E+00    0.0000000000000000E+00    0.0000000000000000E+00
             0.0000000000000000E+00    0.0000000000000000E+00    0.0000000000000000E+00
             0.0000000000000000E+00    0.0000000000000000E+00    0.0000000000000000E+00
             0.0000000000000000E+00    0.0000000000000000E+00    0.0000000000000000E+00
             0.0000000000000000E+00    0.0000000000000000E+00    0.0000000000000000E+00
             0.0000000000000000E+00    0.0000000000000000E+00    0.0000000000000000E+00
             0.0000000000000000E+00    0.0000000000000000E+00    0.0000000000000000E+00
             0.0000000000000000E+00    0.0000000000000000E+00    0.0000000000000000E+00
             0.0000000000000000E+00    0.0000000000000000E+00    0.0000000000000000E+00
             0.0000000000000000E+00    0.0000000000000000E+00    0.0000000000000000E+00
             0.0000000000000000E+00    0.0000000000000000E+00    0.0000000000000000E+00
             0.0000000000000000E+00    0.0000000000000000E+00    0.0000000000000000E+00
             0.0000000000000000E+00    0.0000000000000000E+00    0.0000000000000000E+00
             0.0000000000000000E+00    0.0000000000000000E+00    0.0000000000000000E+00
             0.0000000000000000E+00    0.0000000000000000E+00    0.0000000000000000E+00
             0.0000000000000000E+00    0.0000000000000000E+00    0.0000000000000000E+00
             0.0000000000000000E+00    0.0000000000000000E+00    0.0000000000000000E+00
             0.0000000000000000E+00    0.0000000000000000E+00    0.0000000000000000E+00
             0.0000000000000000E+00    0.0000000000000000E+00    0.0000000000000000E+00
             0.0000000000000000E+00    0.0000000000000000E+00    0.0000000000000000E+00
             0.0000000000000000E+00    0.0000000000000000E+00    0.0000000000000000E+00
             0.0000000000000000E+00    0.0000000000000000E+00    0.0000000000000000E+00
             0.0000000000000000E+00    0.0000000000000000E+00    0.0000000000000000E+00
             0.0000000000000000E+00    0.0000000000000000E+00    0.0000000000000000E+00
             0.0000000000000000E+00    0.0000000000000000E+00    0.0000000000000000E+00
             0.0000000000000000E+00    0.0000000000000000E+00    0.0000000000000000E+00
             0.0000000000000000E+00    0.0000000000000000E+00    0.0000000000000000E+00
             0.0000000000000000E+00    0.0000000000000000E+00    0.0000000000000000E+00
             0.0000000000000000E+00    0.0000000000000000E+00    0.0000000000000000E+00
             0.0000000000000000E+00    0.0000000000000000E+00    0.0000000000000000E+00
             0.0000000000000000E+00    0.0000000000000000E+00    0.0000000000000000E+00
             0.0000000000000000E+00    0.0000000000000000E+00    0.0000000000000000E+00
             0.0000000000000000E+00    0.0000000000000000E+00    0.0000000000000000E+00
             0.0000000000000000E+00    0.0000000000000000E+00    0.0000000000000000E+00
             0.0000000000000000E+00    0.0000000000000000E+00    0.0000000000000000E+00
             0.0000000000000000E+00    0.0000000000000000E+00    0.0000000000000000E+00
             0.0000000000000000E+00    0.0000000000000000E+00    0.0000000000000000E+00
             0.0000000000000000E+00    0.0000000000000000E+00    0.0000000000000000E+00
             0.0000000000000000E+00    0.0000000000000000E+00    0.0000000000000000E+00
             0.0000000000000000E+00    0.0000000000000000E+00    0.0000000000000000E+00
             0.0000000000000000E+00    0.0000000000000000E+00    0.0000000000000000E+00
             0.0000000000000000E+00    0.0000000000000000E+00    0.0000000000000000E+00
             0.0000000000000000E+00    0.0000000000000000E+00    0.0000000000000000E+00
             0.0000000000000000E+00    0.0000000000000000E+00    0.0000000000000000E+00
             0.0000000000000000E+00    0.0000000000000000E+00    0.0000000000000000E+00
             0.0000000000000000E+00    0.0000000000000000E+00    0.0000000000000000E+00
             0.0000000000000000E+00    0.0000000000000000E+00    0.0000000000000000E+00
             0.0000000000000000E+00    0.0000000000000000E+00    0.0000000000000000E+00
             0.0000000000000000E+00    0.0000000000000000E+00    0.0000000000000000E+00
             0.0000000000000000E+00    0.0000000000000000E+00    0.0000000000000000E+00
             0.0000000000000000E+00    0.0000000000000000E+00    0.0000000000000000E+00
             0.0000000000000000E+00    0.0000000000000000E+00    0.0000000000000000E+00
             0.0000000000000000E+00    0.0000000000000000E+00    0.0000000000000000E+00
             0.0000000000000000E+00    0.0000000000000000E+00    0.0000000000000000E+00
             0.0000000000000000E+00    0.0000000000000000E+00    0.0000000000000000E+00
             0.0000000000000000E+00    0.0000000000000000E+00    0.0000000000000000E+00
             0.0000000000000000E+00    0.0000000000000000E+00    0.0000000000000000E+00
             0.0000000000000000E+00    0.0000000000000000E+00    0.0000000000000000E+00
             0.0000000000000000E+00    0.0000000000000000E+00    0.0000000000000000E+00
             0.0000000000000000E+00    0.0000000000000000E+00    0.0000000000000000E+00
             0.0000000000000000E+00    0.0000000000000000E+00    0.0000000000000000E+00
             0.0000000000000000E+00    0.0000000000000000E+00    0.0000000000000000E+00
             0.0000000000000000E+00    0.0000000000000000E+00    0.0000000000000000E+00
             0.0000000000000000E+00    0.0000000000000000E+00    0.0000000000000000E+00
             0.0000000000000000E+00    0.0000000000000000E+00    0.0000000000000000E+00
             0.0000000000000000E+00    0.0000000000000000E+00    0.0000000000000000E+00
             0.0000000000000000E+00    0.0000000000000000E+00    0.0000000000000000E+00
             0.0000000000000000E+00    0.0000000000000000E+00    0.0000000000000000E+00
             0.0000000000000000E+00    0.0000000000000000E+00    0.0000000000000000E+00
             0.0000000000000000E+00    0.0000000000000000E+00    0.0000000000000000E+00
             0.0000000000000000E+00    0.0000000000000000E+00    0.0000000000000000E+00
             0.0000000000000000E+00    0.0000000000000000E+00    0.0000000000000000E+00
             0.0000000000000000E+00    0.0000000000000000E+00    0.0000000000000000E+00
             0.0000000000000000E+00    0.0000000000000000E+00    0.0000000000000000E+00
             0.0000000000000000E+00    0.0000000000000000E+00    0.0000000000000000E+00
             0.0000000000000000E+00    0.0000000000000000E+00    0.0000000000000000E+00
             0.0000000000000000E+00    0.0000000000000000E+00    0.0000000000000000E+00
             0.0000000000000000E+00    0.0000000000000000E+00    0.0000000000000000E+00
             0.0000000000000000E+00    0.0000000000000000E+00    0.0000000000000000E+00
             0.0000000000000000E+00    0.0000000000000000E+00    0.0000000000000000E+00
             0.0000000000000000E+00    0.0000000000000000E+00    0.0000000000000000E+00
             0.0000000000000000E+00    0.0000000000000000E+00    0.0000000000000000E+00
             0.0000000000000000E+00    0.0000000000000000E+00    0.0000000000000000E+00
             0.0000000000000000E+00    0.0000000000000000E+00    0.0000000000000000E+00
             0.0000000000000000E+00    0.0000000000000000E+00    0.0000000000000000E+00
             0.0000000000000000E+00    0.0000000000000000E+00    0.0000000000000000E+00
             0.0000000000000000E+00    0.0000000000000000E+00    0.0000000000000000E+00
             0.0000000000000000E+00    0.0000000000000000E+00    0.0000000000000000E+00
             0.0000000000000000E+00    0.0000000000000000E+00    0.0000000000000000E+00
             0.0000000000000000E+00    0.0000000000000000E+00    0.0000000000000000E+00
             0.0000000000000000E+00    0.0000000000000000E+00    0.0000000000000000E+00
             0.0000000000000000E+00    0.0000000000000000E+00    0.0000000000000000E+00
             0.0000000000000000E+00    0.0000000000000000E+00    0.0000000000000000E+00
             0.0000000000000000E+00    0.0000000000000000E+00    0.0000000000000000E+00
             0.0000000000000000E+00    0.0000000000000000E+00    0.0000000000000000E+00
             0.0000000000000000E+00    0.0000000000000000E+00    0.0000000000000000E+00
             0.0000000000000000E+00    0.0000000000000000E+00    0.0000000000000000E+00
             0.0000000000000000E+00    0.0000000000000000E+00    0.0000000000000000E+00
             0.0000000000000000E+00    0.0000000000000000E+00    0.0000000000000000E+00
             0.0000000000000000E+00    0.0000000000000000E+00    0.0000000000000000E+00
             0.0000000000000000E+00    0.0000000000000000E+00    0.0000000000000000E+00
             0.0000000000000000E+00    0.0000000000000000E+00    0.0000000000000000E+00
             0.0000000000000000E+00    0.0000000000000000E+00    0.0000000000000000E+00
             0.0000000000000000E+00    0.0000000000000000E+00    0.0000000000000000E+00
             0.0000000000000000E+00    0.0000000000000000E+00    0.0000000000000000E+00
             0.0000000000000000E+00    0.0000000000000000E+00    0.0000000000000000E+00
             0.0000000000000000E+00    0.0000000000000000E+00    0.0000000000000000E+00
             0.0000000000000000E+00    0.0000000000000000E+00    0.0000000000000000E+00
             0.0000000000000000E+00    0.0000000000000000E+00    0.0000000000000000E+00
             0.0000000000000000E+00    0.0000000000000000E+00    0.0000000000000000E+00
             0.0000000000000000E+00    0.0000000000000000E+00    0.0000000000000000E+00
             0.0000000000000000E+00    0.0000000000000000E+00    0.0000000000000000E+00
             0.0000000000000000E+00    0.0000000000000000E+00    0.0000000000000000E+00
             0.0000000000000000E+00    0.0000000000000000E+00    0.0000000000000000E+00
             0.0000000000000000E+00    0.0000000000000000E+00    0.0000000000000000E+00
             0.0000000000000000E+00    0.0000000000000000E+00    0.0000000000000000E+00
             0.0000000000000000E+00    0.0000000000000000E+00    0.0000000000000000E+00
             0.0000000000000000E+00    0.0000000000000000E+00    0.0000000000000000E+00
             0.0000000000000000E+00    0.0000000000000000E+00    0.0000000000000000E+00
             0.0000000000000000E+00    0.0000000000000000E+00    0.0000000000000000E+00
             0.0000000000000000E+00    0.0000000000000000E+00    0.0000000000000000E+00