SIESTA 1.3.7  -- [1.3f1 release] (04 Feb 2004)
Architecture  : mpif90
Compiler flags:  -O3 -check bounds -fp-model strict
PARALLEL version

* Running on    2 nodes in parallel
>> Start of run:  31-OCT-2023  15:28:53

                           ***********************       
                           *  WELCOME TO SIESTA  *       
                           ***********************       

reinit: Reading from standard input
************************** Dump of input data file ****************************
SystemName		     au-chain_szv_shiftx_dftenergy		# Descriptive name of the system
SystemLabel 			au-chain_szv_shiftx_dftenergy		# Short name for naming files
NumberOfAtoms    9
NumberOfSpecies			1               # Number of species
PAO.BasisType			split		
%block ChemicalSpeciesLabel
1 79 Au
%endblock ChemicalSpeciesLabel
%block PAO.Basis
  Au  2
n=6  0  1
6.500
1.00
n=5  2  1
5.850
1.00
%endblock PAO.Basis
%block PS.lmax
 Au   3
%endblock PS.lmax
LatticeConstant 1.000 Ang
%block LatticeVectors
  8.4    0.000   0.000    1
  0.000   8.4     0.000   1
  0.000   0.000     25.2 1
%endblock LatticeVectors
AtomicCoordinatesFormat Ang
%block AtomicCoordinatesAndAtomicSpecies
0.0 0.0 0.0 1 Au
0.0 0.0 2.8 1 Au
0.0 0.0 5.6 1 Au
0.0 0.0 8.4 1 Au
1.0 0.0 11.2 1 Au
0.0 0.0 14.0 1 Au
0.0 0.0 16.8 1 Au
0.0 0.0 19.6 1 Au
0.0 0.0 22.4 1 Au
%endblock AtomicCoordinatesAndAtomicSpecies
%block GeometryConstraints
   position   from  1 to 3
   position   from  7 to 9
%endblock GeometryConstraints
%block kgrid_Monkhorst_Pack
  1   0   0     0.0
  0   1   0     0.0
  0   0   1     0.0
%endblock kgrid_Monkhorst_Pack
xc.functional		LDA		# 'LDA', 'GGA'
xc.authors 	 		CA		# 'CA'='PZ', 'PW92', 'PBE'
SpinPolarized			F		# 'T', 'F'		
#FixSpin           F
#TotalSpin        0.0
NonCollinearSpin		F		# 'T', 'F'
MeshCutoff 	 		    200 Ry		# Equivalent plane wave cutoff for the grid
MaxSCFIterations                10000                2                10000                10000		10000
DM.MixingWeight			0.1
DM.NumberPulay			4	# Pulay convergency accelerator
DM.MixSCF1			    T
MixHamiltonian      T
DM.PulayOnFile			F		# Store in memory ('F') or in files ('T')
#DM.NumberKick         30
#DM.KickMixingWeight   0.1
DM.Tolerance 		1.0E-4
NeglNonOverlapInt		F		# 'F'=do not neglect
SolutionMethod			diagon
ElectronicTemperature		300 K		# Default value
DM.UseSaveDM 			T
#MD.UseSaveXV			T
#MD.UseSaveCG			T
WriteForces      T
WriteCoorXmol			T		# Write Atoms coordinates
SaveElectrostaticPotential      T
#SaveHS				T		# Save the Hamiltonian and Overlap matrices
SaveRho				T		# Save the valence pseudocharge density
#SaveDeltaRho			T
#WriteDenchar			T		# Write Denchar output
WriteMullikenPop		0 #write mulliken population of aromic and orbital charges
************************** End of input data file *****************************

reinit: -----------------------------------------------------------------------
reinit: System Name: au-chain_szv_shiftx_dftenergy                              
reinit: -----------------------------------------------------------------------
reinit: System Label: au-chain_szv_shiftx_
reinit: -----------------------------------------------------------------------

initatom: Reading input for the pseudopotentials and atomic orbitals ----------
 Species number:            1  Label: Au Atomic number:          79
Ground state valence configuration:   6s01  5d10
Reading pseudopotential information in formatted form from Au.psf
relmxkb: Read Max KB Ang. Momentum=    3 for species Au
 Warning: Empty PAO shell. l =           1
 Will have a KB projector anyway...

<basis_specs>
===============================================================================
Au                   Z=  79    Mass=  196.97        Charge=  0.0000    
Lmxo=2 Lmxkb=3     BasisType=split      Semic=F
L=0  Nsemic=0  Cnfigmx=6
          n=1  nzeta=1  polorb=0
               vcte:    0.0000    
               rinn:    0.0000    
                rcs:    6.5000    
            lambdas:    1.0000    
L=1  Nsemic=0  Cnfigmx=6
L=2  Nsemic=0  Cnfigmx=5
          n=1  nzeta=1  polorb=0
               vcte:    0.0000    
               rinn:    0.0000    
                rcs:    5.8500    
            lambdas:    1.0000    
-------------------------------------------------------------------------------
L=0  Nkbl=1  erefs: 0.17977+309
L=1  Nkbl=1  erefs: 0.17977+309
L=2  Nkbl=1  erefs: 0.17977+309
L=3  Nkbl=1  erefs: 0.17977+309
===============================================================================
</basis_specs>

atom: Called for Au  (Z =  79)

read_vps: Pseudopotential generation method:
read_vps: ATM3      Troullier-Martins                       

read_vps: Pseudopotential generated from a relativistic atomic calculation
read_vps: There are spin-orbit pseudopotentials available

read_vps: Valence configuration (pseudopotential and basis set generation):
6s( 1.00) rc: 2.18
6p( 0.00) rc: 2.47
5d(10.00) rc: 1.79
5f( 0.00) rc: 2.00
Total valence charge:   11.00000

read_vps: Pseudopotential includes a core correction:
read_vps: Pseudo-core for xc-correction
comcore: Pseudo-core radius Rcore=  4.027091

xc_check: Exchange-correlation functional:
xc_check: Ceperley-Alder
V l=0 = -2*Zval/r beyond r=  2.9833
V l=1 = -2*Zval/r beyond r=  2.9833
V l=2 = -2*Zval/r beyond r=  2.9833
V l=3 = -2*Zval/r beyond r=  2.9833
All V_l potentials equal beyond r=  2.4425
This should be close to max(r_c) in ps generation
All pots = -2*Zval/r beyond r=  2.9833

VLOCAL1: 99.0% of the norm of Vloc inside      7.276 Ry
VLOCAL1: 99.9% of the norm of Vloc inside     16.582 Ry
atom: Maximum radius for 4*pi*r*r*local-pseudopot. charge    2.94627
atom: Maximum radius for r*vlocal+2*Zval:    2.60007
GHOST: No ghost state for L =  0
GHOST: No ghost state for L =  1
GHOST: No ghost state for L =  2
GHOST: No ghost state for L =  3

KBgen: Kleinman-Bylander projectors: 
   l= 0   rc=  3.175745   el= -0.445638   Ekb=  5.072790   kbcos=  0.276607
   l= 1   rc=  3.256140   el= -0.066324   Ekb=  2.703235   kbcos=  0.227171
   l= 2   rc=  3.020861   el= -0.526103   Ekb= -4.704026   kbcos= -0.643795
   l= 3   rc=  3.466145   el=  0.003438   Ekb= -2.516122   kbcos= -0.010529

KBgen: Total number of  Kleinman-Bylander projectors:   16
atom: -------------------------------------------------------------------------

atom: SANKEY-TYPE ORBITALS:

SPLIT: Orbitals with angular momentum L= 0

SPLIT: Basis orbitals for state 6s

   izeta = 1
                 lambda =    1.000000
                     rc =    6.557093
                 energy =   -0.435455
                kinetic =    0.389259
    potential(screened) =   -0.824714
       potential(ionic) =   -8.467175

SPLIT: Orbitals with angular momentum L= 2

SPLIT: Basis orbitals for state 5d

   izeta = 1
                 lambda =    1.000000
                     rc =    5.933100
                 energy =   -0.524775
                kinetic =    4.913203
    potential(screened) =   -5.437978
       potential(ionic) =  -15.883506
atom: Total number of Sankey-type orbitals:  6

atm_pop: Valence configuration(local Pseudopot. screening):
 6s( 1.00)                                                            
 6p( 0.00)                                                            
 5d(10.00)                                                            
Vna: chval, zval:   11.00000  11.00000

Vna:  Cut-off radius for the neutral-atom potential:   6.557093

atom: _________________________________________________________________________

prinput: Basis input ----------------------------------------------------------

PAO.BasisType split     

%block ChemicalSpeciesLabel
    1   79 Au                      # Species index, atomic number, species label
%endblock ChemicalSpeciesLabel

%block PAO.Basis                 # Define Basis set
Au          2                    # Species label, number of l-shells
 n=6   0   1                         # n, l, Nzeta 
   6.557   
   1.000   
 n=5   2   1                         # n, l, Nzeta 
   5.933   
   1.000   
%endblock PAO.Basis

prinput: ----------------------------------------------------------------------


siesta: ******************** Simulation parameters ****************************
siesta:
siesta: The following are some of the parameters of the simulation.
siesta: A complete list of the parameters used, including defect values,
siesta: can be found in file out.fdf
siesta:
coor:   Atomic-coordinates input format  =     Cartesian coordinates
coor:                                          (in Angstroms)
redata: Number of spin components        =     1
redata: SpinOrbit                        =     0
redata: Long output                      =     F
redata: Number of Atomic Species         =     1
redata: Charge density info will appear in .RHO file
redata: Write Mulliken Pop.              =     NO
redata: Write Hamilton Pop.              =     NO
redata: Mesh Cutoff                      =   200.0000  Ry
redata: Net charge of the system         =     0.0000 |e|
redata: Max. number of SCF Iter          = 10000
redata: One Pulay mixing every           =     4 iterations
redata: Mix DM in first SCF step ?       =     T
redata: Write Pulay info on disk?        =     F
redata: New DM Mixing Weight             =     0.1000
redata: No kicks to SCF
redata: DM Mixing Weight for Kicks       =     0.5000
redata: DM Tolerance for SCF             =     0.000100
redata: Use continuation files for DM    =     T
redata: Neglect nonoverlap interactions  =     F
redata: Method of Calculation            =     Diagonalization
redata: Divide and Conquer               =     F
redata: Electronic Temperature           =     0.0019  Ry
redata: Fix the spin of the system       =     F
redata: Dynamics option                  =     CG coord. optimization
redata: Variable cell                    =     F
redata: Use continuation files for CG    =     F
redata: Maximum number of CG moves       =     0
redata: Max atomic displ per move        =     0.2000  Bohr
redata: Force tolerance                  =     0.0016  Ry/Bohr
redata: ***********************************************************************

siesta: Atomic coordinates (Bohr) and species
siesta:      0.00000   0.00000   0.00000  1        1
siesta:      0.00000   0.00000   5.29124  1        2
siesta:      0.00000   0.00000  10.58247  1        3
siesta:      0.00000   0.00000  15.87371  1        4
siesta:      1.88973   0.00000  21.16494  1        5
siesta:      0.00000   0.00000  26.45618  1        6
siesta:      0.00000   0.00000  31.74741  1        7
siesta:      0.00000   0.00000  37.03865  1        8
siesta:      0.00000   0.00000  42.32988  1        9

initatomlists: Number of atoms, orbitals, and projectors:      9    54   144

siesta: System type = chain     
 Nodes, Orbitals           2          54
 blocksizedefault           8

* ProcessorY, Blocksize:    1   8

 label:           1 Au                             1 s      
 label:           2 Au                             1 dxy    
 label:           3 Au                             1 dyz    
 label:           4 Au                             1 dz2    
 label:           5 Au                             1 dxz    
 label:           6 Au                             1 dx2-y2 
 label:           7 Au                             2 s      
 label:           8 Au                             2 dxy    
 label:           9 Au                             2 dyz    
 label:          10 Au                             2 dz2    
 label:          11 Au                             2 dxz    
 label:          12 Au                             2 dx2-y2 
 label:          13 Au                             3 s      
 label:          14 Au                             3 dxy    
 label:          15 Au                             3 dyz    
 label:          16 Au                             3 dz2    
 label:          17 Au                             3 dxz    
 label:          18 Au                             3 dx2-y2 
 label:          19 Au                             4 s      
 label:          20 Au                             4 dxy    
 label:          21 Au                             4 dyz    
 label:          22 Au                             4 dz2    
 label:          23 Au                             4 dxz    
 label:          24 Au                             4 dx2-y2 
 label:          25 Au                             5 s      
 label:          26 Au                             5 dxy    
 label:          27 Au                             5 dyz    
 label:          28 Au                             5 dz2    
 label:          29 Au                             5 dxz    
 label:          30 Au                             5 dx2-y2 
 label:          31 Au                             6 s      
 label:          32 Au                             6 dxy    
 label:          33 Au                             6 dyz    
 label:          34 Au                             6 dz2    
 label:          35 Au                             6 dxz    
 label:          36 Au                             6 dx2-y2 
 label:          37 Au                             7 s      
 label:          38 Au                             7 dxy    
 label:          39 Au                             7 dyz    
 label:          40 Au                             7 dz2    
 label:          41 Au                             7 dxz    
 label:          42 Au                             7 dx2-y2 
 label:          43 Au                             8 s      
 label:          44 Au                             8 dxy    
 label:          45 Au                             8 dyz    
 label:          46 Au                             8 dz2    
 label:          47 Au                             8 dxz    
 label:          48 Au                             8 dx2-y2 
 label:          49 Au                             9 s      
 label:          50 Au                             9 dxy    
 label:          51 Au                             9 dyz    
 label:          52 Au                             9 dz2    
 label:          53 Au                             9 dxz    
 label:          54 Au                             9 dx2-y2 
 
* Maximum dynamic memory allocated =     1 MB

siesta:                 ==============================
                            Begin CG move =      0
                        ==============================

read_ldau The LDA+U method used is from Czyzky PRB 49 14211
 NSCOBlocks=           0

InitMesh: MESH =    72 x    72 x   216 =     1119744
InitMesh: Mesh cutoff (required, used) =   200.000   203.052 Ry
 
* Maximum dynamic memory allocated =    49 MB

stepf: Fermi-Dirac step function

siesta: Program's energy decomposition (eV):
siesta: Eions   =     10845.004161
siesta: Ena     =       617.624380
siesta: Ekin    =      6064.079429
siesta: Enl     =     -2347.294992
siesta: DEna    =         0.000004
siesta: DUscf   =         0.000000
siesta: DUext   =         0.000000
siesta: Exc     =     -3729.631764
siesta: eta*DQ  =         0.000000
siesta: Emadel  =         0.000000
siesta: Eharris =    -10246.760089
siesta: Eso     =         0.000000
siesta: Etot    =    -10240.227104
siesta: FreeEng =    -10240.227104

siesta: iscf   Eharris(eV)      E_KS(eV)   FreeEng(eV)     dDmax   Ef(eV)
siesta:    1   -10246.7601   -10240.2271   -10240.2271   0.40659  -5.4840
timer: Routine,Calls,Time,% = IterSCF        1       2.867  90.93
siesta:    2   -10246.2216   -10240.8504   -10240.9073   0.37330  -5.6979
siesta:    3   -10245.3292   -10243.0615   -10243.1202   0.21959  -6.3464
siesta:    4   -10245.3081   -10243.2410   -10243.3086   0.20191  -6.3517
siesta:    5   -10245.2991   -10243.7664   -10243.8278   0.15910  -6.2995
siesta:    6   -10245.3038   -10244.9267   -10245.0058   0.08123  -6.3209
siesta:    7   -10245.2769   -10245.1982   -10245.2607   0.03552  -6.2980
siesta:    8   -10245.2718   -10245.2271   -10245.2975   0.02511  -6.2947
siesta:    9   -10245.2674   -10245.2421   -10245.3146   0.01125  -6.2863
siesta:   10   -10245.2678   -10245.2414   -10245.3170   0.00862  -6.2875
siesta:   11   -10245.2673   -10245.2527   -10245.3278   0.00261  -6.2869
siesta:   12   -10245.2676   -10245.2556   -10245.3310   0.00179  -6.2877
siesta:   13   -10245.2672   -10245.2625   -10245.3375   0.00137  -6.2871
siesta:   14   -10245.2674   -10245.2634   -10245.3388   0.00094  -6.2875
siesta:   15   -10245.2673   -10245.2648   -10245.3400   0.00105  -6.2875
siesta:   16   -10245.2673   -10245.2659   -10245.3411   0.00063  -6.2876
siesta:   17   -10245.2674   -10245.2667   -10245.3420   0.00022  -6.2878
siesta:   18   -10245.2674   -10245.2668   -10245.3420   0.00014  -6.2878
siesta:   19   -10245.2674   -10245.2670   -10245.3422   0.00014  -6.2879
siesta:   20   -10245.2674   -10245.2671   -10245.3422   0.00012  -6.2879
siesta:   21   -10245.2674   -10245.2671   -10245.3423   0.00010  -6.2878

siesta: E_KS(eV) =           -10245.2672

siesta: E_KS - E_eggbox =    -10245.2672

siesta: Atomic forces (eV/Ang):
     1    0.003922    0.000000    0.005923
     2   -0.016495    0.000000   -0.026539
     3    0.069952    0.000000    0.070732
     4    0.320401    0.000000    0.194470
     5   -0.386992   -0.000000    0.000022
     6    0.320403    0.000000   -0.210064
     7    0.069951   -0.000000   -0.086279
     8   -0.016491   -0.000000    0.010873
     9    0.003933   -0.000000   -0.013738
----------------------------------------
 Tot    0.368583   -0.000000   -0.054600
----------------------------------------
 Max    0.386992
 Res    0.130650    sqrt( Sum f_i^2 / 3N )
----------------------------------------
 Max    0.386992    constrained
 
* Maximum dynamic memory allocated =    49 MB

coxmol: Writing XMOL coordinates into file au-chain_szv_shiftx_.xyz

siesta: Eigenvalues (eV):
  ik is    eps
   1  1 -10.01  -9.69  -9.34  -8.51  -8.43  -8.17  -8.14  -8.07  -8.04  -7.80
         -7.73  -7.71  -7.54  -7.47  -7.39  -7.25  -7.24  -7.05  -7.04  -7.02
         -7.01  -7.01  -6.98  -6.96  -6.94  -6.93  -6.93  -6.90  -6.86  -6.85
         -6.84  -6.80  -6.78  -6.78  -6.75  -6.74  -6.71  -6.71  -6.70  -6.70
         -6.68  -6.68  -6.55  -6.55  -6.51  -6.39  -6.38  -6.36  -6.33  -6.32
         -5.09  -4.88  -2.48  -1.85
siesta: Fermi energy =      -6.287846 eV

siesta: Program's energy decomposition (eV):
siesta:-Eions   =  -10845.004161
siesta: Ena     =     617.624380
siesta: Ekin    =    5992.151709
siesta: Enl     =   -2314.322474
siesta: DEna    =      20.691545
siesta: DUscf   =       0.802685
siesta: DUext   =       0.000000
siesta: Exc     =   -3717.210865
siesta: eta*DQ  =       0.000000
siesta: Emadel  =       0.000000
siesta: Ekinion =       0.000000
siesta: Eharris =  -10245.267390
siesta: Eso     =       0.000000
siesta: Etot    =  -10245.267182
siesta: FreeEng =  -10245.342367

siesta: Final energy (eV):
siesta:       Kinetic =    5992.151709
siesta:       Hartree =    6096.647283
siesta:    Ext. field =       0.000000
siesta:   Exch.-corr. =   -3717.210865
siesta:  Ion-electron =  -16880.341974
siesta:       Ion-ion =   -1736.513335
siesta:       Ekinion =       0.000000
siesta:         Total =  -10245.267182

siesta: Atomic forces (eV/Ang):
siesta:    1    0.003922    0.000000    0.005923
siesta:    2   -0.016495    0.000000   -0.026539
siesta:    3    0.069952    0.000000    0.070732
siesta:    4    0.320401    0.000000    0.194470
siesta:    5   -0.386992   -0.000000    0.000022
siesta:    6    0.320403    0.000000   -0.210064
siesta:    7    0.069951   -0.000000   -0.086279
siesta:    8   -0.016491   -0.000000    0.010873
siesta:    9    0.003933   -0.000000   -0.013738
siesta: ----------------------------------------
siesta:  Tot    0.368583   -0.000000   -0.054600

siesta: Constrained forces (eV/Ang):
siesta:    1    0.000000    0.000000    0.000000
siesta:    2    0.000000    0.000000    0.000000
siesta:    3    0.000000    0.000000    0.000000
siesta:    4    0.320401    0.000000    0.194470
siesta:    5   -0.386992   -0.000000    0.000022
siesta:    6    0.320403    0.000000   -0.210064
siesta:    7    0.000000    0.000000    0.000000
siesta:    8    0.000000    0.000000    0.000000
siesta:    9    0.000000    0.000000    0.000000
siesta: ----------------------------------------
siesta:  Tot    0.253812    0.000000   -0.015572

siesta: Stress tensor (static) (eV/Ang**3):
siesta:     0.001774   -0.000000   -0.000000
siesta:    -0.000000    0.001365    0.000000
siesta:    -0.000000    0.000000    0.017034

siesta: Cell volume =       1778.112000 Ang**3

siesta: Pressure (static):
siesta:                Solid            Molecule  Units
siesta:          -0.00007324         -0.00006845  Ry/Bohr**3
siesta:          -0.00672450         -0.00628473  eV/Ang**3
siesta:         -10.77394628        -10.06936246  kBar

siesta: Total spin polarization (Qup-Qdown) =    0.000000
siesta: Spin vector =    0.000000    0.000000    0.000000
siesta: No SpinPolK block detected...

siesta: Electric dipole (a.u.)  =    0.007446    0.000000   -0.000000
siesta: Electric dipole (Debye) =    0.018926    0.000000   -0.000000
 
* Maximum dynamic memory allocated : Node    0 =    49 MB
* Maximum memory occured during redistribXZ                   
* Maximum dynamic memory allocated : Node    1 =    49 MB

timer: CPU execution times:
timer:  Routine       Calls   Time/call    Tot.time        %
timer:  siesta            1      25.879      25.879   100.00
timer:  Setup             1       0.148       0.148     0.57
timer:  bands             1       0.000       0.000     0.00
timer:  writewave         1       0.000       0.000     0.00
timer:  KSV_init          1       0.000       0.000     0.00
timer:  IterMD            1      24.697      24.697    95.43
timer:  hsparse           2       0.005       0.009     0.04
timer:  overfsm           2       0.060       0.119     0.46
timer:  IterSCF          22       1.116      24.548    94.86
timer:  kinefsm           2       0.053       0.107     0.41
timer:  nlefsm            2       0.226       0.452     1.75
timer:  DHSCF            23       1.078      24.789    95.79
timer:  DHSCF1            1       0.107       0.107     0.41
timer:  DHSCF2            1       1.250       1.250     4.83
timer:  REORD           282       0.004       1.016     3.93
timer:  POISON           24       0.300       7.192    27.79
timer:  DHSCF3           23       0.962      22.129    85.51
timer:  rhoofd           23       0.282       6.493    25.09
timer:  CELLXC           23       0.066       1.524     5.89
timer:  vmat             22       0.170       3.749    14.49
timer:  diagon           21       0.005       0.108     0.42
timer:  rdiag            21       0.003       0.069     0.27
timer:  DHSCF4            1       1.275       1.275     4.93
timer:  dfscf             1       1.152       1.152     4.45
  
>> End of run:  31-OCT-2023  15:29:06
