 DBCSR| CPU Multiplication driver                                           BLAS
 DBCSR| Multrec recursion limit                                              512
 DBCSR| Multiplication stack size                                           1000
 DBCSR| Maximum elements for images                                    UNLIMITED
 DBCSR| Multiplicative factor virtual images                                   1
 DBCSR| Use multiplication densification                                       T
 DBCSR| Multiplication size stacks                                             3
 DBCSR| Use memory pool for CPU allocation                                     F
 DBCSR| Number of 3D layers                                               SINGLE
 DBCSR| Use MPI memory allocation                                              F
 DBCSR| Use RMA algorithm                                                      F
 DBCSR| Use Communication thread                                               T
 DBCSR| Communication thread load                                             87
 DBCSR| MPI: My node id                                                        0
 DBCSR| MPI: Number of nodes                                                 128
 DBCSR| OMP: Current number of threads                                         1
 DBCSR| OMP: Max number of threads                                             1
 DBCSR| Split modifier for TAS multiplication algorithm                  1.0E+00


  **** **** ******  **  PROGRAM STARTED AT               2023-11-22 15:16:47.631
 ***** ** ***  *** **   PROGRAM STARTED ON                             nid006161
 **    ****   ******    PROGRAM STARTED BY                                cahart
 ***** **    ** ** **   PROGRAM PROCESS ID                                 34021
  **** **  *******  **  PROGRAM STARTED IN /mnt/lustre/a2fs-work2/work/e05/e05/c
                                           ahart/postdoc/transport/cp2k-smeagol-
                                           examples/benchmarking/cp2k-smeagol/au
                                           -bdt/NEnergReal-64_kpoints-1-1-20/ato
                                           ms-662/dft

 CP2K| version string:                 CP2K version 2022.1 (Development Version)
 CP2K| source code revision number:                                  git:215a478
 CP2K| cp2kflags: omp libint fftw3 libxc elpa parallel mpi3 scalapack mkl       
 CP2K| is freely available from                            https://www.cp2k.org/
 CP2K| Program compiled at                          Mon 30 Oct 16:32:24 GMT 2023
 CP2K| Program compiled on                                                  ln03
 CP2K| Program compiled for                                                local
 CP2K| Data directory path    /work/e05/e05/cahart/smeagol/smgl/cp2k-private-ser
 CP2K| Input file name                                             2_dft_wfn.inp

 GLOBAL| Force Environment number                                              1
 GLOBAL| Basis set file name                                        BASIS_MOLOPT
 GLOBAL| Potential file name                                      GTH_POTENTIALS
 GLOBAL| MM Potential file name                                     MM_POTENTIAL
 GLOBAL| Coordinate file name                                             em.xyz
 GLOBAL| Method name                                                        CP2K
 GLOBAL| Project name                                                    dft_wfn
 GLOBAL| Run type                                                         ENERGY
 GLOBAL| FFT library                                                       FFTW3
 GLOBAL| Diagonalization library                                            ELPA
 GLOBAL| Minimum number of eigenvectors for ELPA usage                        16
 GLOBAL| Orthonormality check for eigenvectors                          DISABLED
 GLOBAL| Matrix multiplication library                                 ScaLAPACK
 GLOBAL| All-to-all communication in single precision                          F
 GLOBAL| FFTs using library dependent lengths                                  T
 GLOBAL| Grid backend                                                       AUTO
 GLOBAL| Global print level                                               MEDIUM
 GLOBAL| MPI I/O enabled                                                       T
 GLOBAL| Total number of message passing processes                           128
 GLOBAL| Number of threads for this process                                    1
 GLOBAL| This output is from process                                           0
 GLOBAL| Stack size for threads created by OpenMP (OMP_STACKSIZE)        default
 GLOBAL| CPU model name                          AMD EPYC 7742 64-Core Processor
 GLOBAL| CPUID                                                              1002

 MEMORY| system memory details [Kb]
 MEMORY|                        rank 0           min           max       average
 MEMORY| MemTotal            263341976     263341976     263341976     263341976
 MEMORY| MemFree             238811288     238811288     238812040     238811757
 MEMORY| Buffers                     0             0             0             0
 MEMORY| Cached                1484600       1484600       1484600       1484600
 MEMORY| Slab                  2871020       2870972       2871020       2870994
 MEMORY| SReclaimable           113876        113876        113876        113876
 MEMORY| MemLikelyFree       240409764     240409764     240410516     240410233


 *** Fundamental physical constants (SI units) ***

 *** Literature: B. J. Mohr and B. N. Taylor,
 ***             CODATA recommended values of the fundamental physical
 ***             constants: 2006, Web Version 5.1
 ***             http://physics.nist.gov/constants

 Speed of light in vacuum [m/s]                             2.99792458000000E+08
 Magnetic constant or permeability of vacuum [N/A**2]       1.25663706143592E-06
 Electric constant or permittivity of vacuum [F/m]          8.85418781762039E-12
 Planck constant (h) [J*s]                                  6.62606896000000E-34
 Planck constant (h-bar) [J*s]                              1.05457162825177E-34
 Elementary charge [C]                                      1.60217648700000E-19
 Electron mass [kg]                                         9.10938215000000E-31
 Electron g factor [ ]                                     -2.00231930436220E+00
 Proton mass [kg]                                           1.67262163700000E-27
 Fine-structure constant                                    7.29735253760000E-03
 Rydberg constant [1/m]                                     1.09737315685270E+07
 Avogadro constant [1/mol]                                  6.02214179000000E+23
 Boltzmann constant [J/K]                                   1.38065040000000E-23
 Atomic mass unit [kg]                                      1.66053878200000E-27
 Bohr radius [m]                                            5.29177208590000E-11

 *** Conversion factors ***

 [u] -> [a.u.]                                              1.82288848426455E+03
 [Angstrom] -> [Bohr] = [a.u.]                              1.88972613288564E+00
 [a.u.] = [Bohr] -> [Angstrom]                              5.29177208590000E-01
 [a.u.] -> [s]                                              2.41888432650478E-17
 [a.u.] -> [fs]                                             2.41888432650478E-02
 [a.u.] -> [J]                                              4.35974393937059E-18
 [a.u.] -> [N]                                              8.23872205491840E-08
 [a.u.] -> [K]                                              3.15774647902944E+05
 [a.u.] -> [kJ/mol]                                         2.62549961709828E+03
 [a.u.] -> [kcal/mol]                                       6.27509468713739E+02
 [a.u.] -> [Pa]                                             2.94210107994716E+13
 [a.u.] -> [bar]                                            2.94210107994716E+08
 [a.u.] -> [atm]                                            2.90362800883016E+08
 [a.u.] -> [eV]                                             2.72113838565563E+01
 [a.u.] -> [Hz]                                             6.57968392072181E+15
 [a.u.] -> [1/cm] (wave numbers)                            2.19474631370540E+05
 [a.u./Bohr**2] -> [1/cm]                                   5.14048714338585E+03
 

 CELL_TOP| Volume [angstrom^3]:                                     14836.098640
 CELL_TOP| Vector a [angstrom    20.730     0.000     0.000   |a| =    20.730000
 CELL_TOP| Vector b [angstrom     0.000    20.730     0.000   |b| =    20.730000
 CELL_TOP| Vector c [angstrom     0.000     0.000    34.524   |c| =    34.524000
 CELL_TOP| Angle (b,c), alpha [degree]:                                90.000000
 CELL_TOP| Angle (a,c), beta  [degree]:                                90.000000
 CELL_TOP| Angle (a,b), gamma [degree]:                                90.000000
 CELL_TOP| Numerically orthorhombic:                                         YES
 CELL_TOP| Periodicity                                                       XYZ

 GENERATE|  Preliminary Number of Bonds generated:                             0
 GENERATE|  Achieved consistency in connectivity generation.

 CELL| Volume [angstrom^3]:                                         14836.098640
 CELL| Vector a [angstrom]:      20.730     0.000     0.000   |a| =    20.730000
 CELL| Vector b [angstrom]:       0.000    20.730     0.000   |b| =    20.730000
 CELL| Vector c [angstrom]:       0.000     0.000    34.524   |c| =    34.524000
 CELL| Angle (b,c), alpha [degree]:                                    90.000000
 CELL| Angle (a,c), beta  [degree]:                                    90.000000
 CELL| Angle (a,b), gamma [degree]:                                    90.000000
 CELL| Numerically orthorhombic:                                             YES
 CELL| Periodicity                                                           XYZ

 CELL_REF| Volume [angstrom^3]:                                     14836.098640
 CELL_REF| Vector a [angstrom    20.730     0.000     0.000   |a| =    20.730000
 CELL_REF| Vector b [angstrom     0.000    20.730     0.000   |b| =    20.730000
 CELL_REF| Vector c [angstrom     0.000     0.000    34.524   |c| =    34.524000
 CELL_REF| Angle (b,c), alpha [degree]:                                90.000000
 CELL_REF| Angle (a,c), beta  [degree]:                                90.000000
 CELL_REF| Angle (a,b), gamma [degree]:                                90.000000
 CELL_REF| Numerically orthorhombic:                                         YES
 CELL_REF| Periodicity                                                       XYZ

 *** WARNING in cryssym.F:165 :: Symmetry library SPGLIB not available ***


 *******************************************************************************
                                    Kpoints
 *******************************************************************************
 BRILLOUIN| K-point scheme                                        Monkhorst-Pack
 BRILLOUIN| K-Point grid                                             1    1    1
 BRILLOUIN| Accuracy in Symmetry determination                      0.100000E-07
 BRILLOUIN| K-Point point group symmetrization                               OFF
 BRILLOUIN| Wavefunction type                                            COMPLEX
 BRILLOUIN| Use full k-point grid     
 BRILLOUIN| List of Kpoints [2 Pi/Bohr]                                        1
 BRILLOUIN| Number           Weight            X              Y              Z
 BRILLOUIN|     1           1.00000        0.00000        0.00000        0.00000
 *******************************************************************************

 *******************************************************************************
 *******************************************************************************
 **                                                                           **
 **     #####                         ##              ##                      **
 **    ##   ##            ##          ##              ##                      **
 **   ##     ##                       ##            ######                    **
 **   ##     ##  ##   ##  ##   #####  ##  ##   ####   ##    #####    #####    **
 **   ##     ##  ##   ##  ##  ##      ## ##   ##      ##   ##   ##  ##   ##   **
 **   ##  ## ##  ##   ##  ##  ##      ####     ###    ##   ######   ######    **
 **    ##  ###   ##   ##  ##  ##      ## ##      ##   ##   ##       ##        **
 **     #######   #####   ##   #####  ##  ##  ####    ##    #####   ##        **
 **           ##                                                    ##        **
 **                                                                           **
 **                                                ... make the atoms dance   **
 **                                                                           **
 **            Copyright (C) by CP2K developers group (2000-2022)             **
 **                      J. Chem. Phys. 152, 194103 (2020)                    **
 **                                                                           **
 *******************************************************************************

 DFT| Spin restricted Kohn-Sham (RKS) calculation                            RKS
 DFT| Multiplicity                                                             1
 DFT| Number of spin states                                                    1
 DFT| Charge                                                                   0
 DFT| Self-interaction correction (SIC)                                       NO
 DFT| Cutoffs: density                                              1.000000E-10
 DFT|          gradient                                             1.000000E-10
 DFT|          tau                                                  1.000000E-10
 DFT|          cutoff_smoothing_range                               0.000000E+00
 DFT| XC density smoothing                                                  NONE
 DFT| XC derivatives                                                          PW

 FUNCTIONAL| PADE:
 FUNCTIONAL| S. Goedecker, M. Teter and J. Hutter, Phys. Rev. B 54, 1703 (1996) 


 QS| Method:                                                                 GPW
 QS| Density plane wave grid type                        NON-SPHERICAL FULLSPACE
 QS| Number of grid levels:                                                    4
 QS| Density cutoff [a.u.]:                                                200.0
 QS| Multi grid cutoff [a.u.]: 1) grid level                               200.0
 QS|                           2) grid level                                66.7
 QS|                           3) grid level                                22.2
 QS|                           4) grid level                                 7.4
 QS| Grid level progression factor:                                          3.0
 QS| Relative density cutoff [a.u.]:                                        20.0
 QS| Interaction thresholds: eps_pgf_orb:                                1.0E-05
 QS|                         eps_filter_matrix:                          0.0E+00
 QS|                         eps_core_charge:                            1.0E-12
 QS|                         eps_rho_gspace:                             1.0E-10
 QS|                         eps_rho_rspace:                             1.0E-10
 QS|                         eps_gvg_rspace:                             1.0E-05
 QS|                         eps_ppl:                                    1.0E-02
 QS|                         eps_ppnl:                                   1.0E-07


 ATOMIC KIND INFORMATION

  1. Atomic kind: Au                                    Number of atoms:     650

     Orbital Basis Set                                         SZV-MOLOPT-SR-GTH

       Number of orbital shell sets:                                           1
       Number of orbital shells:                                               3
       Number of primitive Cartesian functions:                                5
       Number of Cartesian basis functions:                                   10
       Number of spherical basis functions:                                    9
       Norm type:                                                              2

       Normalised Cartesian orbitals:

                        Set   Shell   Orbital            Exponent    Coefficient

                          1       1    2s                2.950008       0.074626
                                                         1.563057      -0.007898
                                                         0.666664      -0.297688
                                                         0.251083       0.136809
                                                         0.081714       0.088198

                          1       2    3px               2.950008       0.148824
                                                         1.563057       0.025430
                                                         0.666664      -0.123003
                                                         0.251083       0.033648
                                                         0.081714       0.059008
                          1       2    3py               2.950008       0.148824
                                                         1.563057       0.025430
                                                         0.666664      -0.123003
                                                         0.251083       0.033648
                                                         0.081714       0.059008
                          1       2    3pz               2.950008       0.148824
                                                         1.563057       0.025430
                                                         0.666664      -0.123003
                                                         0.251083       0.033648
                                                         0.081714       0.059008

                          1       3    4dx2              2.950008      -0.139595
                                                         1.563057       1.319655
                                                         0.666664       0.377081
                                                         0.251083       0.046872
                                                         0.081714       0.001393
                          1       3    4dxy              2.950008      -0.241786
                                                         1.563057       2.285709
                                                         0.666664       0.653124
                                                         0.251083       0.081185
                                                         0.081714       0.002412
                          1       3    4dxz              2.950008      -0.241786
                                                         1.563057       2.285709
                                                         0.666664       0.653124
                                                         0.251083       0.081185
                                                         0.081714       0.002412
                          1       3    4dy2              2.950008      -0.139595
                                                         1.563057       1.319655
                                                         0.666664       0.377081
                                                         0.251083       0.046872
                                                         0.081714       0.001393
                          1       3    4dyz              2.950008      -0.241786
                                                         1.563057       2.285709
                                                         0.666664       0.653124
                                                         0.251083       0.081185
                                                         0.081714       0.002412
                          1       3    4dz2              2.950008      -0.139595
                                                         1.563057       1.319655
                                                         0.666664       0.377081
                                                         0.251083       0.046872
                                                         0.081714       0.001393

       Atomic covalent radius [Angstrom]:                                  1.340

       Atomic van der Waals radius [Angstrom]:                             1.660

     GTH Potential information for                                  GTH-PADE-q11

       Description:                       Goedecker-Teter-Hutter pseudopotential
                                           Goedecker et al., PRB 54, 1703 (1996)
                                          Hartwigsen et al., PRB 58, 3641 (1998)
                                                      Krack, TCA 114, 145 (2005)

       Gaussian exponent of the core charge distribution:               1.436369
       Electronic configuration (s p d ...):                           1   0  10

       Parameters of the local part of the GTH pseudopotential:

                          rloc        C1          C2          C3          C4
                        0.590000   11.604428

       Parameters of the non-local part of the GTH pseudopotential:

                   l      r(l)      h(i,j,l)

                   0    0.521180    2.538614   -1.046137
                                   -1.046137    2.701113
                   1    0.630613    0.394853   -0.869592
                                   -0.869592    2.057831
                   2    0.440706   -4.719070    0.727771
                                    0.727771   -1.650429

  2. Atomic kind: S                                     Number of atoms:       2

     Orbital Basis Set                                        DZVP-MOLOPT-SR-GTH

       Number of orbital shell sets:                                           1
       Number of orbital shells:                                               5
       Number of primitive Cartesian functions:                                4
       Number of Cartesian basis functions:                                   14
       Number of spherical basis functions:                                   13
       Norm type:                                                              2

       Normalised Cartesian orbitals:

                        Set   Shell   Orbital            Exponent    Coefficient

                          1       1    2s                2.215855       0.308496
                                                         1.131471       0.138505
                                                         0.410168      -0.373736
                                                         0.140587      -0.040370

                          1       2    3s                2.215855      -0.329528
                                                         1.131471      -0.517509
                                                         0.410168       0.787368
                                                         0.140587      -0.322786

                          1       3    3px               2.215855       0.420434
                                                         1.131471      -0.319283
                                                         0.410168      -0.335323
                                                         0.140587      -0.030976
                          1       3    3py               2.215855       0.420434
                                                         1.131471      -0.319283
                                                         0.410168      -0.335323
                                                         0.140587      -0.030976
                          1       3    3pz               2.215855       0.420434
                                                         1.131471      -0.319283
                                                         0.410168      -0.335323
                                                         0.140587      -0.030976

                          1       4    4px               2.215855       0.241296
                                                         1.131471      -0.170582
                                                         0.410168      -0.186977
                                                         0.140587       0.153509
                          1       4    4py               2.215855       0.241296
                                                         1.131471      -0.170582
                                                         0.410168      -0.186977
                                                         0.140587       0.153509
                          1       4    4pz               2.215855       0.241296
                                                         1.131471      -0.170582
                                                         0.410168      -0.186977
                                                         0.140587       0.153509

                          1       5    4dx2              2.215855       0.573559
                                                         1.131471       0.544926
                                                         0.410168       0.228284
                                                         0.140587       0.008811
                          1       5    4dxy              2.215855       0.993434
                                                         1.131471       0.943840
                                                         0.410168       0.395400
                                                         0.140587       0.015260
                          1       5    4dxz              2.215855       0.993434
                                                         1.131471       0.943840
                                                         0.410168       0.395400
                                                         0.140587       0.015260
                          1       5    4dy2              2.215855       0.573559
                                                         1.131471       0.544926
                                                         0.410168       0.228284
                                                         0.140587       0.008811
                          1       5    4dyz              2.215855       0.993434
                                                         1.131471       0.943840
                                                         0.410168       0.395400
                                                         0.140587       0.015260
                          1       5    4dz2              2.215855       0.573559
                                                         1.131471       0.544926
                                                         0.410168       0.228284
                                                         0.140587       0.008811

       Atomic covalent radius [Angstrom]:                                  1.020

       Atomic van der Waals radius [Angstrom]:                             1.800

     GTH Potential information for                                   GTH-PADE-q6

       Description:                       Goedecker-Teter-Hutter pseudopotential
                                           Goedecker et al., PRB 54, 1703 (1996)
                                          Hartwigsen et al., PRB 58, 3641 (1998)
                                                      Krack, TCA 114, 145 (2005)

       Gaussian exponent of the core charge distribution:               2.834467
       Electronic configuration (s p d ...):                               2   4

       Parameters of the local part of the GTH pseudopotential:

                          rloc        C1          C2          C3          C4
                        0.420000   -6.554492

       Parameters of the non-local part of the GTH pseudopotential:

                   l      r(l)      h(i,j,l)

                   0    0.361757    7.905303   -1.731881
                                   -1.731881    4.471698
                   1    0.405285    3.866579

  3. Atomic kind: C                                     Number of atoms:       6

     Orbital Basis Set                                        DZVP-MOLOPT-SR-GTH

       Number of orbital shell sets:                                           1
       Number of orbital shells:                                               5
       Number of primitive Cartesian functions:                                5
       Number of Cartesian basis functions:                                   14
       Number of spherical basis functions:                                   13
       Norm type:                                                              2

       Normalised Cartesian orbitals:

                        Set   Shell   Orbital            Exponent    Coefficient

                          1       1    2s                5.605331       0.322515
                                                         2.113016       0.213043
                                                         0.769911      -0.209686
                                                         0.348157      -0.219794
                                                         0.128212      -0.022789

                          1       2    3s                5.605331       0.552234
                                                         2.113016       0.082072
                                                         0.769911       0.007843
                                                         0.348157       0.136893
                                                         0.128212       0.074283

                          1       3    3px               5.605331      -0.703879
                                                         2.113016      -0.642521
                                                         0.769911      -0.374851
                                                         0.348157      -0.139743
                                                         0.128212      -0.027849
                          1       3    3py               5.605331      -0.703879
                                                         2.113016      -0.642521
                                                         0.769911      -0.374851
                                                         0.348157      -0.139743
                                                         0.128212      -0.027849
                          1       3    3pz               5.605331      -0.703879
                                                         2.113016      -0.642521
                                                         0.769911      -0.374851
                                                         0.348157      -0.139743
                                                         0.128212      -0.027849

                          1       4    4px               5.605331      -0.480376
                                                         2.113016      -0.552894
                                                         0.769911      -0.316145
                                                         0.348157       0.210505
                                                         0.128212       0.076095
                          1       4    4py               5.605331      -0.480376
                                                         2.113016      -0.552894
                                                         0.769911      -0.316145
                                                         0.348157       0.210505
                                                         0.128212       0.076095
                          1       4    4pz               5.605331      -0.480376
                                                         2.113016      -0.552894
                                                         0.769911      -0.316145
                                                         0.348157       0.210505
                                                         0.128212       0.076095

                          1       5    4dx2              5.605331       0.640026
                                                         2.113016       0.274300
                                                         0.769911       0.446711
                                                         0.348157       0.028674
                                                         0.128212       0.029790
                          1       5    4dxy              5.605331       1.108557
                                                         2.113016       0.475102
                                                         0.769911       0.773726
                                                         0.348157       0.049666
                                                         0.128212       0.051599
                          1       5    4dxz              5.605331       1.108557
                                                         2.113016       0.475102
                                                         0.769911       0.773726
                                                         0.348157       0.049666
                                                         0.128212       0.051599
                          1       5    4dy2              5.605331       0.640026
                                                         2.113016       0.274300
                                                         0.769911       0.446711
                                                         0.348157       0.028674
                                                         0.128212       0.029790
                          1       5    4dyz              5.605331       1.108557
                                                         2.113016       0.475102
                                                         0.769911       0.773726
                                                         0.348157       0.049666
                                                         0.128212       0.051599
                          1       5    4dz2              5.605331       0.640026
                                                         2.113016       0.274300
                                                         0.769911       0.446711
                                                         0.348157       0.028674
                                                         0.128212       0.029790

       Atomic covalent radius [Angstrom]:                                  0.770

       Atomic van der Waals radius [Angstrom]:                             1.700

     GTH Potential information for                                   GTH-PADE-q4

       Description:                       Goedecker-Teter-Hutter pseudopotential
                                           Goedecker et al., PRB 54, 1703 (1996)
                                          Hartwigsen et al., PRB 58, 3641 (1998)
                                                      Krack, TCA 114, 145 (2005)

       Gaussian exponent of the core charge distribution:               4.109048
       Electronic configuration (s p d ...):                               2   2

       Parameters of the local part of the GTH pseudopotential:

                          rloc        C1          C2          C3          C4
                        0.348830   -8.513771    1.228432

       Parameters of the non-local part of the GTH pseudopotential:

                   l      r(l)      h(i,j,l)

                   0    0.304553    9.522842
                   1    0.232677

  4. Atomic kind: H                                     Number of atoms:       4

     Orbital Basis Set                                        DZVP-MOLOPT-SR-GTH

       Number of orbital shell sets:                                           1
       Number of orbital shells:                                               3
       Number of primitive Cartesian functions:                                5
       Number of Cartesian basis functions:                                    5
       Number of spherical basis functions:                                    5
       Norm type:                                                              2

       Normalised Cartesian orbitals:

                        Set   Shell   Orbital            Exponent    Coefficient

                          1       1    2s               10.068468      -0.133023
                                                         2.680223      -0.177618
                                                         0.791502      -0.258419
                                                         0.239116      -0.107525
                                                         0.082193      -0.014019

                          1       2    3s               10.068468       0.344673
                                                         2.680223       1.819821
                                                         0.791502      -0.999069
                                                         0.239116       0.017430
                                                         0.082193       0.082660

                          1       3    3px              10.068468       0.155326
                                                         2.680223       0.367157
                                                         0.791502       0.311480
                                                         0.239116       0.080105
                                                         0.082193       0.033440
                          1       3    3py              10.068468       0.155326
                                                         2.680223       0.367157
                                                         0.791502       0.311480
                                                         0.239116       0.080105
                                                         0.082193       0.033440
                          1       3    3pz              10.068468       0.155326
                                                         2.680223       0.367157
                                                         0.791502       0.311480
                                                         0.239116       0.080105
                                                         0.082193       0.033440

       Atomic covalent radius [Angstrom]:                                  0.320

       Atomic van der Waals radius [Angstrom]:                             1.090

     GTH Potential information for                                   GTH-PADE-q1

       Description:                       Goedecker-Teter-Hutter pseudopotential
                                           Goedecker et al., PRB 54, 1703 (1996)
                                          Hartwigsen et al., PRB 58, 3641 (1998)
                                                      Krack, TCA 114, 145 (2005)

       Gaussian exponent of the core charge distribution:              12.500000
       Electronic configuration (s p d ...):                                   1

       Parameters of the local part of the GTH pseudopotential:

                          rloc        C1          C2          C3          C4
                        0.200000   -4.180237    0.725075


 MOLECULE KIND INFORMATION


 All atoms are their own molecule, skipping detailed information


 TOTAL NUMBERS AND MAXIMUM NUMBERS

  Total number of            - Atomic kinds:                                   4
                             - Atoms:                                        662
                             - Shell sets:                                   662
                             - Shells:                                      2002
                             - Primitive Cartesian functions:               3308
                             - Cartesian basis functions:                   6632
                             - Spherical basis functions:                   5974

  Maximum angular momentum of- Orbital basis functions:                        2
                             - Local part of the GTH pseudopotential:          2
                             - Non-local part of the GTH pseudopotential:      4


 MODULE QUICKSTEP: ATOMIC COORDINATES IN ANGSTROM

   Atom Kind Element         X             Y             Z       Z(eff)     Mass
      1    1 Au   79      0.000000      0.000000      0.000000  11.0000 196.9666
      2    1 Au   79      0.000000      4.146000      0.000000  11.0000 196.9666
      3    1 Au   79      0.000000      8.292000      0.000000  11.0000 196.9666
      4    1 Au   79      0.000000     12.438000      0.000000  11.0000 196.9666
      5    1 Au   79      0.000000     16.584000      0.000000  11.0000 196.9666
      6    1 Au   79      2.073000      2.073000      0.000000  11.0000 196.9666
      7    1 Au   79      2.073000      6.219000      0.000000  11.0000 196.9666
      8    1 Au   79      2.073000     10.365000      0.000000  11.0000 196.9666
      9    1 Au   79      2.073000     14.511000      0.000000  11.0000 196.9666
     10    1 Au   79      2.073000     18.657000      0.000000  11.0000 196.9666
     11    1 Au   79      4.146000      0.000000      0.000000  11.0000 196.9666
     12    1 Au   79      4.146000      4.146000      0.000000  11.0000 196.9666
     13    1 Au   79      4.146000      8.292000      0.000000  11.0000 196.9666
     14    1 Au   79      4.146000     12.438000      0.000000  11.0000 196.9666
     15    1 Au   79      4.146000     16.584000      0.000000  11.0000 196.9666
     16    1 Au   79      6.219000      2.073000      0.000000  11.0000 196.9666
     17    1 Au   79      6.219000      6.219000      0.000000  11.0000 196.9666
     18    1 Au   79      6.219000     10.365000      0.000000  11.0000 196.9666
     19    1 Au   79      6.219000     14.511000      0.000000  11.0000 196.9666
     20    1 Au   79      6.219000     18.657000      0.000000  11.0000 196.9666
     21    1 Au   79      8.292000      0.000000      0.000000  11.0000 196.9666
     22    1 Au   79      8.292000      4.146000      0.000000  11.0000 196.9666
     23    1 Au   79      8.292000      8.292000      0.000000  11.0000 196.9666
     24    1 Au   79      8.292000     12.438000      0.000000  11.0000 196.9666
     25    1 Au   79      8.292000     16.584000      0.000000  11.0000 196.9666
     26    1 Au   79     10.365000      2.073000      0.000000  11.0000 196.9666
     27    1 Au   79     10.365000      6.219000      0.000000  11.0000 196.9666
     28    1 Au   79     10.365000     10.365000      0.000000  11.0000 196.9666
     29    1 Au   79     10.365000     14.511000      0.000000  11.0000 196.9666
     30    1 Au   79     10.365000     18.657000      0.000000  11.0000 196.9666
     31    1 Au   79     12.438000      0.000000      0.000000  11.0000 196.9666
     32    1 Au   79     12.438000      4.146000      0.000000  11.0000 196.9666
     33    1 Au   79     12.438000      8.292000      0.000000  11.0000 196.9666
     34    1 Au   79     12.438000     12.438000      0.000000  11.0000 196.9666
     35    1 Au   79     12.438000     16.584000      0.000000  11.0000 196.9666
     36    1 Au   79     14.511000      2.073000      0.000000  11.0000 196.9666
     37    1 Au   79     14.511000      6.219000      0.000000  11.0000 196.9666
     38    1 Au   79     14.511000     10.365000      0.000000  11.0000 196.9666
     39    1 Au   79     14.511000     14.511000      0.000000  11.0000 196.9666
     40    1 Au   79     14.511000     18.657000      0.000000  11.0000 196.9666
     41    1 Au   79     16.584000      0.000000      0.000000  11.0000 196.9666
     42    1 Au   79     16.584000      4.146000      0.000000  11.0000 196.9666
     43    1 Au   79     16.584000      8.292000      0.000000  11.0000 196.9666
     44    1 Au   79     16.584000     12.438000      0.000000  11.0000 196.9666
     45    1 Au   79     16.584000     16.584000      0.000000  11.0000 196.9666
     46    1 Au   79     18.657000      2.073000      0.000000  11.0000 196.9666
     47    1 Au   79     18.657000      6.219000      0.000000  11.0000 196.9666
     48    1 Au   79     18.657000     10.365000      0.000000  11.0000 196.9666
     49    1 Au   79     18.657000     14.511000      0.000000  11.0000 196.9666
     50    1 Au   79     18.657000     18.657000      0.000000  11.0000 196.9666
     51    1 Au   79      0.000000      2.073000      2.073000  11.0000 196.9666
     52    1 Au   79      0.000000      6.219000      2.073000  11.0000 196.9666
     53    1 Au   79      0.000000     10.365000      2.073000  11.0000 196.9666
     54    1 Au   79      0.000000     14.511000      2.073000  11.0000 196.9666
     55    1 Au   79      0.000000     18.657000      2.073000  11.0000 196.9666
     56    1 Au   79      2.073000      0.000000      2.073000  11.0000 196.9666
     57    1 Au   79      2.073000      4.146000      2.073000  11.0000 196.9666
     58    1 Au   79      2.073000      8.292000      2.073000  11.0000 196.9666
     59    1 Au   79      2.073000     12.438000      2.073000  11.0000 196.9666
     60    1 Au   79      2.073000     16.584000      2.073000  11.0000 196.9666
     61    1 Au   79      4.146000      2.073000      2.073000  11.0000 196.9666
     62    1 Au   79      4.146000      6.219000      2.073000  11.0000 196.9666
     63    1 Au   79      4.146000     10.365000      2.073000  11.0000 196.9666
     64    1 Au   79      4.146000     14.511000      2.073000  11.0000 196.9666
     65    1 Au   79      4.146000     18.657000      2.073000  11.0000 196.9666
     66    1 Au   79      6.219000      0.000000      2.073000  11.0000 196.9666
     67    1 Au   79      6.219000      4.146000      2.073000  11.0000 196.9666
     68    1 Au   79      6.219000      8.292000      2.073000  11.0000 196.9666
     69    1 Au   79      6.219000     12.438000      2.073000  11.0000 196.9666
     70    1 Au   79      6.219000     16.584000      2.073000  11.0000 196.9666
     71    1 Au   79      8.292000      2.073000      2.073000  11.0000 196.9666
     72    1 Au   79      8.292000      6.219000      2.073000  11.0000 196.9666
     73    1 Au   79      8.292000     10.365000      2.073000  11.0000 196.9666
     74    1 Au   79      8.292000     14.511000      2.073000  11.0000 196.9666
     75    1 Au   79      8.292000     18.657000      2.073000  11.0000 196.9666
     76    1 Au   79     10.365000      0.000000      2.073000  11.0000 196.9666
     77    1 Au   79     10.365000      4.146000      2.073000  11.0000 196.9666
     78    1 Au   79     10.365000      8.292000      2.073000  11.0000 196.9666
     79    1 Au   79     10.365000     12.438000      2.073000  11.0000 196.9666
     80    1 Au   79     10.365000     16.584000      2.073000  11.0000 196.9666
     81    1 Au   79     12.438000      2.073000      2.073000  11.0000 196.9666
     82    1 Au   79     12.438000      6.219000      2.073000  11.0000 196.9666
     83    1 Au   79     12.438000     10.365000      2.073000  11.0000 196.9666
     84    1 Au   79     12.438000     14.511000      2.073000  11.0000 196.9666
     85    1 Au   79     12.438000     18.657000      2.073000  11.0000 196.9666
     86    1 Au   79     14.511000      0.000000      2.073000  11.0000 196.9666
     87    1 Au   79     14.511000      4.146000      2.073000  11.0000 196.9666
     88    1 Au   79     14.511000      8.292000      2.073000  11.0000 196.9666
     89    1 Au   79     14.511000     12.438000      2.073000  11.0000 196.9666
     90    1 Au   79     14.511000     16.584000      2.073000  11.0000 196.9666
     91    1 Au   79     16.584000      2.073000      2.073000  11.0000 196.9666
     92    1 Au   79     16.584000      6.219000      2.073000  11.0000 196.9666
     93    1 Au   79     16.584000     10.365000      2.073000  11.0000 196.9666
     94    1 Au   79     16.584000     14.511000      2.073000  11.0000 196.9666
     95    1 Au   79     16.584000     18.657000      2.073000  11.0000 196.9666
     96    1 Au   79     18.657000      0.000000      2.073000  11.0000 196.9666
     97    1 Au   79     18.657000      4.146000      2.073000  11.0000 196.9666
     98    1 Au   79     18.657000      8.292000      2.073000  11.0000 196.9666
     99    1 Au   79     18.657000     12.438000      2.073000  11.0000 196.9666
    100    1 Au   79     18.657000     16.584000      2.073000  11.0000 196.9666
    101    1 Au   79      0.000000      0.000000      4.146000  11.0000 196.9666
    102    1 Au   79      0.000000      4.146000      4.146000  11.0000 196.9666
    103    1 Au   79      0.000000      8.292000      4.146000  11.0000 196.9666
    104    1 Au   79      0.000000     12.438000      4.146000  11.0000 196.9666
    105    1 Au   79      0.000000     16.584000      4.146000  11.0000 196.9666
    106    1 Au   79      2.073000      2.073000      4.146000  11.0000 196.9666
    107    1 Au   79      2.073000      6.219000      4.146000  11.0000 196.9666
    108    1 Au   79      2.073000     10.365000      4.146000  11.0000 196.9666
    109    1 Au   79      2.073000     14.511000      4.146000  11.0000 196.9666
    110    1 Au   79      2.073000     18.657000      4.146000  11.0000 196.9666
    111    1 Au   79      4.146000      0.000000      4.146000  11.0000 196.9666
    112    1 Au   79      4.146000      4.146000      4.146000  11.0000 196.9666
    113    1 Au   79      4.146000      8.292000      4.146000  11.0000 196.9666
    114    1 Au   79      4.146000     12.438000      4.146000  11.0000 196.9666
    115    1 Au   79      4.146000     16.584000      4.146000  11.0000 196.9666
    116    1 Au   79      6.219000      2.073000      4.146000  11.0000 196.9666
    117    1 Au   79      6.219000      6.219000      4.146000  11.0000 196.9666
    118    1 Au   79      6.219000     10.365000      4.146000  11.0000 196.9666
    119    1 Au   79      6.219000     14.511000      4.146000  11.0000 196.9666
    120    1 Au   79      6.219000     18.657000      4.146000  11.0000 196.9666
    121    1 Au   79      8.292000      0.000000      4.146000  11.0000 196.9666
    122    1 Au   79      8.292000      4.146000      4.146000  11.0000 196.9666
    123    1 Au   79      8.292000      8.292000      4.146000  11.0000 196.9666
    124    1 Au   79      8.292000     12.438000      4.146000  11.0000 196.9666
    125    1 Au   79      8.292000     16.584000      4.146000  11.0000 196.9666
    126    1 Au   79     10.365000      2.073000      4.146000  11.0000 196.9666
    127    1 Au   79     10.365000      6.219000      4.146000  11.0000 196.9666
    128    1 Au   79     10.365000     10.365000      4.146000  11.0000 196.9666
    129    1 Au   79     10.365000     14.511000      4.146000  11.0000 196.9666
    130    1 Au   79     10.365000     18.657000      4.146000  11.0000 196.9666
    131    1 Au   79     12.438000      0.000000      4.146000  11.0000 196.9666
    132    1 Au   79     12.438000      4.146000      4.146000  11.0000 196.9666
    133    1 Au   79     12.438000      8.292000      4.146000  11.0000 196.9666
    134    1 Au   79     12.438000     12.438000      4.146000  11.0000 196.9666
    135    1 Au   79     12.438000     16.584000      4.146000  11.0000 196.9666
    136    1 Au   79     14.511000      2.073000      4.146000  11.0000 196.9666
    137    1 Au   79     14.511000      6.219000      4.146000  11.0000 196.9666
    138    1 Au   79     14.511000     10.365000      4.146000  11.0000 196.9666
    139    1 Au   79     14.511000     14.511000      4.146000  11.0000 196.9666
    140    1 Au   79     14.511000     18.657000      4.146000  11.0000 196.9666
    141    1 Au   79     16.584000      0.000000      4.146000  11.0000 196.9666
    142    1 Au   79     16.584000      4.146000      4.146000  11.0000 196.9666
    143    1 Au   79     16.584000      8.292000      4.146000  11.0000 196.9666
    144    1 Au   79     16.584000     12.438000      4.146000  11.0000 196.9666
    145    1 Au   79     16.584000     16.584000      4.146000  11.0000 196.9666
    146    1 Au   79     18.657000      2.073000      4.146000  11.0000 196.9666
    147    1 Au   79     18.657000      6.219000      4.146000  11.0000 196.9666
    148    1 Au   79     18.657000     10.365000      4.146000  11.0000 196.9666
    149    1 Au   79     18.657000     14.511000      4.146000  11.0000 196.9666
    150    1 Au   79     18.657000     18.657000      4.146000  11.0000 196.9666
    151    1 Au   79      0.000000      2.073000      6.219000  11.0000 196.9666
    152    1 Au   79      0.000000      6.219000      6.219000  11.0000 196.9666
    153    1 Au   79      0.000000     10.365000      6.219000  11.0000 196.9666
    154    1 Au   79      0.000000     14.511000      6.219000  11.0000 196.9666
    155    1 Au   79      0.000000     18.657000      6.219000  11.0000 196.9666
    156    1 Au   79      2.073000      0.000000      6.219000  11.0000 196.9666
    157    1 Au   79      2.073000      4.146000      6.219000  11.0000 196.9666
    158    1 Au   79      2.073000      8.292000      6.219000  11.0000 196.9666
    159    1 Au   79      2.073000     12.438000      6.219000  11.0000 196.9666
    160    1 Au   79      2.073000     16.584000      6.219000  11.0000 196.9666
    161    1 Au   79      4.146000      2.073000      6.219000  11.0000 196.9666
    162    1 Au   79      4.146000      6.219000      6.219000  11.0000 196.9666
    163    1 Au   79      4.146000     10.365000      6.219000  11.0000 196.9666
    164    1 Au   79      4.146000     14.511000      6.219000  11.0000 196.9666
    165    1 Au   79      4.146000     18.657000      6.219000  11.0000 196.9666
    166    1 Au   79      6.219000      0.000000      6.219000  11.0000 196.9666
    167    1 Au   79      6.219000      4.146000      6.219000  11.0000 196.9666
    168    1 Au   79      6.219000      8.292000      6.219000  11.0000 196.9666
    169    1 Au   79      6.219000     12.438000      6.219000  11.0000 196.9666
    170    1 Au   79      6.219000     16.584000      6.219000  11.0000 196.9666
    171    1 Au   79      8.292000      2.073000      6.219000  11.0000 196.9666
    172    1 Au   79      8.292000      6.219000      6.219000  11.0000 196.9666
    173    1 Au   79      8.292000     10.365000      6.219000  11.0000 196.9666
    174    1 Au   79      8.292000     14.511000      6.219000  11.0000 196.9666
    175    1 Au   79      8.292000     18.657000      6.219000  11.0000 196.9666
    176    1 Au   79     10.365000      0.000000      6.219000  11.0000 196.9666
    177    1 Au   79     10.365000      4.146000      6.219000  11.0000 196.9666
    178    1 Au   79     10.365000      8.292000      6.219000  11.0000 196.9666
    179    1 Au   79     10.365000     12.438000      6.219000  11.0000 196.9666
    180    1 Au   79     10.365000     16.584000      6.219000  11.0000 196.9666
    181    1 Au   79     12.438000      2.073000      6.219000  11.0000 196.9666
    182    1 Au   79     12.438000      6.219000      6.219000  11.0000 196.9666
    183    1 Au   79     12.438000     10.365000      6.219000  11.0000 196.9666
    184    1 Au   79     12.438000     14.511000      6.219000  11.0000 196.9666
    185    1 Au   79     12.438000     18.657000      6.219000  11.0000 196.9666
    186    1 Au   79     14.511000      0.000000      6.219000  11.0000 196.9666
    187    1 Au   79     14.511000      4.146000      6.219000  11.0000 196.9666
    188    1 Au   79     14.511000      8.292000      6.219000  11.0000 196.9666
    189    1 Au   79     14.511000     12.438000      6.219000  11.0000 196.9666
    190    1 Au   79     14.511000     16.584000      6.219000  11.0000 196.9666
    191    1 Au   79     16.584000      2.073000      6.219000  11.0000 196.9666
    192    1 Au   79     16.584000      6.219000      6.219000  11.0000 196.9666
    193    1 Au   79     16.584000     10.365000      6.219000  11.0000 196.9666
    194    1 Au   79     16.584000     14.511000      6.219000  11.0000 196.9666
    195    1 Au   79     16.584000     18.657000      6.219000  11.0000 196.9666
    196    1 Au   79     18.657000      0.000000      6.219000  11.0000 196.9666
    197    1 Au   79     18.657000      4.146000      6.219000  11.0000 196.9666
    198    1 Au   79     18.657000      8.292000      6.219000  11.0000 196.9666
    199    1 Au   79     18.657000     12.438000      6.219000  11.0000 196.9666
    200    1 Au   79     18.657000     16.584000      6.219000  11.0000 196.9666
    201    1 Au   79      0.000000      0.000000      8.292000  11.0000 196.9666
    202    1 Au   79      0.000000      4.146000      8.292000  11.0000 196.9666
    203    1 Au   79      0.000000      8.292000      8.292000  11.0000 196.9666
    204    1 Au   79      0.000000     12.438000      8.292000  11.0000 196.9666
    205    1 Au   79      0.000000     16.584000      8.292000  11.0000 196.9666
    206    1 Au   79      2.073000      2.073000      8.292000  11.0000 196.9666
    207    1 Au   79      2.073000      6.219000      8.292000  11.0000 196.9666
    208    1 Au   79      2.073000     10.365000      8.292000  11.0000 196.9666
    209    1 Au   79      2.073000     14.511000      8.292000  11.0000 196.9666
    210    1 Au   79      2.073000     18.657000      8.292000  11.0000 196.9666
    211    1 Au   79      4.146000      0.000000      8.292000  11.0000 196.9666
    212    1 Au   79      4.146000      4.146000      8.292000  11.0000 196.9666
    213    1 Au   79      4.146000      8.292000      8.292000  11.0000 196.9666
    214    1 Au   79      4.146000     12.438000      8.292000  11.0000 196.9666
    215    1 Au   79      4.146000     16.584000      8.292000  11.0000 196.9666
    216    1 Au   79      6.219000      2.073000      8.292000  11.0000 196.9666
    217    1 Au   79      6.219000      6.219000      8.292000  11.0000 196.9666
    218    1 Au   79      6.219000     10.365000      8.292000  11.0000 196.9666
    219    1 Au   79      6.219000     14.511000      8.292000  11.0000 196.9666
    220    1 Au   79      6.219000     18.657000      8.292000  11.0000 196.9666
    221    1 Au   79      8.292000      0.000000      8.292000  11.0000 196.9666
    222    1 Au   79      8.292000      4.146000      8.292000  11.0000 196.9666
    223    1 Au   79      8.292000      8.292000      8.292000  11.0000 196.9666
    224    1 Au   79      8.292000     12.438000      8.292000  11.0000 196.9666
    225    1 Au   79      8.292000     16.584000      8.292000  11.0000 196.9666
    226    1 Au   79     10.365000      2.073000      8.292000  11.0000 196.9666
    227    1 Au   79     10.365000      6.219000      8.292000  11.0000 196.9666
    228    1 Au   79     10.365000     10.365000      8.292000  11.0000 196.9666
    229    1 Au   79     10.365000     14.511000      8.292000  11.0000 196.9666
    230    1 Au   79     10.365000     18.657000      8.292000  11.0000 196.9666
    231    1 Au   79     12.438000      0.000000      8.292000  11.0000 196.9666
    232    1 Au   79     12.438000      4.146000      8.292000  11.0000 196.9666
    233    1 Au   79     12.438000      8.292000      8.292000  11.0000 196.9666
    234    1 Au   79     12.438000     12.438000      8.292000  11.0000 196.9666
    235    1 Au   79     12.438000     16.584000      8.292000  11.0000 196.9666
    236    1 Au   79     14.511000      2.073000      8.292000  11.0000 196.9666
    237    1 Au   79     14.511000      6.219000      8.292000  11.0000 196.9666
    238    1 Au   79     14.511000     10.365000      8.292000  11.0000 196.9666
    239    1 Au   79     14.511000     14.511000      8.292000  11.0000 196.9666
    240    1 Au   79     14.511000     18.657000      8.292000  11.0000 196.9666
    241    1 Au   79     16.584000      0.000000      8.292000  11.0000 196.9666
    242    1 Au   79     16.584000      4.146000      8.292000  11.0000 196.9666
    243    1 Au   79     16.584000      8.292000      8.292000  11.0000 196.9666
    244    1 Au   79     16.584000     12.438000      8.292000  11.0000 196.9666
    245    1 Au   79     16.584000     16.584000      8.292000  11.0000 196.9666
    246    1 Au   79     18.657000      2.073000      8.292000  11.0000 196.9666
    247    1 Au   79     18.657000      6.219000      8.292000  11.0000 196.9666
    248    1 Au   79     18.657000     10.365000      8.292000  11.0000 196.9666
    249    1 Au   79     18.657000     14.511000      8.292000  11.0000 196.9666
    250    1 Au   79     18.657000     18.657000      8.292000  11.0000 196.9666
    251    1 Au   79      0.000000      2.073000     10.365000  11.0000 196.9666
    252    1 Au   79      0.000000      6.219000     10.365000  11.0000 196.9666
    253    1 Au   79      0.000000     10.365000     10.365000  11.0000 196.9666
    254    1 Au   79      0.000000     14.511000     10.365000  11.0000 196.9666
    255    1 Au   79      0.000000     18.657000     10.365000  11.0000 196.9666
    256    1 Au   79      2.073000      0.000000     10.365000  11.0000 196.9666
    257    1 Au   79      2.073000      4.146000     10.365000  11.0000 196.9666
    258    1 Au   79      2.073000      8.292000     10.365000  11.0000 196.9666
    259    1 Au   79      2.073000     12.438000     10.365000  11.0000 196.9666
    260    1 Au   79      2.073000     16.584000     10.365000  11.0000 196.9666
    261    1 Au   79      4.146000      2.073000     10.365000  11.0000 196.9666
    262    1 Au   79      4.146000      6.219000     10.365000  11.0000 196.9666
    263    1 Au   79      4.146000     10.365000     10.365000  11.0000 196.9666
    264    1 Au   79      4.146000     14.511000     10.365000  11.0000 196.9666
    265    1 Au   79      4.146000     18.657000     10.365000  11.0000 196.9666
    266    1 Au   79      6.219000      0.000000     10.365000  11.0000 196.9666
    267    1 Au   79      6.219000      4.146000     10.365000  11.0000 196.9666
    268    1 Au   79      6.219000      8.292000     10.365000  11.0000 196.9666
    269    1 Au   79      6.219000     12.438000     10.365000  11.0000 196.9666
    270    1 Au   79      6.219000     16.584000     10.365000  11.0000 196.9666
    271    1 Au   79      8.292000      2.073000     10.365000  11.0000 196.9666
    272    1 Au   79      8.292000      6.219000     10.365000  11.0000 196.9666
    273    1 Au   79      8.292000     10.365000     10.365000  11.0000 196.9666
    274    1 Au   79      8.292000     14.511000     10.365000  11.0000 196.9666
    275    1 Au   79      8.292000     18.657000     10.365000  11.0000 196.9666
    276    1 Au   79     10.365000      0.000000     10.365000  11.0000 196.9666
    277    1 Au   79     10.365000      4.146000     10.365000  11.0000 196.9666
    278    1 Au   79     10.365000      8.292000     10.365000  11.0000 196.9666
    279    1 Au   79     10.365000     12.438000     10.365000  11.0000 196.9666
    280    1 Au   79     10.365000     16.584000     10.365000  11.0000 196.9666
    281    1 Au   79     12.438000      2.073000     10.365000  11.0000 196.9666
    282    1 Au   79     12.438000      6.219000     10.365000  11.0000 196.9666
    283    1 Au   79     12.438000     10.365000     10.365000  11.0000 196.9666
    284    1 Au   79     12.438000     14.511000     10.365000  11.0000 196.9666
    285    1 Au   79     12.438000     18.657000     10.365000  11.0000 196.9666
    286    1 Au   79     14.511000      0.000000     10.365000  11.0000 196.9666
    287    1 Au   79     14.511000      4.146000     10.365000  11.0000 196.9666
    288    1 Au   79     14.511000      8.292000     10.365000  11.0000 196.9666
    289    1 Au   79     14.511000     12.438000     10.365000  11.0000 196.9666
    290    1 Au   79     14.511000     16.584000     10.365000  11.0000 196.9666
    291    1 Au   79     16.584000      2.073000     10.365000  11.0000 196.9666
    292    1 Au   79     16.584000      6.219000     10.365000  11.0000 196.9666
    293    1 Au   79     16.584000     10.365000     10.365000  11.0000 196.9666
    294    1 Au   79     16.584000     14.511000     10.365000  11.0000 196.9666
    295    1 Au   79     16.584000     18.657000     10.365000  11.0000 196.9666
    296    1 Au   79     18.657000      0.000000     10.365000  11.0000 196.9666
    297    1 Au   79     18.657000      4.146000     10.365000  11.0000 196.9666
    298    1 Au   79     18.657000      8.292000     10.365000  11.0000 196.9666
    299    1 Au   79     18.657000     12.438000     10.365000  11.0000 196.9666
    300    1 Au   79     18.657000     16.584000     10.365000  11.0000 196.9666
    301    1 Au   79      0.000000      0.000000     12.438000  11.0000 196.9666
    302    1 Au   79      0.000000      4.146000     12.438000  11.0000 196.9666
    303    1 Au   79      0.000000      8.292000     12.438000  11.0000 196.9666
    304    1 Au   79      0.000000     12.438000     12.438000  11.0000 196.9666
    305    1 Au   79      0.000000     16.584000     12.438000  11.0000 196.9666
    306    1 Au   79      2.073000      2.073000     12.438000  11.0000 196.9666
    307    1 Au   79      2.073000      6.219000     12.438000  11.0000 196.9666
    308    1 Au   79      2.073000     10.365000     12.438000  11.0000 196.9666
    309    1 Au   79      2.073000     14.511000     12.438000  11.0000 196.9666
    310    1 Au   79      2.073000     18.657000     12.438000  11.0000 196.9666
    311    1 Au   79      4.146000      0.000000     12.438000  11.0000 196.9666
    312    1 Au   79      4.146000      4.146000     12.438000  11.0000 196.9666
    313    1 Au   79      4.146000      8.292000     12.438000  11.0000 196.9666
    314    1 Au   79      4.146000     12.438000     12.438000  11.0000 196.9666
    315    1 Au   79      4.146000     16.584000     12.438000  11.0000 196.9666
    316    1 Au   79      6.219000      2.073000     12.438000  11.0000 196.9666
    317    1 Au   79      6.219000      6.219000     12.438000  11.0000 196.9666
    318    1 Au   79      6.219000     10.365000     12.438000  11.0000 196.9666
    319    1 Au   79      6.219000     14.511000     12.438000  11.0000 196.9666
    320    1 Au   79      6.219000     18.657000     12.438000  11.0000 196.9666
    321    1 Au   79      8.292000      0.000000     12.438000  11.0000 196.9666
    322    1 Au   79      8.292000      4.146000     12.438000  11.0000 196.9666
    323    1 Au   79      8.292000      8.292000     12.438000  11.0000 196.9666
    324    1 Au   79      8.292000     12.438000     12.438000  11.0000 196.9666
    325    1 Au   79      8.292000     16.584000     12.438000  11.0000 196.9666
    326    1 Au   79     10.365000      2.073000     12.438000  11.0000 196.9666
    327    1 Au   79     10.365000      6.219000     12.438000  11.0000 196.9666
    328    1 Au   79     10.365000     10.365000     12.438000  11.0000 196.9666
    329    1 Au   79     10.365000     14.511000     12.438000  11.0000 196.9666
    330    1 Au   79     10.365000     18.657000     12.438000  11.0000 196.9666
    331    1 Au   79     12.438000      0.000000     12.438000  11.0000 196.9666
    332    1 Au   79     12.438000      4.146000     12.438000  11.0000 196.9666
    333    1 Au   79     12.438000      8.292000     12.438000  11.0000 196.9666
    334    1 Au   79     12.438000     12.438000     12.438000  11.0000 196.9666
    335    1 Au   79     12.438000     16.584000     12.438000  11.0000 196.9666
    336    1 Au   79     14.511000      2.073000     12.438000  11.0000 196.9666
    337    1 Au   79     14.511000      6.219000     12.438000  11.0000 196.9666
    338    1 Au   79     14.511000     10.365000     12.438000  11.0000 196.9666
    339    1 Au   79     14.511000     14.511000     12.438000  11.0000 196.9666
    340    1 Au   79     14.511000     18.657000     12.438000  11.0000 196.9666
    341    1 Au   79     16.584000      0.000000     12.438000  11.0000 196.9666
    342    1 Au   79     16.584000      4.146000     12.438000  11.0000 196.9666
    343    1 Au   79     16.584000      8.292000     12.438000  11.0000 196.9666
    344    1 Au   79     16.584000     12.438000     12.438000  11.0000 196.9666
    345    1 Au   79     16.584000     16.584000     12.438000  11.0000 196.9666
    346    1 Au   79     18.657000      2.073000     12.438000  11.0000 196.9666
    347    1 Au   79     18.657000      6.219000     12.438000  11.0000 196.9666
    348    1 Au   79     18.657000     10.365000     12.438000  11.0000 196.9666
    349    1 Au   79     18.657000     14.511000     12.438000  11.0000 196.9666
    350    1 Au   79     18.657000     18.657000     12.438000  11.0000 196.9666
    351    2 S    16      4.146000      2.073000     14.089000   6.0000  32.0650
    352    3 C     6      4.149000      2.077000     15.850000   4.0000  12.0107
    353    4 H     1      2.047000      2.103000     16.033000   1.0000   1.0079
    354    4 H     1      6.244000      2.103000     16.039000   1.0000   1.0079
    355    3 C     6      2.940000      2.083000     16.551000   4.0000  12.0107
    356    3 C     6      5.348000      2.083000     16.551000   4.0000  12.0107
    357    3 C     6      2.933000      2.061000     17.974000   4.0000  12.0107
    358    3 C     6      5.341000      2.061000     17.974000   4.0000  12.0107
    359    4 H     1      2.037000      2.041000     18.485000   1.0000   1.0079
    360    4 H     1      6.234000      2.041000     18.491000   1.0000   1.0079
    361    3 C     6      4.132000      2.067000     18.674000   4.0000  12.0107
    362    2 S    16      4.146000      2.073000     20.436000   6.0000  32.0650
    363    1 Au   79      0.000000      0.000000     22.086000  11.0000 196.9666
    364    1 Au   79      0.000000      4.146000     22.086000  11.0000 196.9666
    365    1 Au   79      0.000000      8.292000     22.086000  11.0000 196.9666
    366    1 Au   79      0.000000     12.438000     22.086000  11.0000 196.9666
    367    1 Au   79      0.000000     16.584000     22.086000  11.0000 196.9666
    368    1 Au   79      2.073000      2.073000     22.086000  11.0000 196.9666
    369    1 Au   79      2.073000      6.219000     22.086000  11.0000 196.9666
    370    1 Au   79      2.073000     10.365000     22.086000  11.0000 196.9666
    371    1 Au   79      2.073000     14.511000     22.086000  11.0000 196.9666
    372    1 Au   79      2.073000     18.657000     22.086000  11.0000 196.9666
    373    1 Au   79      4.146000      0.000000     22.086000  11.0000 196.9666
    374    1 Au   79      4.146000      4.146000     22.086000  11.0000 196.9666
    375    1 Au   79      4.146000      8.292000     22.086000  11.0000 196.9666
    376    1 Au   79      4.146000     12.438000     22.086000  11.0000 196.9666
    377    1 Au   79      4.146000     16.584000     22.086000  11.0000 196.9666
    378    1 Au   79      6.219000      2.073000     22.086000  11.0000 196.9666
    379    1 Au   79      6.219000      6.219000     22.086000  11.0000 196.9666
    380    1 Au   79      6.219000     10.365000     22.086000  11.0000 196.9666
    381    1 Au   79      6.219000     14.511000     22.086000  11.0000 196.9666
    382    1 Au   79      6.219000     18.657000     22.086000  11.0000 196.9666
    383    1 Au   79      8.292000      0.000000     22.086000  11.0000 196.9666
    384    1 Au   79      8.292000      4.146000     22.086000  11.0000 196.9666
    385    1 Au   79      8.292000      8.292000     22.086000  11.0000 196.9666
    386    1 Au   79      8.292000     12.438000     22.086000  11.0000 196.9666
    387    1 Au   79      8.292000     16.584000     22.086000  11.0000 196.9666
    388    1 Au   79     10.365000      2.073000     22.086000  11.0000 196.9666
    389    1 Au   79     10.365000      6.219000     22.086000  11.0000 196.9666
    390    1 Au   79     10.365000     10.365000     22.086000  11.0000 196.9666
    391    1 Au   79     10.365000     14.511000     22.086000  11.0000 196.9666
    392    1 Au   79     10.365000     18.657000     22.086000  11.0000 196.9666
    393    1 Au   79     12.438000      0.000000     22.086000  11.0000 196.9666
    394    1 Au   79     12.438000      4.146000     22.086000  11.0000 196.9666
    395    1 Au   79     12.438000      8.292000     22.086000  11.0000 196.9666
    396    1 Au   79     12.438000     12.438000     22.086000  11.0000 196.9666
    397    1 Au   79     12.438000     16.584000     22.086000  11.0000 196.9666
    398    1 Au   79     14.511000      2.073000     22.086000  11.0000 196.9666
    399    1 Au   79     14.511000      6.219000     22.086000  11.0000 196.9666
    400    1 Au   79     14.511000     10.365000     22.086000  11.0000 196.9666
    401    1 Au   79     14.511000     14.511000     22.086000  11.0000 196.9666
    402    1 Au   79     14.511000     18.657000     22.086000  11.0000 196.9666
    403    1 Au   79     16.584000      0.000000     22.086000  11.0000 196.9666
    404    1 Au   79     16.584000      4.146000     22.086000  11.0000 196.9666
    405    1 Au   79     16.584000      8.292000     22.086000  11.0000 196.9666
    406    1 Au   79     16.584000     12.438000     22.086000  11.0000 196.9666
    407    1 Au   79     16.584000     16.584000     22.086000  11.0000 196.9666
    408    1 Au   79     18.657000      2.073000     22.086000  11.0000 196.9666
    409    1 Au   79     18.657000      6.219000     22.086000  11.0000 196.9666
    410    1 Au   79     18.657000     10.365000     22.086000  11.0000 196.9666
    411    1 Au   79     18.657000     14.511000     22.086000  11.0000 196.9666
    412    1 Au   79     18.657000     18.657000     22.086000  11.0000 196.9666
    413    1 Au   79      0.000000      2.073000     24.159000  11.0000 196.9666
    414    1 Au   79      0.000000      6.219000     24.159000  11.0000 196.9666
    415    1 Au   79      0.000000     10.365000     24.159000  11.0000 196.9666
    416    1 Au   79      0.000000     14.511000     24.159000  11.0000 196.9666
    417    1 Au   79      0.000000     18.657000     24.159000  11.0000 196.9666
    418    1 Au   79      2.073000      0.000000     24.159000  11.0000 196.9666
    419    1 Au   79      2.073000      4.146000     24.159000  11.0000 196.9666
    420    1 Au   79      2.073000      8.292000     24.159000  11.0000 196.9666
    421    1 Au   79      2.073000     12.438000     24.159000  11.0000 196.9666
    422    1 Au   79      2.073000     16.584000     24.159000  11.0000 196.9666
    423    1 Au   79      4.146000      2.073000     24.159000  11.0000 196.9666
    424    1 Au   79      4.146000      6.219000     24.159000  11.0000 196.9666
    425    1 Au   79      4.146000     10.365000     24.159000  11.0000 196.9666
    426    1 Au   79      4.146000     14.511000     24.159000  11.0000 196.9666
    427    1 Au   79      4.146000     18.657000     24.159000  11.0000 196.9666
    428    1 Au   79      6.219000      0.000000     24.159000  11.0000 196.9666
    429    1 Au   79      6.219000      4.146000     24.159000  11.0000 196.9666
    430    1 Au   79      6.219000      8.292000     24.159000  11.0000 196.9666
    431    1 Au   79      6.219000     12.438000     24.159000  11.0000 196.9666
    432    1 Au   79      6.219000     16.584000     24.159000  11.0000 196.9666
    433    1 Au   79      8.292000      2.073000     24.159000  11.0000 196.9666
    434    1 Au   79      8.292000      6.219000     24.159000  11.0000 196.9666
    435    1 Au   79      8.292000     10.365000     24.159000  11.0000 196.9666
    436    1 Au   79      8.292000     14.511000     24.159000  11.0000 196.9666
    437    1 Au   79      8.292000     18.657000     24.159000  11.0000 196.9666
    438    1 Au   79     10.365000      0.000000     24.159000  11.0000 196.9666
    439    1 Au   79     10.365000      4.146000     24.159000  11.0000 196.9666
    440    1 Au   79     10.365000      8.292000     24.159000  11.0000 196.9666
    441    1 Au   79     10.365000     12.438000     24.159000  11.0000 196.9666
    442    1 Au   79     10.365000     16.584000     24.159000  11.0000 196.9666
    443    1 Au   79     12.438000      2.073000     24.159000  11.0000 196.9666
    444    1 Au   79     12.438000      6.219000     24.159000  11.0000 196.9666
    445    1 Au   79     12.438000     10.365000     24.159000  11.0000 196.9666
    446    1 Au   79     12.438000     14.511000     24.159000  11.0000 196.9666
    447    1 Au   79     12.438000     18.657000     24.159000  11.0000 196.9666
    448    1 Au   79     14.511000      0.000000     24.159000  11.0000 196.9666
    449    1 Au   79     14.511000      4.146000     24.159000  11.0000 196.9666
    450    1 Au   79     14.511000      8.292000     24.159000  11.0000 196.9666
    451    1 Au   79     14.511000     12.438000     24.159000  11.0000 196.9666
    452    1 Au   79     14.511000     16.584000     24.159000  11.0000 196.9666
    453    1 Au   79     16.584000      2.073000     24.159000  11.0000 196.9666
    454    1 Au   79     16.584000      6.219000     24.159000  11.0000 196.9666
    455    1 Au   79     16.584000     10.365000     24.159000  11.0000 196.9666
    456    1 Au   79     16.584000     14.511000     24.159000  11.0000 196.9666
    457    1 Au   79     16.584000     18.657000     24.159000  11.0000 196.9666
    458    1 Au   79     18.657000      0.000000     24.159000  11.0000 196.9666
    459    1 Au   79     18.657000      4.146000     24.159000  11.0000 196.9666
    460    1 Au   79     18.657000      8.292000     24.159000  11.0000 196.9666
    461    1 Au   79     18.657000     12.438000     24.159000  11.0000 196.9666
    462    1 Au   79     18.657000     16.584000     24.159000  11.0000 196.9666
    463    1 Au   79      0.000000      0.000000     26.232000  11.0000 196.9666
    464    1 Au   79      0.000000      4.146000     26.232000  11.0000 196.9666
    465    1 Au   79      0.000000      8.292000     26.232000  11.0000 196.9666
    466    1 Au   79      0.000000     12.438000     26.232000  11.0000 196.9666
    467    1 Au   79      0.000000     16.584000     26.232000  11.0000 196.9666
    468    1 Au   79      2.073000      2.073000     26.232000  11.0000 196.9666
    469    1 Au   79      2.073000      6.219000     26.232000  11.0000 196.9666
    470    1 Au   79      2.073000     10.365000     26.232000  11.0000 196.9666
    471    1 Au   79      2.073000     14.511000     26.232000  11.0000 196.9666
    472    1 Au   79      2.073000     18.657000     26.232000  11.0000 196.9666
    473    1 Au   79      4.146000      0.000000     26.232000  11.0000 196.9666
    474    1 Au   79      4.146000      4.146000     26.232000  11.0000 196.9666
    475    1 Au   79      4.146000      8.292000     26.232000  11.0000 196.9666
    476    1 Au   79      4.146000     12.438000     26.232000  11.0000 196.9666
    477    1 Au   79      4.146000     16.584000     26.232000  11.0000 196.9666
    478    1 Au   79      6.219000      2.073000     26.232000  11.0000 196.9666
    479    1 Au   79      6.219000      6.219000     26.232000  11.0000 196.9666
    480    1 Au   79      6.219000     10.365000     26.232000  11.0000 196.9666
    481    1 Au   79      6.219000     14.511000     26.232000  11.0000 196.9666
    482    1 Au   79      6.219000     18.657000     26.232000  11.0000 196.9666
[...]
    585       Au     1      11.000         10.998                         0.002
    586       Au     1      11.000         10.997                         0.003
    587       Au     1      11.000         10.998                         0.002
    588       Au     1      11.000         10.997                         0.003
    589       Au     1      11.000         10.997                         0.003
    590       Au     1      11.000         10.997                         0.003
    591       Au     1      11.000         10.997                         0.003
    592       Au     1      11.000         10.997                         0.003
    593       Au     1      11.000         10.998                         0.002
    594       Au     1      11.000         10.998                         0.002
    595       Au     1      11.000         10.997                         0.003
    596       Au     1      11.000         10.997                         0.003
    597       Au     1      11.000         10.997                         0.003
    598       Au     1      11.000         10.996                         0.004
    599       Au     1      11.000         10.997                         0.003
    600       Au     1      11.000         10.997                         0.003
    601       Au     1      11.000         10.997                         0.003
    602       Au     1      11.000         10.997                         0.003
    603       Au     1      11.000         10.998                         0.002
    604       Au     1      11.000         10.998                         0.002
    605       Au     1      11.000         10.997                         0.003
    606       Au     1      11.000         10.997                         0.003
    607       Au     1      11.000         10.997                         0.003
    608       Au     1      11.000         10.997                         0.003
    609       Au     1      11.000         10.997                         0.003
    610       Au     1      11.000         10.997                         0.003
    611       Au     1      11.000         10.997                         0.003
    612       Au     1      11.000         10.997                         0.003
    613       Au     1      11.000         11.002                        -0.002
    614       Au     1      11.000         11.001                        -0.001
    615       Au     1      11.000         11.001                        -0.001
    616       Au     1      11.000         11.001                        -0.001
    617       Au     1      11.000         11.001                        -0.001
    618       Au     1      11.000         11.000                        -0.000
    619       Au     1      11.000         11.000                        -0.000
    620       Au     1      11.000         11.002                        -0.002
    621       Au     1      11.000         11.000                        -0.000
    622       Au     1      11.000         11.002                        -0.002
    623       Au     1      11.000         11.001                        -0.001
    624       Au     1      11.000         11.002                        -0.002
    625       Au     1      11.000         10.998                         0.002
    626       Au     1      11.000         10.998                         0.002
    627       Au     1      11.000         11.002                        -0.002
    628       Au     1      11.000         11.000                        -0.000
    629       Au     1      11.000         11.000                        -0.000
    630       Au     1      11.000         11.002                        -0.002
    631       Au     1      11.000         11.000                        -0.000
    632       Au     1      11.000         11.002                        -0.002
    633       Au     1      11.000         11.002                        -0.002
    634       Au     1      11.000         11.001                        -0.001
    635       Au     1      11.000         11.001                        -0.001
    636       Au     1      11.000         11.001                        -0.001
    637       Au     1      11.000         11.001                        -0.001
    638       Au     1      11.000         11.002                        -0.002
    639       Au     1      11.000         11.002                        -0.002
    640       Au     1      11.000         11.001                        -0.001
    641       Au     1      11.000         11.001                        -0.001
    642       Au     1      11.000         11.001                        -0.001
    643       Au     1      11.000         10.999                         0.001
    644       Au     1      11.000         11.001                        -0.001
    645       Au     1      11.000         11.000                        -0.000
    646       Au     1      11.000         11.000                        -0.000
    647       Au     1      11.000         11.001                        -0.001
    648       Au     1      11.000         11.000                        -0.000
    649       Au     1      11.000         11.000                        -0.000
    650       Au     1      11.000         11.001                        -0.001
    651       Au     1      11.000         11.000                         0.000
    652       Au     1      11.000         11.001                        -0.001
    653       Au     1      11.000         10.999                         0.001
    654       Au     1      11.000         11.001                        -0.001
    655       Au     1      11.000         11.000                        -0.000
    656       Au     1      11.000         11.000                        -0.000
    657       Au     1      11.000         11.001                        -0.001
    658       Au     1      11.000         11.002                        -0.002
    659       Au     1      11.000         11.002                        -0.002
    660       Au     1      11.000         11.001                        -0.001
    661       Au     1      11.000         11.001                        -0.001
    662       Au     1      11.000         11.001                        -0.001

  Total Charge                                                           -0.000
 !-----------------------------------------------------------------------------!

 ENERGY| Total FORCE_EVAL ( QS ) energy [a.u.]:           -21698.998115366419370

 -------------------------------------------------------------------------------
 -                                                                             -
 -                                DBCSR STATISTICS                             -
 -                                                                             -
 -------------------------------------------------------------------------------
 COUNTER                                    TOTAL       BLAS       SMM       ACC
 flops inhomo. stacks                           0       0.0%      0.0%      0.0%
 flops total                         0.000000E+00       0.0%      0.0%      0.0%
 flops max/rank                      0.000000E+00       0.0%      0.0%      0.0%
 matmuls inhomo. stacks                         0       0.0%      0.0%      0.0%
 matmuls total                                  0       0.0%      0.0%      0.0%
 number of processed stacks                     0       0.0%      0.0%      0.0%
 average stack size                                     0.0       0.0       0.0
 marketing flops                     0.000000E+00
 -------------------------------------------------------------------------------
 -                                                                             -
 -                      DBCSR MESSAGE PASSING PERFORMANCE                      -
 -                                                                             -
 -------------------------------------------------------------------------------
 ROUTINE             CALLS      AVE VOLUME [Bytes]
 MP_Bcast                1                     12.
 MP_Allreduce          270                      9.
 MP_Alltoall           710                 592235.
 -------------------------------------------------------------------------------

 -------------------------------------------------------------------------------
 -                                                                             -
 -                                DBM STATISTICS                               -
 -                                                                             -
 -------------------------------------------------------------------------------
    M  x    N  x    K                                          COUNT     PERCENT
 -------------------------------------------------------------------------------

 -------------------------------------------------------------------------------
 -                                                                             -
 -                                GRID STATISTICS                              -
 -                                                                             -
 -------------------------------------------------------------------------------
 LP    KERNEL             BACKEND                              COUNT     PERCENT
 4     collocate ortho    REF                                3541608      44.41%
 4     integrate ortho    REF                                2951340      37.01%
 0     collocate general  REF                                 762624       9.56%
 0     integrate general  REF                                 677888       8.50%
 3     collocate ortho    REF                                  21300       0.27%
 3     integrate ortho    REF                                  17750       0.22%
 2     collocate ortho    REF                                   1164       0.01%
 2     integrate ortho    REF                                    970       0.01%
 -------------------------------------------------------------------------------

 MEMORY| Estimated peak process memory [MiB]                                 557

 -------------------------------------------------------------------------------
 ----                             MULTIGRID INFO                            ----
 -------------------------------------------------------------------------------
 count for grid        1:         916568          cutoff [a.u.]          200.00
 count for grid        2:        1378291          cutoff [a.u.]           66.67
 count for grid        3:         772066          cutoff [a.u.]           22.22
 count for grid        4:         445487          cutoff [a.u.]            7.41
 total gridlevel count  :        3512412

 -------------------------------------------------------------------------------
 -                                                                             -
 -                         MESSAGE PASSING PERFORMANCE                         -
 -                                                                             -
 -------------------------------------------------------------------------------

 ROUTINE             CALLS      AVE VOLUME [Bytes]
 MP_Group                5
 MP_Bcast              287                2253492.
 MP_Allreduce          598                   3544.
 MP_Sync                 4
 MP_Alltoall           109                3909866.
 MP_ISendRecv         2794                  42720.
 MP_Wait              3994
 MP_ISend             1160                 253789.
 MP_IRecv             1160                 253777.
 MP_Recv              4625                1529344.
 MP_Write_All            2                2787120.
 -------------------------------------------------------------------------------


 -------------------------------------------------------------------------------
 -                                                                             -
 -                           R E F E R E N C E S                               -
 -                                                                             -
 -------------------------------------------------------------------------------
 
 CP2K version 2022.1 (Development Version), the CP2K developers group (2022).
 CP2K is freely available from https://www.cp2k.org/ .

 Kuehne,Thomas D.; Iannuzzi,Marcella; Del Ben,Mauro;
 Rybkin,Vladimir V.; Seewald,Patrick; Stein,Frederick; Laino,Teodoro;
 Khaliullin,Rustam Z.; Schuett,Ole; Schiffmann,Florian; Golze,Dorothea;
 Wilhelm,Jan; Chulkov,Sergey; Bani-Hashemian,Mohammad Hossein;
 Weber,Valery; Borstnik,Urban; Taillefumier,Mathieu;
 Jakobovits,Alice Shoshana; Lazzaro,Alfio; Pabst,Hans; Mueller,Tiziano;
 Schade,Robert; Guidon,Manuel; Andermatt,Samuel; Holmberg,Nico;
 Schenter,Gregory K.; Hehn,Anna; Bussy,Augustin; Belleflamme,Fabian;
 Tabacchi,Gloria; Gloess,Andreas; Lass,Michael; Bethune,Iain;
 Mundy,Christopher J.; Plessl,Christian; Watkins,Matt;
 VandeVondele,Joost; Krack,Matthias; Hutter,Juerg. 
 The Journal of Chemical Physics, 152 (19), (2020). 
 CP2K: An electronic structure and molecular dynamics software package -
 Quickstep: Efficient and accurate electronic structure calculations.
 https://doi.org/10.1063/5.0007045

 Schuett, Ole; Messmer, Peter; Hutter, Juerg; VandeVondele, Joost. 
 Electronic Structure Calculations on Graphics Processing Units, John
 Wiley & Sons, Ltd, 173-190 (2016). 
 GPU-Accelerated Sparse Matrix-Matrix Multiplication for
 Linear Scaling Density Functional Theory.
 https://doi.org/10.1002/9781118670712.ch8

 Borstnik, U; VandeVondele, J; Weber, V; Hutter, J. 
 PARALLEL COMPUTING, 40 (5-6), 47-58 (2014). 
 Sparse matrix multiplication: The distributed block-compressed sparse
 row library.
 https://doi.org/10.1016/j.parco.2014.03.012

 Hutter, J; Iannuzzi, M; Schiffmann, F; VandeVondele, J. 
 WIREs Comput Mol Sci., 4 (1), 15-25 (2014). 
 CP2K: atomistic simulations of condensed matter systems.
 https://doi.org/10.1002/wcms.1159

 Marek, A; Blum, V; Johanni, R; Havu, V; Lang, B; Auckenthaler, T;
 Heinecke, A; Bungartz, H; Lederer, H. 
 Journal of Physics: Condensed Matter, 26 (21), (2014). 
 The ELPA library: scalable parallel eigenvalue solutions for
 electronic structure
 theory and computational science.
 https://doi.org/10.1088/0953-8984/26/21/213201

 VandeVondele, J; Hutter, J. 
 JOURNAL OF CHEMICAL PHYSICS, 127 (11), 114105 (2007). 
 Gaussian basis sets for accurate calculations on molecular systems in
 gas and condensed phases.
 https://doi.org/10.1063/1.2770708

 Krack, M. 
 THEORETICAL CHEMISTRY ACCOUNTS, 114 (1-3), 145-152 (2005). 
 Pseudopotentials for H to Kr optimized for gradient-corrected
 exchange-correlation functionals.
 https://doi.org/10.1007/s00214-005-0655-y

 VandeVondele, J; Krack, M; Mohamed, F; Parrinello, M; Chassaing, T;
 Hutter, J. COMPUTER PHYSICS COMMUNICATIONS, 167 (2), 103-128 (2005). 
 QUICKSTEP: Fast and accurate density functional calculations using a
 mixed Gaussian and plane waves approach.
 https://doi.org/10.1016/j.cpc.2004.12.014

 Frigo, M; Johnson, SG. 
 PROCEEDINGS OF THE IEEE, 93 (2), 216-231 (2005). 
 The design and implementation of FFTW3.
 https://doi.org/10.1109/JPROC.2004.840301

 Hartwigsen, C; Goedecker, S; Hutter, J. 
 PHYSICAL REVIEW B, 58 (7), 3641-3662 (1998). 
 Relativistic separable dual-space Gaussian pseudopotentials from H to Rn.
 https://doi.org/10.1103/PhysRevB.58.3641

 Lippert, G; Hutter, J; Parrinello, M. 
 MOLECULAR PHYSICS, 92 (3), 477-487 (1997). 
 A hybrid Gaussian and plane wave density functional scheme.
 https://doi.org/10.1080/002689797170220

 Goedecker, S; Teter, M; Hutter, J. 
 PHYSICAL REVIEW B, 54 (3), 1703-1710 (1996). 
 Separable dual-space Gaussian pseudopotentials.
 https://doi.org/10.1103/PhysRevB.54.1703


 -------------------------------------------------------------------------------
 -                                                                             -
 -                                T I M I N G                                  -
 -                                                                             -
 -------------------------------------------------------------------------------
 SUBROUTINE                       CALLS  ASD         SELF TIME        TOTAL TIME
                                MAXIMUM       AVERAGE  MAXIMUM  AVERAGE  MAXIMUM
 CP2K                                 1  1.0    0.067    0.085   75.633   75.638
 qs_energies                          1  2.0    0.002    0.004   75.042   75.048
 scf_env_do_scf                       1  3.0    0.001    0.002   69.112   69.266
 scf_env_do_scf_inner_loop            5  4.0    0.010    0.028   69.111   69.265
 qs_scf_new_mos_kp                    5  5.0    0.000    0.001   52.255   52.259
 do_general_diag_kp                   5  6.0    0.002    0.005   52.255   52.259
 cp_cfm_geeig                         5  7.0    0.000    0.001   48.199   48.273
 cp_cfm_heevd                         5  8.0   29.848   30.029   29.848   30.029
 cp_cfm_triangular_multiply          15  8.0   14.952   15.129   14.952   15.129
 write_kpoints_restart                5  5.0    0.002    0.003   11.771   11.925
 cp_fm_write_unformatted             25  6.0    0.359   10.457    7.690   11.454
 mp_send_dv                          50  7.0    7.323   11.192    7.323   11.192
 copy_dbcsr_to_fm                    45  6.4    0.001    0.002    4.609    8.259
 dbcsr_desymmetrize_deep             65  7.3    0.063    0.084    4.048    7.781
 mp_alltoall_i22                    120  8.5    3.789    7.522    3.789    7.522
 scf_post_calculation_gpw             1  3.0    0.002    0.005    4.382    4.539
 write_available_results              1  4.0    0.000    0.000    4.380    4.537
 write_mo_free_results                1  5.0    0.308    0.465    4.380    4.537
 kpoint_density_matrices              5  7.0    0.005    0.006    2.612    2.686
 cp_gemm                             20  8.0    0.000    0.000    2.599    2.673
 cp_gemm_fm_gemm                     20  9.0    0.000    0.000    2.599    2.673
 cp_fm_gemm                          20 10.0    2.599    2.673    2.599    2.673
 qs_rho_update_rho_low                6  5.0    0.000    0.002    2.525    2.539
 calculate_rho_elec                   6  6.0    0.008    0.009    2.524    2.538
 qs_ks_update_qs_env                  5  5.0    0.000    0.000    2.448    2.454
 pw_to_cube                           2  6.0    1.303    1.367    2.427    2.429
 rebuild_ks_matrix                    5  6.0    0.002    0.003    2.302    2.304
 qs_ks_build_kohn_sham_matrix         5  7.0    0.007    0.012    2.299    2.303
 rs_pw_transfer                      47  9.2    0.001    0.001    1.599    2.020
 cp_cfm_cholesky_decompose            5  8.0    1.762    1.805    1.762    1.805
 sum_up_and_integrate                 5  8.0    0.013    0.016    1.733    1.757
 integrate_v_rspace                   5  9.0    0.000    0.000    1.721    1.744
 cp_cfm_triangular_invert             5  8.0    1.630    1.640    1.630    1.640
 -------------------------------------------------------------------------------

 The number of warnings for this run is : 2
 
 -------------------------------------------------------------------------------
  **** **** ******  **  PROGRAM ENDED AT                 2023-11-22 15:18:04.332
 ***** ** ***  *** **   PROGRAM RAN ON                                 nid006161
 **    ****   ******    PROGRAM RAN BY                                    cahart
 ***** **    ** ** **   PROGRAM PROCESS ID                                 34021
  **** **  *******  **  PROGRAM STOPPED IN /mnt/lustre/a2fs-work2/work/e05/e05/c
                                           ahart/postdoc/transport/cp2k-smeagol-
                                           examples/benchmarking/cp2k-smeagol/au
                                           -bdt/NEnergReal-64_kpoints-1-1-20/ato
                                           ms-662/dft
