SIESTA 1.3.7  -- [1.3f1 release] (04 Feb 2004)
Architecture  : 
Compiler flags:  -O3
PARALLEL version

* Running on    4 nodes in parallel
>> Start of run:   5-OCT-2013  12:59:41

                           ***********************       
                           *  WELCOME TO SIESTA  *       
                           ***********************       

reinit: Reading from standard input
************************** Dump of input data file ****************************
#
SystemName                   mol            # Descriptive name of the system
SystemLabel                  mol            # Short name for naming files
NumberOfSpecies              1             # Number of species
NumberOfAtoms                2           # Number of atoms
%block ChemicalSpeciesLabel
 1    1   H
%endblock ChemicalSpeciesLabel
# ps
%block Ps.lmax
  H     3
%endblock Ps.lmax
# Basis
PAO.BasisType                split         # Type of basis ('nones', 'nonodes', 'split')
PAO.SplitNorm  0.15
%block PAO.Basis                           # basis
H     2      0.00
 n=1    0    2   E      2.07      0.50
   5.75  1.5
   1.000   1.000
 n=2    1    1   E      0.89      0.01
   5.500
   1.000
%endblock PAO.Basis
# lattice vectors
LatticeConstant              1.0 Ang
%block LatticeVectors
         20.00000        0.00000000       0.00000000
         0.00000        20.0000000        0.00000000
         0.00000000      0.00000000      20.0000
%endblock LatticeVectors
# coordinates
AtomicCoordinatesFormat      Ang
%block AtomicCoordinatesAndAtomicSpecies
    0.00000000    0.00000000   -0.00998254   1  H          1
    0.00000000    0.00000000    0.73998166   1  H          2
%endblock AtomicCoordinatesAndAtomicSpecies
# constrains in relaxation
#%block GeometryConstraints
#   position   from  1 to  54
#   position   from  -1 to  -45
#%endblock GeometryConstraints
# real space mesh grid
MeshCutoff                   800.0 Ry
%block GridCellSampling
  0.5  0.5   0.0
  0.5  0.0   0.5
  0.0  0.5   0.5
%endblock GridCellSampling
# reciprocal space
%block kgrid_Monkhorst_Pack
  1   0   0    0.0
  0   1   0    0.0
  0   0   1    0.0
%endblock kgrid_Monkhorst_Pack
#ProcessorY                   4
#BlockSize                    100
%block ExternalElectricField
   0.000 0.000 0.095 V/Ang
%endblock ExternalElectricField
# functional
xc.functional                GGA           # 'LDA', 'GGA'
xc.authors                   PBE           # 'CA'='PZ', 'PW92', 'PBE'
# scf
MaxSCFIterations             300
DM.MixingWeight              0.02
DM.Tolerance                 2.0E-5
DM.UseSaveDM                 T
DM.NumberPulay               6             # Pulay convergency accelerator
SolutionMethod               diagon
ElectronicTemperature        300 K         # Default value
# MD options
MD.TypeOfRun                 fc            # Type of dynamics:
MD.VariableCell              false         # if vary cell
MD.NumCGsteps                300             # Number of CG steps for relaxation
MD.MaxCGDispl                0.08 Ang     # Maximum atomic displacement at one step
MD.MaxForceTol               0.01 eV/Ang   # Tolerance in the maximum force min(fx, fy, fz)
MD.MaxStressTol              0.1 Gpa
MD.FCDispl                 0.02 ang
MD.FCIR                    T
MD.FCEigenVectors          T
MD.FCRead                  F
MD.FCAtomRestart           46
MD.FCAxisRestart           1
MD.InitialTimeStep         1
MD.FinalTimeStep           10
MD.LengthTimeStep          1.0 fs
MD.InitialTemperature      100.0 K
MD.TargetTemperature       100.0 K
#MD.TargetPressure          3.0 Gpa
#Siesta Output Flags
SaveHS                       F           # Hamiltonian and overlap in sparse
SaveRHO                      F
WriteMullikenPop             1
WriteForces                  T
WriteCoorStep                T
SaveElectrostaticPotential   T             # Hartree Potential file
************************** End of input data file *****************************

reinit: -----------------------------------------------------------------------
reinit: System Name: mol                                                        
reinit: -----------------------------------------------------------------------
reinit: System Label: mol                 
reinit: -----------------------------------------------------------------------

initatom: Reading input for the pseudopotentials and atomic orbitals ----------
 Species number:            1  Label: H Atomic number:           1
Ground state valence configuration:   1s01
Reading pseudopotential information in formatted form from H.psf
relmxkb: Read Max KB Ang. Momentum=    3 for species H

<basis_specs>
===============================================================================
H                    Z=   1    Mass=  1.0100        Charge=  0.0000    
Lmxo=1 Lmxkb=3     BasisType=split      Semic=F
L=0  Nsemic=0  Cnfigmx=1
          n=1  nzeta=2  polorb=0
               vcte:    2.0700    
               rinn:   0.50000    
                rcs:    5.7500      1.5000    
            lambdas:    1.0000      1.0000    
L=1  Nsemic=0  Cnfigmx=2
          n=1  nzeta=1  polorb=0
               vcte:   0.89000    
               rinn:   0.10000E-01
                rcs:    5.5000    
            lambdas:    1.0000    
-------------------------------------------------------------------------------
L=0  Nkbl=1  erefs: 0.17977+309
L=1  Nkbl=1  erefs: 0.17977+309
L=2  Nkbl=1  erefs: 0.17977+309
L=3  Nkbl=1  erefs: 0.17977+309
===============================================================================
</basis_specs>

atom: Called for H   (Z =   1)

read_vps: Pseudopotential generation method:
read_vps: ATM3      Troullier-Martins                       

read_vps: Valence configuration (pseudopotential and basis set generation):
1s( 1.00) rc: 1.89
2p( 0.00) rc: 1.80
3d( 0.00) rc: 1.49
4f( 0.00) rc: 1.49
read_vps: Spin-orbit interaction is not included in this calculation
Total valence charge:    1.00000

xc_check: Exchange-correlation functional:
xc_check: GGA Perdew, Burke & Ernzerhof 1996
V l=0 = -2*Zval/r beyond r=  1.8658
V l=1 = -2*Zval/r beyond r=  1.7970
V l=2 = -2*Zval/r beyond r=  1.8196
V l=3 = -2*Zval/r beyond r=  1.8196
All V_l potentials equal beyond r=  1.8658
This should be close to max(r_c) in ps generation
All pots = -2*Zval/r beyond r=  1.8658

VLOCAL1: 99.0% of the norm of Vloc inside     12.470 Ry
VLOCAL1: 99.9% of the norm of Vloc inside     28.418 Ry
atom: Maximum radius for 4*pi*r*r*local-pseudopot. charge    2.16811
atom: Maximum radius for r*vlocal+2*Zval:    1.84256
GHOST: No ghost state for L =  0
GHOST: No ghost state for L =  1
GHOST: No ghost state for L =  2
GHOST: No ghost state for L =  3

KBgen: Kleinman-Bylander projectors: 
   l= 0   rc=  2.011274   el= -0.477200   Ekb= -1.572097   kbcos= -0.493163
   l= 1   rc=  2.141150   el=  0.001076   Ekb= -0.356432   kbcos= -0.050277
   l= 2   rc=  2.195416   el=  0.002010   Ekb= -0.177656   kbcos= -0.007774
   l= 3   rc=  2.251056   el=  0.003122   Ekb= -0.068270   kbcos= -0.002268

KBgen: Total number of  Kleinman-Bylander projectors:   16
atom: -------------------------------------------------------------------------

atom: SANKEY-TYPE ORBITALS:
atom: Selected multiple-zeta basis: split     

SPLIT: Orbitals with angular momentum L= 0

SPLIT: Basis orbitals for state 1s

   izeta = 1
                 lambda =    1.000000
                     rc =    5.752124
                 energy =   -0.469599
                kinetic =    0.919264
    potential(screened) =   -1.388863
       potential(ionic) =   -1.911599

   izeta = 2
                 rmatch =    1.527112
              splitnorm =    0.807394
                 energy =    2.126033
                kinetic =    5.261681
    potential(screened) =   -3.135649
       potential(ionic) =   -3.696632

SPLIT: Orbitals with angular momentum L= 1

SPLIT: Basis orbitals for state 2p

   izeta = 1
                 lambda =    1.000000
                     rc =    5.471469
                 energy =    0.371359
                kinetic =    0.737398
    potential(screened) =   -0.366040
       potential(ionic) =   -0.791603
atom: Total number of Sankey-type orbitals:  5

atm_pop: Valence configuration(local Pseudopot. screening):
 1s( 1.00)                                                            
 2p( 0.00)                                                            
Vna: chval, zval:    1.00000   1.00000

Vna:  Cut-off radius for the neutral-atom potential:   5.752124

atom: _________________________________________________________________________

prinput: Basis input ----------------------------------------------------------

PAO.BasisType split     

%block ChemicalSpeciesLabel
    1    1 H                       # Species index, atomic number, species label
%endblock ChemicalSpeciesLabel

%block PAO.Basis                 # Define Basis set
H           2                    # Species label, number of l-shells
 n=1   0   2                         # n, l, Nzeta 
   5.752      1.527   
   1.000      1.000   
 n=2   1   1                         # n, l, Nzeta 
   5.471   
   1.000   
%endblock PAO.Basis

prinput: ----------------------------------------------------------------------


siesta: ******************** Simulation parameters ****************************
siesta:
siesta: The following are some of the parameters of the simulation.
siesta: A complete list of the parameters used, including defect values,
siesta: can be found in file out.fdf
siesta:
coor:   Atomic-coordinates input format  =     Cartesian coordinates
coor:                                          (in Angstroms)
redata: Number of spin components        =     1
redata: SpinOrbit                        =     0
redata: Long output                      =     F
redata: Number of Atomic Species         =     1
redata: Charge density info will appear in .RHO file
redata: Write Mulliken Pop.              =     Atomic and Orbital charges
redata: Mesh Cutoff                      =   800.0000  Ry
redata: Net charge of the system         =     0.0000 |e|
redata: Max. number of SCF Iter          =   300
redata: One Pulay mixing every           =     6 iterations
redata: Mix DM in first SCF step ?       =     F
redata: Write Pulay info on disk?        =     F
redata: New DM Mixing Weight             =     0.0200
redata: No kicks to SCF
redata: DM Mixing Weight for Kicks       =     0.5000
redata: DM Tolerance for SCF             =     0.000020
redata: Use continuation files for DM    =     T
redata: Neglect nonoverlap interactions  =     F
redata: Method of Calculation            =     Diagonalization
redata: Divide and Conquer               =     F
redata: Electronic Temperature           =     0.0019  Ry
redata: Fix the spin of the system       =     F
redata: Dynamics option                  =     Force Constants Matrix Calculation
redata: Atomic displ for force constants =     0.0378  Bohr
redata: First atom to move               =      1
redata: Last atom to move                =      2
redata: Read previous FC                 =     F
redata: Acoustic sum rule                =     T
redata: Calculate Eigen Vectors          =     T
redata: Calculate Infrared Intensity     =     T
redata: ***********************************************************************

siesta: Atomic coordinates (Bohr) and species
siesta:      0.00000   0.00000  -0.01886  1        1
siesta:      0.00000   0.00000   1.39836  1        2

initatomlists: Number of atoms, orbitals, and projectors:      2    10    32

siesta: System type = molecule  
 Nodes, Orbitals           4          10
 blocksizedefault           2

* ProcessorY, Blocksize:    2   2

 Using EM.ParallelOverKNum =           1
 label:           1 H                              1 s      
 label:           2 H                              1 s      
 label:           3 H                              1 py     
 label:           4 H                              1 pz     
 label:           5 H                              1 px     
 label:           6 H                              2 s      
 label:           7 H                              2 s      
 label:           8 H                              2 py     
 label:           9 H                              2 pz     
 label:          10 H                              2 px     
 
* Maximum dynamic memory allocated =     1 MB

siesta:                 ==============================
                        Begin FC step =     0 of    12
                            Undisplaced coordinates
                        ==============================

outcoor: Atomic coordinates (Ang):                          
    0.00000000    0.00000000   -0.00998254   1  H          1
    0.00000000    0.00000000    0.73998166   1  H          2

read_ldau The LDA+U method used is from Czyzky PRB 49 14211

iodm: Reading Density Matrix from files

mol.DM                           

InitMesh: MESH =   360 x   360 x   360 =    46656000
InitMesh: Mesh cutoff (required, used) =   800.000   895.461 Ry

efield: External electric field =    0.000000    0.000000    0.003695 Ry/Bohr/e
 
* Maximum dynamic memory allocated =   583 MB

stepf: Fermi-Dirac step function

siesta: Program's energy decomposition (eV):
siesta: Eions   =        26.074526
siesta: Ena     =         4.296329
siesta: Ekin    =        26.390813
siesta: Enl     =       -17.162382
siesta: DEna    =        -1.459681
siesta: DUscf   =         0.252152
siesta: DUext   =        -0.000653
siesta: Exc     =       -17.578041
siesta: eta*DQ  =         0.000000
siesta: Emadel  =         0.000000
siesta: Eharris =       -31.336274
siesta: Eso     =         0.000000
siesta: Etot    =       -31.335990
siesta: FreeEng =       -31.335990

siesta: iscf   Eharris(eV)      E_KS(eV)   FreeEng(eV)     dDmax   Ef(eV)
siesta:    1      -31.3363      -31.3360      -31.3360   0.00002  -4.9035
timer: Routine,Calls,Time,% = IterSCF        1      76.033  98.24
grdsam: Reading %block GridCellSampling
grdsam: Grid-cell sampling, point   0
grdsam: Generating displacements for grid-cell sampling
grdsam: Grid-cell sampling, point   1
grdsam: Grid-cell sampling, point   2
grdsam: Grid-cell sampling, point   3

siesta: E_KS(eV) =              -31.3363

siesta: E_KS - E_eggbox =       -31.3363

siesta: Atomic forces (eV/Ang):
     1    0.000000    0.000000   -0.001240
     2    0.000000    0.000000    0.001360
----------------------------------------
 Tot    0.000000    0.000000    0.000120
----------------------------------------
 Max    0.001360
 Res    0.000751    sqrt( Sum f_i^2 / 3N )
----------------------------------------
 Max    0.001360    constrained
 
mulliken: Atomic and Orbital Populations:

Species: H                   
Atom  Qatom  Qorb
               1s      1s      2py     2pz     2px     
   1  1.003   0.906   0.083   0.000   0.013   0.000
   2  0.997   0.899   0.083   0.000   0.015   0.000

mulliken: Qtot =    2.000
 
* Maximum dynamic memory allocated =   583 MB

siesta:                 ==============================
                        Begin FC step =     1 of    12
                            displace atom        1
                            in direction         1
                        by  -0.0378 Bohr =  -0.0200 Ang
                        ==============================

outcoor: Atomic coordinates (Ang):                          
   -0.02000000    0.00000000   -0.00998254   1  H          1
    0.00000000    0.00000000    0.73998166   1  H          2

siesta: iscf   Eharris(eV)      E_KS(eV)   FreeEng(eV)     dDmax   Ef(eV)
siesta:    1      -31.3363      -31.3363      -31.3363   0.00065  -4.9017
siesta:    2      -31.3363      -31.3363      -31.3363   0.00002  -4.9025
siesta:    3      -31.3363      -31.3363      -31.3363   0.00001  -4.9025
grdsam: Grid-cell sampling, point   0
grdsam: Grid-cell sampling, point   1
grdsam: Grid-cell sampling, point   2
grdsam: Grid-cell sampling, point   3

siesta: E_KS(eV) =              -31.3363

siesta: Atomic forces (eV/Ang):
     1    0.000277    0.000000    0.008085
     2   -0.000265    0.000000   -0.008076
----------------------------------------
 Tot    0.000012    0.000000    0.000009
----------------------------------------
 Max    0.008085
 Res    0.004668    sqrt( Sum f_i^2 / 3N )
----------------------------------------
 Max    0.008085    constrained
 
mulliken: Atomic and Orbital Populations:

Species: H                   
Atom  Qatom  Qorb
               1s      1s      2py     2pz     2px     
   1  1.003   0.906   0.083   0.000   0.013   0.000
   2  0.997   0.899   0.083   0.000   0.015   0.000

mulliken: Qtot =    2.000
 
* Maximum dynamic memory allocated =   584 MB

siesta:                 ==============================
                        Begin FC step =     2 of    12
                            displace atom        1
                            in direction         1
                        by   0.0378 Bohr =   0.0200 Ang
                        ==============================

outcoor: Atomic coordinates (Ang):                          
    0.02000000    0.00000000   -0.00998254   1  H          1
    0.00000000    0.00000000    0.73998166   1  H          2

siesta: iscf   Eharris(eV)      E_KS(eV)   FreeEng(eV)     dDmax   Ef(eV)
siesta:    1      -31.3363      -31.3363      -31.3363   0.00130  -4.9026
siesta:    2      -31.3363      -31.3363      -31.3363   0.00005  -4.9024
siesta:    3      -31.3363      -31.3363      -31.3363   0.00000  -4.9024
grdsam: Grid-cell sampling, point   0
grdsam: Grid-cell sampling, point   1
grdsam: Grid-cell sampling, point   2
grdsam: Grid-cell sampling, point   3

siesta: E_KS(eV) =              -31.3363

siesta: Atomic forces (eV/Ang):
     1   -0.000243    0.000000    0.008344
     2    0.000231    0.000000   -0.008335
----------------------------------------
 Tot   -0.000012    0.000000    0.000009
----------------------------------------
 Max    0.008344
 Res    0.004817    sqrt( Sum f_i^2 / 3N )
----------------------------------------
 Max    0.008344    constrained
 
mulliken: Atomic and Orbital Populations:

Species: H                   
Atom  Qatom  Qorb
               1s      1s      2py     2pz     2px     
   1  1.003   0.906   0.083   0.000   0.013   0.000
   2  0.997   0.899   0.083   0.000   0.015   0.000

mulliken: Qtot =    2.000
 
* Maximum dynamic memory allocated =   584 MB

siesta:                 ==============================
                        Begin FC step =     3 of    12
                            displace atom        1
                            in direction         2
                        by  -0.0378 Bohr =  -0.0200 Ang
                        ==============================

outcoor: Atomic coordinates (Ang):                          
    0.00000000   -0.02000000   -0.00998254   1  H          1
    0.00000000    0.00000000    0.73998166   1  H          2

siesta: iscf   Eharris(eV)      E_KS(eV)   FreeEng(eV)     dDmax   Ef(eV)
siesta:    1      -31.3363      -31.3363      -31.3363   0.00065  -4.9024
siesta:    2      -31.3363      -31.3363      -31.3363   0.00002  -4.9024
siesta:    3      -31.3363      -31.3363      -31.3363   0.00000  -4.9024
grdsam: Grid-cell sampling, point   0
grdsam: Grid-cell sampling, point   1
grdsam: Grid-cell sampling, point   2
grdsam: Grid-cell sampling, point   3

siesta: E_KS(eV) =              -31.3363

siesta: Atomic forces (eV/Ang):
     1    0.000000    0.000240    0.008306
     2    0.000000   -0.000228   -0.008297
----------------------------------------
 Tot   -0.000001    0.000012    0.000009
----------------------------------------
 Max    0.008306
 Res    0.004795    sqrt( Sum f_i^2 / 3N )
----------------------------------------
 Max    0.008306    constrained
 
mulliken: Atomic and Orbital Populations:

Species: H                   
Atom  Qatom  Qorb
               1s      1s      2py     2pz     2px     
   1  1.003   0.906   0.083   0.000   0.013   0.000
   2  0.997   0.899   0.083   0.000   0.015   0.000

mulliken: Qtot =    2.000
 
* Maximum dynamic memory allocated =   584 MB

siesta:                 ==============================
                        Begin FC step =     4 of    12
                            displace atom        1
                            in direction         2
                        by   0.0378 Bohr =   0.0200 Ang
                        ==============================

outcoor: Atomic coordinates (Ang):                          
    0.00000000    0.02000000   -0.00998254   1  H          1
    0.00000000    0.00000000    0.73998166   1  H          2

siesta: iscf   Eharris(eV)      E_KS(eV)   FreeEng(eV)     dDmax   Ef(eV)
siesta:    1      -31.3363      -31.3363      -31.3363   0.00130  -4.9025
siesta:    2      -31.3363      -31.3363      -31.3363   0.00005  -4.9024
siesta:    3      -31.3363      -31.3363      -31.3363   0.00000  -4.9024
grdsam: Grid-cell sampling, point   0
grdsam: Grid-cell sampling, point   1
grdsam: Grid-cell sampling, point   2
grdsam: Grid-cell sampling, point   3

siesta: E_KS(eV) =              -31.3363

siesta: Atomic forces (eV/Ang):
     1    0.000001   -0.000241    0.008314
     2    0.000000    0.000229   -0.008305
----------------------------------------
 Tot    0.000001   -0.000012    0.000009
----------------------------------------
 Max    0.008314
 Res    0.004799    sqrt( Sum f_i^2 / 3N )
----------------------------------------
 Max    0.008314    constrained
 
mulliken: Atomic and Orbital Populations:

Species: H                   
Atom  Qatom  Qorb
               1s      1s      2py     2pz     2px     
   1  1.003   0.906   0.083   0.000   0.013   0.000
   2  0.997   0.899   0.083   0.000   0.015   0.000

mulliken: Qtot =    2.000
 
* Maximum dynamic memory allocated =   584 MB

siesta:                 ==============================
                        Begin FC step =     5 of    12
                            displace atom        1
                            in direction         3
                        by  -0.0378 Bohr =  -0.0200 Ang
                        ==============================

outcoor: Atomic coordinates (Ang):                          
    0.00000000    0.00000000   -0.02998254   1  H          1
    0.00000000    0.00000000    0.73998166   1  H          2

siesta: iscf   Eharris(eV)      E_KS(eV)   FreeEng(eV)     dDmax   Ef(eV)
siesta:    1      -31.3296      -31.3277      -31.3277   0.00505  -4.7776
siesta:    2      -31.3295      -31.3295      -31.3295   0.00070  -4.8368
siesta:    3      -31.3295      -31.3293      -31.3293   0.00022  -4.8307
siesta:    4      -31.3295      -31.3295      -31.3295   0.00007  -4.8313
siesta:    5      -31.3295      -31.3295      -31.3295   0.00007  -4.8313
siesta:    6      -31.3295      -31.3295      -31.3295   0.00007  -4.8313
siesta:    7      -31.3295      -31.3295      -31.3295   0.00006  -4.8313
siesta:    8      -31.3295      -31.3295      -31.3295   0.00006  -4.8314
siesta:    9      -31.3295      -31.3295      -31.3295   0.00006  -4.8314
siesta:   10      -31.3295      -31.3295      -31.3295   0.00006  -4.8314
siesta:   11      -31.3295      -31.3295      -31.3295   0.00006  -4.8314
siesta:   12      -31.3295      -31.3295      -31.3295   0.00005  -4.8314
siesta:   13      -31.3295      -31.3295      -31.3295   0.00005  -4.8314
siesta:   14      -31.3295      -31.3295      -31.3295   0.00005  -4.8314
siesta:   15      -31.3295      -31.3295      -31.3295   0.00005  -4.8314
siesta:   16      -31.3295      -31.3295      -31.3295   0.00005  -4.8314
siesta:   17      -31.3295      -31.3295      -31.3295   0.00005  -4.8314
siesta:   18      -31.3295      -31.3295      -31.3295   0.00005  -4.8314
siesta:   19      -31.3295      -31.3295      -31.3295   0.00004  -4.8314
siesta:   20      -31.3295      -31.3295      -31.3295   0.00004  -4.8314
siesta:   21      -31.3295      -31.3295      -31.3295   0.00004  -4.8314
siesta:   22      -31.3295      -31.3295      -31.3295   0.00004  -4.8314
siesta:   23      -31.3295      -31.3295      -31.3295   0.00004  -4.8314
siesta:   24      -31.3295      -31.3295      -31.3295   0.00004  -4.8314
siesta:   25      -31.3295      -31.3295      -31.3295   0.00004  -4.8314
siesta:   26      -31.3295      -31.3295      -31.3295   0.00004  -4.8314
siesta:   27      -31.3295      -31.3295      -31.3295   0.00003  -4.8314
siesta:   28      -31.3295      -31.3295      -31.3295   0.00003  -4.8314
siesta:   29      -31.3295      -31.3295      -31.3295   0.00003  -4.8314
siesta:   30      -31.3295      -31.3295      -31.3295   0.00003  -4.8314
siesta:   31      -31.3295      -31.3295      -31.3295   0.00003  -4.8314
siesta:   32      -31.3295      -31.3295      -31.3295   0.00003  -4.8314
siesta:   33      -31.3295      -31.3295      -31.3295   0.00003  -4.8314
siesta:   34      -31.3295      -31.3295      -31.3295   0.00003  -4.8314
siesta:   35      -31.3295      -31.3295      -31.3295   0.00003  -4.8315
siesta:   36      -31.3295      -31.3295      -31.3295   0.00003  -4.8315
siesta:   37      -31.3295      -31.3295      -31.3295   0.00003  -4.8315
siesta:   38      -31.3295      -31.3295      -31.3295   0.00002  -4.8315
siesta:   39      -31.3295      -31.3295      -31.3295   0.00002  -4.8315
siesta:   40      -31.3295      -31.3295      -31.3295   0.00002  -4.8315
siesta:   41      -31.3295      -31.3295      -31.3295   0.00002  -4.8315
siesta:   42      -31.3295      -31.3295      -31.3295   0.00002  -4.8315
siesta:   43      -31.3295      -31.3295      -31.3295   0.00002  -4.8315
siesta:   44      -31.3295      -31.3295      -31.3295   0.00002  -4.8315
siesta:   45      -31.3295      -31.3295      -31.3295   0.00002  -4.8315
siesta:   46      -31.3295      -31.3295      -31.3295   0.00002  -4.8315
grdsam: Grid-cell sampling, point   0
grdsam: Grid-cell sampling, point   1
grdsam: Grid-cell sampling, point   2
grdsam: Grid-cell sampling, point   3

siesta: E_KS(eV) =              -31.3295

siesta: Atomic forces (eV/Ang):
     1    0.000000    0.000098    0.665745
     2    0.000000   -0.000098   -0.665707
----------------------------------------
 Tot    0.000000    0.000000    0.000038
----------------------------------------
 Max    0.665745
 Res    0.384357    sqrt( Sum f_i^2 / 3N )
----------------------------------------
 Max    0.665745    constrained
 
mulliken: Atomic and Orbital Populations:

Species: H                   
Atom  Qatom  Qorb
               1s      1s      2py     2pz     2px     
   1  1.003   0.911   0.079   0.000   0.013   0.000
   2  0.997   0.904   0.079   0.000   0.015   0.000

mulliken: Qtot =    2.000
 
* Maximum dynamic memory allocated =   584 MB

siesta:                 ==============================
                        Begin FC step =     6 of    12
                            displace atom        1
                            in direction         3
                        by   0.0378 Bohr =   0.0200 Ang
                        ==============================

outcoor: Atomic coordinates (Ang):                          
    0.00000000    0.00000000    0.01001746   1  H          1
    0.00000000    0.00000000    0.73998166   1  H          2

siesta: iscf   Eharris(eV)      E_KS(eV)   FreeEng(eV)     dDmax   Ef(eV)
siesta:    1      -31.3294      -31.3213      -31.3213   0.01029  -5.0857
siesta:    2      -31.3287      -31.3286      -31.3286   0.00153  -4.9574
siesta:    3      -31.3287      -31.3279      -31.3279   0.00044  -4.9722
siesta:    4      -31.3287      -31.3287      -31.3287   0.00018  -4.9691
siesta:    5      -31.3287      -31.3287      -31.3287   0.00018  -4.9691
siesta:    6      -31.3287      -31.3287      -31.3287   0.00017  -4.9691
siesta:    7      -31.3287      -31.3287      -31.3287   0.00017  -4.9691
siesta:    8      -31.3287      -31.3287      -31.3287   0.00016  -4.9691
siesta:    9      -31.3287      -31.3287      -31.3287   0.00016  -4.9692
siesta:   10      -31.3287      -31.3287      -31.3287   0.00016  -4.9692
siesta:   11      -31.3287      -31.3287      -31.3287   0.00015  -4.9692
siesta:   12      -31.3287      -31.3287      -31.3287   0.00015  -4.9692
siesta:   13      -31.3287      -31.3287      -31.3287   0.00014  -4.9692
siesta:   14      -31.3287      -31.3287      -31.3287   0.00014  -4.9693
siesta:   15      -31.3287      -31.3287      -31.3287   0.00014  -4.9693
siesta:   16      -31.3287      -31.3287      -31.3287   0.00013  -4.9693
siesta:   17      -31.3287      -31.3287      -31.3287   0.00013  -4.9693
siesta:   18      -31.3287      -31.3287      -31.3287   0.00013  -4.9693
siesta:   19      -31.3287      -31.3287      -31.3287   0.00012  -4.9693
siesta:   20      -31.3287      -31.3287      -31.3287   0.00012  -4.9694
siesta:   21      -31.3287      -31.3287      -31.3287   0.00012  -4.9694
siesta:   22      -31.3287      -31.3287      -31.3287   0.00011  -4.9694
siesta:   23      -31.3287      -31.3287      -31.3287   0.00011  -4.9694
siesta:   24      -31.3287      -31.3287      -31.3287   0.00011  -4.9694
siesta:   25      -31.3287      -31.3287      -31.3287   0.00011  -4.9694
siesta:   26      -31.3287      -31.3287      -31.3287   0.00010  -4.9694
siesta:   27      -31.3287      -31.3287      -31.3287   0.00010  -4.9695
siesta:   28      -31.3287      -31.3287      -31.3287   0.00010  -4.9695
siesta:   29      -31.3287      -31.3287      -31.3287   0.00009  -4.9695
siesta:   30      -31.3287      -31.3287      -31.3287   0.00009  -4.9695
siesta:   31      -31.3287      -31.3287      -31.3287   0.00009  -4.9695
siesta:   32      -31.3287      -31.3287      -31.3287   0.00009  -4.9695
siesta:   33      -31.3287      -31.3287      -31.3287   0.00009  -4.9695
siesta:   34      -31.3287      -31.3287      -31.3287   0.00008  -4.9695
siesta:   35      -31.3287      -31.3287      -31.3287   0.00008  -4.9695
siesta:   36      -31.3287      -31.3287      -31.3287   0.00008  -4.9696
siesta:   37      -31.3287      -31.3287      -31.3287   0.00008  -4.9696
siesta:   38      -31.3287      -31.3287      -31.3287   0.00008  -4.9696
siesta:   39      -31.3287      -31.3287      -31.3287   0.00007  -4.9696
siesta:   40      -31.3287      -31.3287      -31.3287   0.00007  -4.9696
siesta:   41      -31.3287      -31.3287      -31.3287   0.00007  -4.9696
siesta:   42      -31.3287      -31.3287      -31.3287   0.00007  -4.9696
siesta:   43      -31.3287      -31.3287      -31.3287   0.00007  -4.9696
siesta:   44      -31.3287      -31.3287      -31.3287   0.00006  -4.9696
siesta:   45      -31.3287      -31.3287      -31.3287   0.00006  -4.9696
siesta:   46      -31.3287      -31.3287      -31.3287   0.00006  -4.9697
siesta:   47      -31.3287      -31.3287      -31.3287   0.00006  -4.9697
siesta:   48      -31.3287      -31.3287      -31.3287   0.00006  -4.9697
siesta:   49      -31.3287      -31.3287      -31.3287   0.00006  -4.9697
siesta:   50      -31.3287      -31.3287      -31.3287   0.00006  -4.9697
siesta:   51      -31.3287      -31.3287      -31.3287   0.00005  -4.9697
siesta:   52      -31.3287      -31.3287      -31.3287   0.00005  -4.9697
siesta:   53      -31.3287      -31.3287      -31.3287   0.00005  -4.9697
siesta:   54      -31.3287      -31.3287      -31.3287   0.00005  -4.9697
siesta:   55      -31.3287      -31.3287      -31.3287   0.00005  -4.9697
siesta:   56      -31.3287      -31.3287      -31.3287   0.00005  -4.9697
siesta:   57      -31.3287      -31.3287      -31.3287   0.00005  -4.9697
siesta:   58      -31.3287      -31.3287      -31.3287   0.00004  -4.9697
siesta:   59      -31.3287      -31.3287      -31.3287   0.00004  -4.9697
siesta:   60      -31.3287      -31.3287      -31.3287   0.00004  -4.9698
siesta:   61      -31.3287      -31.3287      -31.3287   0.00004  -4.9698
siesta:   62      -31.3287      -31.3287      -31.3287   0.00004  -4.9698
siesta:   63      -31.3287      -31.3287      -31.3287   0.00004  -4.9698
siesta:   64      -31.3287      -31.3287      -31.3287   0.00004  -4.9698
siesta:   65      -31.3287      -31.3287      -31.3287   0.00004  -4.9698
siesta:   66      -31.3287      -31.3287      -31.3287   0.00004  -4.9698
siesta:   67      -31.3287      -31.3287      -31.3287   0.00004  -4.9698
siesta:   68      -31.3287      -31.3287      -31.3287   0.00003  -4.9698
siesta:   69      -31.3287      -31.3287      -31.3287   0.00003  -4.9698
siesta:   70      -31.3287      -31.3287      -31.3287   0.00003  -4.9698
siesta:   71      -31.3287      -31.3287      -31.3287   0.00003  -4.9698
siesta:   72      -31.3287      -31.3287      -31.3287   0.00003  -4.9698
siesta:   73      -31.3287      -31.3287      -31.3287   0.00003  -4.9698
siesta:   74      -31.3287      -31.3287      -31.3287   0.00003  -4.9698
siesta:   75      -31.3287      -31.3287      -31.3287   0.00003  -4.9698
siesta:   76      -31.3287      -31.3287      -31.3287   0.00003  -4.9698
siesta:   77      -31.3287      -31.3287      -31.3287   0.00003  -4.9698
siesta:   78      -31.3287      -31.3287      -31.3287   0.00003  -4.9698
siesta:   79      -31.3287      -31.3287      -31.3287   0.00003  -4.9699
siesta:   80      -31.3287      -31.3287      -31.3287   0.00003  -4.9699
siesta:   81      -31.3287      -31.3287      -31.3287   0.00003  -4.9699
siesta:   82      -31.3287      -31.3287      -31.3287   0.00002  -4.9699
siesta:   83      -31.3287      -31.3287      -31.3287   0.00002  -4.9699
siesta:   84      -31.3287      -31.3287      -31.3287   0.00002  -4.9699
siesta:   85      -31.3287      -31.3287      -31.3287   0.00002  -4.9699
siesta:   86      -31.3287      -31.3287      -31.3287   0.00002  -4.9699
siesta:   87      -31.3287      -31.3287      -31.3287   0.00002  -4.9699
siesta:   88      -31.3287      -31.3287      -31.3287   0.00002  -4.9699
siesta:   89      -31.3287      -31.3287      -31.3287   0.00002  -4.9699
siesta:   90      -31.3287      -31.3287      -31.3287   0.00002  -4.9699
siesta:   91      -31.3287      -31.3287      -31.3287   0.00002  -4.9699
grdsam: Grid-cell sampling, point   0
grdsam: Grid-cell sampling, point   1
grdsam: Grid-cell sampling, point   2
grdsam: Grid-cell sampling, point   3

siesta: E_KS(eV) =              -31.3287

siesta: Atomic forces (eV/Ang):
     1    0.000000    0.000000   -0.779729
     2    0.000000    0.000000    0.779687
----------------------------------------
 Tot    0.000000    0.000000   -0.000042
----------------------------------------
 Max    0.779729
 Res    0.450165    sqrt( Sum f_i^2 / 3N )
----------------------------------------
 Max    0.779729    constrained
 
mulliken: Atomic and Orbital Populations:

Species: H                   
Atom  Qatom  Qorb
               1s      1s      2py     2pz     2px     
   1  1.003   0.901   0.088   0.000   0.014   0.000
   2  0.997   0.894   0.088   0.000   0.015   0.000

mulliken: Qtot =    2.000
 
* Maximum dynamic memory allocated =   584 MB

siesta:                 ==============================
                        Begin FC step =     7 of    12
                            displace atom        2
                            in direction         1
                        by  -0.0378 Bohr =  -0.0200 Ang
                        ==============================

outcoor: Atomic coordinates (Ang):                          
    0.00000000    0.00000000   -0.00998254   1  H          1
   -0.02000000    0.00000000    0.73998166   1  H          2

siesta: iscf   Eharris(eV)      E_KS(eV)   FreeEng(eV)     dDmax   Ef(eV)
siesta:    1      -31.3365      -31.3344      -31.3344   0.00526  -4.8446
siesta:    2      -31.3363      -31.3363      -31.3363   0.00076  -4.9084
siesta:    3      -31.3363      -31.3361      -31.3361   0.00023  -4.9014
siesta:    4      -31.3363      -31.3363      -31.3363   0.00007  -4.9021
siesta:    5      -31.3363      -31.3363      -31.3363   0.00006  -4.9021
siesta:    6      -31.3363      -31.3363      -31.3363   0.00006  -4.9021
siesta:    7      -31.3363      -31.3363      -31.3363   0.00006  -4.9021
siesta:    8      -31.3363      -31.3363      -31.3363   0.00006  -4.9022
siesta:    9      -31.3363      -31.3363      -31.3363   0.00006  -4.9022
siesta:   10      -31.3363      -31.3363      -31.3363   0.00006  -4.9022
siesta:   11      -31.3363      -31.3363      -31.3363   0.00005  -4.9022
siesta:   12      -31.3363      -31.3363      -31.3363   0.00005  -4.9022
siesta:   13      -31.3363      -31.3363      -31.3363   0.00005  -4.9022
siesta:   14      -31.3363      -31.3363      -31.3363   0.00005  -4.9022
siesta:   15      -31.3363      -31.3363      -31.3363   0.00005  -4.9022
siesta:   16      -31.3363      -31.3363      -31.3363   0.00005  -4.9022
siesta:   17      -31.3363      -31.3363      -31.3363   0.00005  -4.9022
siesta:   18      -31.3363      -31.3363      -31.3363   0.00004  -4.9022
siesta:   19      -31.3363      -31.3363      -31.3363   0.00004  -4.9022
siesta:   20      -31.3363      -31.3363      -31.3363   0.00004  -4.9022
siesta:   21      -31.3363      -31.3363      -31.3363   0.00004  -4.9022
siesta:   22      -31.3363      -31.3363      -31.3363   0.00004  -4.9022
siesta:   23      -31.3363      -31.3363      -31.3363   0.00004  -4.9022
siesta:   24      -31.3363      -31.3363      -31.3363   0.00004  -4.9022
siesta:   25      -31.3363      -31.3363      -31.3363   0.00004  -4.9022
siesta:   26      -31.3363      -31.3363      -31.3363   0.00004  -4.9022
siesta:   27      -31.3363      -31.3363      -31.3363   0.00003  -4.9022
siesta:   28      -31.3363      -31.3363      -31.3363   0.00003  -4.9023
siesta:   29      -31.3363      -31.3363      -31.3363   0.00003  -4.9023
siesta:   30      -31.3363      -31.3363      -31.3363   0.00003  -4.9023
siesta:   31      -31.3363      -31.3363      -31.3363   0.00003  -4.9023
siesta:   32      -31.3363      -31.3363      -31.3363   0.00003  -4.9023
siesta:   33      -31.3363      -31.3363      -31.3363   0.00003  -4.9023
siesta:   34      -31.3363      -31.3363      -31.3363   0.00003  -4.9023
siesta:   35      -31.3363      -31.3363      -31.3363   0.00003  -4.9023
siesta:   36      -31.3363      -31.3363      -31.3363   0.00003  -4.9023
siesta:   37      -31.3363      -31.3363      -31.3363   0.00003  -4.9023
siesta:   38      -31.3363      -31.3363      -31.3363   0.00002  -4.9023
siesta:   39      -31.3363      -31.3363      -31.3363   0.00002  -4.9023
siesta:   40      -31.3363      -31.3363      -31.3363   0.00002  -4.9023
siesta:   41      -31.3363      -31.3363      -31.3363   0.00002  -4.9023
siesta:   42      -31.3363      -31.3363      -31.3363   0.00002  -4.9023
siesta:   43      -31.3363      -31.3363      -31.3363   0.00002  -4.9023
siesta:   44      -31.3363      -31.3363      -31.3363   0.00002  -4.9023
siesta:   45      -31.3363      -31.3363      -31.3363   0.00002  -4.9023
siesta:   46      -31.3363      -31.3363      -31.3363   0.00002  -4.9023
grdsam: Grid-cell sampling, point   0
grdsam: Grid-cell sampling, point   1
grdsam: Grid-cell sampling, point   2
grdsam: Grid-cell sampling, point   3

siesta: E_KS(eV) =              -31.3363

siesta: Atomic forces (eV/Ang):
     1   -0.000353    0.000000    0.009007
     2    0.000344    0.000000   -0.008834
----------------------------------------
 Tot   -0.000010    0.000000    0.000173
----------------------------------------
 Max    0.009007
 Res    0.005154    sqrt( Sum f_i^2 / 3N )
----------------------------------------
 Max    0.009007    constrained
 
mulliken: Atomic and Orbital Populations:

Species: H                   
Atom  Qatom  Qorb
               1s      1s      2py     2pz     2px     
   1  1.003   0.906   0.083   0.000   0.013   0.000
   2  0.997   0.899   0.083   0.000   0.015   0.000

mulliken: Qtot =    2.000
 
* Maximum dynamic memory allocated =   584 MB

siesta:                 ==============================
                        Begin FC step =     8 of    12
                            displace atom        2
                            in direction         1
                        by   0.0378 Bohr =   0.0200 Ang
                        ==============================

outcoor: Atomic coordinates (Ang):                          
    0.00000000    0.00000000   -0.00998254   1  H          1
    0.02000000    0.00000000    0.73998166   1  H          2

siesta: iscf   Eharris(eV)      E_KS(eV)   FreeEng(eV)     dDmax   Ef(eV)
siesta:    1      -31.3363      -31.3362      -31.3362   0.00130  -4.9024
siesta:    2      -31.3363      -31.3363      -31.3363   0.00005  -4.9024
siesta:    3      -31.3363      -31.3363      -31.3363   0.00001  -4.9024
grdsam: Grid-cell sampling, point   0
grdsam: Grid-cell sampling, point   1
grdsam: Grid-cell sampling, point   2
grdsam: Grid-cell sampling, point   3

siesta: E_KS(eV) =              -31.3363

siesta: Atomic forces (eV/Ang):
     1    0.000227    0.000000    0.008385
     2   -0.000218    0.000000   -0.008212
----------------------------------------
 Tot    0.000010    0.000000    0.000173
----------------------------------------
 Max    0.008385
 Res    0.004793    sqrt( Sum f_i^2 / 3N )
----------------------------------------
 Max    0.008385    constrained
 
mulliken: Atomic and Orbital Populations:

Species: H                   
Atom  Qatom  Qorb
               1s      1s      2py     2pz     2px     
   1  1.003   0.906   0.083   0.000   0.013   0.000
   2  0.997   0.899   0.083   0.000   0.015   0.000

mulliken: Qtot =    2.000
 
* Maximum dynamic memory allocated =   584 MB

siesta:                 ==============================
                        Begin FC step =     9 of    12
                            displace atom        2
                            in direction         2
                        by  -0.0378 Bohr =  -0.0200 Ang
                        ==============================

outcoor: Atomic coordinates (Ang):                          
    0.00000000    0.00000000   -0.00998254   1  H          1
    0.00000000   -0.02000000    0.73998166   1  H          2

siesta: iscf   Eharris(eV)      E_KS(eV)   FreeEng(eV)     dDmax   Ef(eV)
siesta:    1      -31.3363      -31.3363      -31.3363   0.00065  -4.9025
siesta:    2      -31.3363      -31.3363      -31.3363   0.00002  -4.9024
siesta:    3      -31.3363      -31.3363      -31.3363   0.00000  -4.9024
grdsam: Grid-cell sampling, point   0
grdsam: Grid-cell sampling, point   1
grdsam: Grid-cell sampling, point   2
grdsam: Grid-cell sampling, point   3

siesta: E_KS(eV) =              -31.3363

siesta: Atomic forces (eV/Ang):
     1    0.000000   -0.000228    0.008421
     2    0.000001    0.000219   -0.008248
----------------------------------------
 Tot    0.000001   -0.000010    0.000173
----------------------------------------
 Max    0.008421
 Res    0.004814    sqrt( Sum f_i^2 / 3N )
----------------------------------------
 Max    0.008421    constrained
 
mulliken: Atomic and Orbital Populations:

Species: H                   
Atom  Qatom  Qorb
               1s      1s      2py     2pz     2px     
   1  1.003   0.906   0.083   0.000   0.013   0.000
   2  0.997   0.899   0.083   0.000   0.015   0.000

mulliken: Qtot =    2.000
 
* Maximum dynamic memory allocated =   584 MB

siesta:                 ==============================
                        Begin FC step =    10 of    12
                            displace atom        2
                            in direction         2
                        by   0.0378 Bohr =   0.0200 Ang
                        ==============================

outcoor: Atomic coordinates (Ang):                          
    0.00000000    0.00000000   -0.00998254   1  H          1
    0.00000000    0.02000000    0.73998166   1  H          2

siesta: iscf   Eharris(eV)      E_KS(eV)   FreeEng(eV)     dDmax   Ef(eV)
siesta:    1      -31.3363      -31.3363      -31.3363   0.00130  -4.9025
siesta:    2      -31.3363      -31.3363      -31.3363   0.00005  -4.9024
siesta:    3      -31.3363      -31.3363      -31.3363   0.00000  -4.9024
grdsam: Grid-cell sampling, point   0
grdsam: Grid-cell sampling, point   1
grdsam: Grid-cell sampling, point   2
grdsam: Grid-cell sampling, point   3

siesta: E_KS(eV) =              -31.3363

siesta: Atomic forces (eV/Ang):
     1   -0.000001    0.000228    0.008418
     2    0.000000   -0.000219   -0.008245
----------------------------------------
 Tot   -0.000001    0.000010    0.000173
----------------------------------------
 Max    0.008418
 Res    0.004812    sqrt( Sum f_i^2 / 3N )
----------------------------------------
 Max    0.008418    constrained
 
mulliken: Atomic and Orbital Populations:

Species: H                   
Atom  Qatom  Qorb
               1s      1s      2py     2pz     2px     
   1  1.003   0.906   0.083   0.000   0.013   0.000
   2  0.997   0.899   0.083   0.000   0.015   0.000

mulliken: Qtot =    2.000
 
* Maximum dynamic memory allocated =   584 MB

siesta:                 ==============================
                        Begin FC step =    11 of    12
                            displace atom        2
                            in direction         3
                        by  -0.0378 Bohr =  -0.0200 Ang
                        ==============================

outcoor: Atomic coordinates (Ang):                          
    0.00000000    0.00000000   -0.00998254   1  H          1
    0.00000000    0.00000000    0.71998166   1  H          2

siesta: iscf   Eharris(eV)      E_KS(eV)   FreeEng(eV)     dDmax   Ef(eV)
siesta:    1      -31.3289      -31.3267      -31.3267   0.00527  -5.0258
siesta:    2      -31.3287      -31.3286      -31.3286   0.00079  -4.9602
siesta:    3      -31.3287      -31.3285      -31.3285   0.00023  -4.9677
siesta:    4      -31.3287      -31.3287      -31.3287   0.00007  -4.9665
siesta:    5      -31.3287      -31.3287      -31.3287   0.00007  -4.9665
siesta:    6      -31.3287      -31.3287      -31.3287   0.00006  -4.9665
siesta:    7      -31.3287      -31.3287      -31.3287   0.00006  -4.9665
siesta:    8      -31.3287      -31.3287      -31.3287   0.00006  -4.9665
siesta:    9      -31.3287      -31.3287      -31.3287   0.00006  -4.9665
siesta:   10      -31.3287      -31.3287      -31.3287   0.00006  -4.9665
siesta:   11      -31.3287      -31.3287      -31.3287   0.00006  -4.9665
siesta:   12      -31.3287      -31.3287      -31.3287   0.00005  -4.9665
siesta:   13      -31.3287      -31.3287      -31.3287   0.00005  -4.9665
siesta:   14      -31.3287      -31.3287      -31.3287   0.00005  -4.9665
siesta:   15      -31.3287      -31.3287      -31.3287   0.00005  -4.9665
siesta:   16      -31.3287      -31.3287      -31.3287   0.00005  -4.9665
siesta:   17      -31.3287      -31.3287      -31.3287   0.00005  -4.9665
siesta:   18      -31.3287      -31.3287      -31.3287   0.00005  -4.9665
siesta:   19      -31.3287      -31.3287      -31.3287   0.00004  -4.9665
siesta:   20      -31.3287      -31.3287      -31.3287   0.00004  -4.9665
siesta:   21      -31.3287      -31.3287      -31.3287   0.00004  -4.9665
siesta:   22      -31.3287      -31.3287      -31.3287   0.00004  -4.9665
siesta:   23      -31.3287      -31.3287      -31.3287   0.00004  -4.9665
siesta:   24      -31.3287      -31.3287      -31.3287   0.00004  -4.9665
siesta:   25      -31.3287      -31.3287      -31.3287   0.00004  -4.9665
siesta:   26      -31.3287      -31.3287      -31.3287   0.00004  -4.9665
siesta:   27      -31.3287      -31.3287      -31.3287   0.00004  -4.9665
siesta:   28      -31.3287      -31.3287      -31.3287   0.00004  -4.9666
siesta:   29      -31.3287      -31.3287      -31.3287   0.00003  -4.9666
siesta:   30      -31.3287      -31.3287      -31.3287   0.00003  -4.9666
siesta:   31      -31.3287      -31.3287      -31.3287   0.00003  -4.9666
siesta:   32      -31.3287      -31.3287      -31.3287   0.00003  -4.9666
siesta:   33      -31.3287      -31.3287      -31.3287   0.00003  -4.9666
siesta:   34      -31.3287      -31.3287      -31.3287   0.00003  -4.9666
siesta:   35      -31.3287      -31.3287      -31.3287   0.00003  -4.9666
siesta:   36      -31.3287      -31.3287      -31.3287   0.00003  -4.9666
siesta:   37      -31.3287      -31.3287      -31.3287   0.00003  -4.9666
siesta:   38      -31.3287      -31.3287      -31.3287   0.00003  -4.9666
siesta:   39      -31.3287      -31.3287      -31.3287   0.00003  -4.9666
siesta:   40      -31.3287      -31.3287      -31.3287   0.00003  -4.9666
siesta:   41      -31.3287      -31.3287      -31.3287   0.00002  -4.9666
siesta:   42      -31.3287      -31.3287      -31.3287   0.00002  -4.9666
siesta:   43      -31.3287      -31.3287      -31.3287   0.00002  -4.9666
siesta:   44      -31.3287      -31.3287      -31.3287   0.00002  -4.9666
siesta:   45      -31.3287      -31.3287      -31.3287   0.00002  -4.9666
siesta:   46      -31.3287      -31.3287      -31.3287   0.00002  -4.9666
siesta:   47      -31.3287      -31.3287      -31.3287   0.00002  -4.9666
siesta:   48      -31.3287      -31.3287      -31.3287   0.00002  -4.9666
siesta:   49      -31.3287      -31.3287      -31.3287   0.00002  -4.9666
grdsam: Grid-cell sampling, point   0
grdsam: Grid-cell sampling, point   1
grdsam: Grid-cell sampling, point   2
grdsam: Grid-cell sampling, point   3

siesta: E_KS(eV) =              -31.3287

siesta: Atomic forces (eV/Ang):
     1    0.000000   -0.000036   -0.778245
     2    0.000000    0.000036    0.778553
----------------------------------------
 Tot    0.000000    0.000000    0.000307
----------------------------------------
 Max    0.778553
 Res    0.449409    sqrt( Sum f_i^2 / 3N )
----------------------------------------
 Max    0.778553    constrained
 
mulliken: Atomic and Orbital Populations:

Species: H                   
Atom  Qatom  Qorb
               1s      1s      2py     2pz     2px     
   1  1.003   0.901   0.088   0.000   0.014   0.000
   2  0.997   0.894   0.088   0.000   0.015   0.000

mulliken: Qtot =    2.000
 
* Maximum dynamic memory allocated =   584 MB

siesta:                 ==============================
                        Begin FC step =    12 of    12
                            displace atom        2
                            in direction         3
                        by   0.0378 Bohr =   0.0200 Ang
                        ==============================

outcoor: Atomic coordinates (Ang):                          
    0.00000000    0.00000000   -0.00998254   1  H          1
    0.00000000    0.00000000    0.75998166   1  H          2

siesta: iscf   Eharris(eV)      E_KS(eV)   FreeEng(eV)     dDmax   Ef(eV)
siesta:    1      -31.3301      -31.3221      -31.3221   0.01031  -4.7244
siesta:    2      -31.3295      -31.3294      -31.3294   0.00143  -4.8457
siesta:    3      -31.3295      -31.3287      -31.3287   0.00044  -4.8329
siesta:    4      -31.3295      -31.3294      -31.3294   0.00018  -4.8340
siesta:    5      -31.3295      -31.3294      -31.3294   0.00018  -4.8340
siesta:    6      -31.3295      -31.3294      -31.3294   0.00017  -4.8340
siesta:    7      -31.3295      -31.3294      -31.3294   0.00017  -4.8340
siesta:    8      -31.3295      -31.3294      -31.3294   0.00016  -4.8341
siesta:    9      -31.3295      -31.3294      -31.3294   0.00016  -4.8341
siesta:   10      -31.3295      -31.3294      -31.3294   0.00015  -4.8341
siesta:   11      -31.3295      -31.3294      -31.3294   0.00015  -4.8341
siesta:   12      -31.3295      -31.3294      -31.3294   0.00015  -4.8341
siesta:   13      -31.3295      -31.3294      -31.3294   0.00014  -4.8342
siesta:   14      -31.3295      -31.3294      -31.3294   0.00014  -4.8342
siesta:   15      -31.3295      -31.3294      -31.3294   0.00013  -4.8342
siesta:   16      -31.3295      -31.3294      -31.3294   0.00013  -4.8342
siesta:   17      -31.3295      -31.3294      -31.3294   0.00013  -4.8342
siesta:   18      -31.3295      -31.3294      -31.3294   0.00012  -4.8342
siesta:   19      -31.3295      -31.3294      -31.3294   0.00012  -4.8343
siesta:   20      -31.3295      -31.3294      -31.3294   0.00012  -4.8343
siesta:   21      -31.3295      -31.3294      -31.3294   0.00011  -4.8343
siesta:   22      -31.3295      -31.3294      -31.3294   0.00011  -4.8343
siesta:   23      -31.3295      -31.3294      -31.3294   0.00011  -4.8343
siesta:   24      -31.3295      -31.3294      -31.3294   0.00010  -4.8343
siesta:   25      -31.3295      -31.3294      -31.3294   0.00010  -4.8343
siesta:   26      -31.3295      -31.3294      -31.3294   0.00010  -4.8344
siesta:   27      -31.3295      -31.3294      -31.3294   0.00010  -4.8344
siesta:   28      -31.3295      -31.3294      -31.3294   0.00009  -4.8344
siesta:   29      -31.3295      -31.3294      -31.3294   0.00009  -4.8344
siesta:   30      -31.3295      -31.3294      -31.3294   0.00009  -4.8344
siesta:   31      -31.3295      -31.3294      -31.3294   0.00009  -4.8344
siesta:   32      -31.3295      -31.3294      -31.3294   0.00008  -4.8344
siesta:   33      -31.3295      -31.3294      -31.3294   0.00008  -4.8344
siesta:   34      -31.3295      -31.3294      -31.3294   0.00008  -4.8345
siesta:   35      -31.3295      -31.3294      -31.3294   0.00008  -4.8345
siesta:   36      -31.3295      -31.3294      -31.3294   0.00007  -4.8345
siesta:   37      -31.3295      -31.3294      -31.3294   0.00007  -4.8345
siesta:   38      -31.3295      -31.3294      -31.3294   0.00007  -4.8345
siesta:   39      -31.3295      -31.3294      -31.3294   0.00007  -4.8345
siesta:   40      -31.3295      -31.3294      -31.3294   0.00007  -4.8345
siesta:   41      -31.3295      -31.3294      -31.3294   0.00006  -4.8345
siesta:   42      -31.3295      -31.3294      -31.3294   0.00006  -4.8345
siesta:   43      -31.3295      -31.3294      -31.3294   0.00006  -4.8346
siesta:   44      -31.3295      -31.3294      -31.3294   0.00006  -4.8346
siesta:   45      -31.3295      -31.3294      -31.3294   0.00006  -4.8346
siesta:   46      -31.3295      -31.3294      -31.3294   0.00006  -4.8346
siesta:   47      -31.3295      -31.3294      -31.3294   0.00006  -4.8346
siesta:   48      -31.3295      -31.3294      -31.3294   0.00005  -4.8346
siesta:   49      -31.3295      -31.3294      -31.3294   0.00005  -4.8346
siesta:   50      -31.3295      -31.3294      -31.3294   0.00005  -4.8346
siesta:   51      -31.3295      -31.3294      -31.3294   0.00005  -4.8346
siesta:   52      -31.3295      -31.3294      -31.3294   0.00005  -4.8346
siesta:   53      -31.3295      -31.3294      -31.3294   0.00005  -4.8346
siesta:   54      -31.3295      -31.3294      -31.3294   0.00005  -4.8346
siesta:   55      -31.3295      -31.3294      -31.3294   0.00004  -4.8346
siesta:   56      -31.3295      -31.3294      -31.3294   0.00004  -4.8347
siesta:   57      -31.3295      -31.3294      -31.3294   0.00004  -4.8347
siesta:   58      -31.3295      -31.3294      -31.3294   0.00004  -4.8347
siesta:   59      -31.3295      -31.3294      -31.3294   0.00004  -4.8347
siesta:   60      -31.3295      -31.3294      -31.3294   0.00004  -4.8347
siesta:   61      -31.3295      -31.3294      -31.3294   0.00004  -4.8347
siesta:   62      -31.3295      -31.3294      -31.3294   0.00004  -4.8347
siesta:   63      -31.3295      -31.3294      -31.3294   0.00004  -4.8347
siesta:   64      -31.3295      -31.3294      -31.3294   0.00003  -4.8347
siesta:   65      -31.3295      -31.3294      -31.3294   0.00003  -4.8347
siesta:   66      -31.3295      -31.3294      -31.3294   0.00003  -4.8347
siesta:   67      -31.3295      -31.3294      -31.3294   0.00003  -4.8347
siesta:   68      -31.3295      -31.3294      -31.3294   0.00003  -4.8347
siesta:   69      -31.3295      -31.3294      -31.3294   0.00003  -4.8347
siesta:   70      -31.3295      -31.3294      -31.3294   0.00003  -4.8347
siesta:   71      -31.3295      -31.3294      -31.3294   0.00003  -4.8347
siesta:   72      -31.3295      -31.3294      -31.3294   0.00003  -4.8347
siesta:   73      -31.3295      -31.3294      -31.3294   0.00003  -4.8348
siesta:   74      -31.3295      -31.3294      -31.3294   0.00003  -4.8348
siesta:   75      -31.3295      -31.3294      -31.3294   0.00003  -4.8348
siesta:   76      -31.3295      -31.3294      -31.3294   0.00003  -4.8348
siesta:   77      -31.3295      -31.3294      -31.3294   0.00002  -4.8348
siesta:   78      -31.3295      -31.3294      -31.3294   0.00002  -4.8348
siesta:   79      -31.3295      -31.3294      -31.3294   0.00002  -4.8348
siesta:   80      -31.3295      -31.3294      -31.3294   0.00002  -4.8348
siesta:   81      -31.3295      -31.3294      -31.3294   0.00002  -4.8348
siesta:   82      -31.3295      -31.3294      -31.3294   0.00002  -4.8348
siesta:   83      -31.3295      -31.3294      -31.3294   0.00002  -4.8348
siesta:   84      -31.3295      -31.3294      -31.3294   0.00002  -4.8348
siesta:   85      -31.3295      -31.3294      -31.3294   0.00002  -4.8348
grdsam: Grid-cell sampling, point   0
grdsam: Grid-cell sampling, point   1
grdsam: Grid-cell sampling, point   2
grdsam: Grid-cell sampling, point   3

siesta: E_KS(eV) =              -31.3295

siesta: Atomic forces (eV/Ang):
     1    0.000000    0.000000    0.664425
     2    0.000000    0.000000   -0.664314
----------------------------------------
 Tot    0.000000    0.000000    0.000111
----------------------------------------
 Max    0.664425
 Res    0.383574    sqrt( Sum f_i^2 / 3N )
----------------------------------------
 Max    0.664425    constrained
 
mulliken: Atomic and Orbital Populations:

Species: H                   
Atom  Qatom  Qorb
               1s      1s      2py     2pz     2px     
   1  1.003   0.911   0.079   0.000   0.013   0.000
   2  0.997   0.904   0.079   0.000   0.015   0.000

mulliken: Qtot =    2.000
 
* Maximum dynamic memory allocated =   584 MB

outcoor: Final (unrelaxed) atomic coordinates (Ang):        
    0.00000000    0.00000000   -0.00998254   1  H          1
    0.00000000    0.00000000    0.73998166   1  H          2

siesta: Eigenvalues (eV):
  ik is    eps
   1  1 -10.97   1.35   4.18   4.18   9.67  10.77  10.77  17.35  44.23  89.12
siesta: Fermi energy =      -4.834803 eV

siesta: Program's energy decomposition (eV):
siesta:-Eions   =     -26.074526
siesta: Ena     =       4.056698
siesta: Ekin    =      25.968569
siesta: Enl     =     -16.711199
siesta: DEna    =      -1.361003
siesta: DUscf   =       0.229595
siesta: DUext   =      -0.000675
siesta: Exc     =     -17.436913
siesta: eta*DQ  =       0.000000
siesta: Emadel  =       0.000000
siesta: Ekinion =       0.000000
siesta: Eharris =     -31.329462
siesta: Eso     =       0.000000
siesta: Etot    =     -31.329454
siesta: FreeEng =     -31.329454

siesta: Final energy (eV):
siesta:       Kinetic =      25.968569
siesta:       Hartree =      28.976843
siesta:    Ext. field =      -0.000675
siesta:   Exch.-corr. =     -17.436913
siesta:  Ion-electron =     -83.468044
siesta:       Ion-ion =      14.630766
siesta:       Ekinion =       0.000000
siesta:         Total =     -31.329454

siesta: Atomic forces (eV/Ang):
siesta:    1    0.000000    0.000000    0.664425
siesta:    2    0.000000    0.000000   -0.664314
siesta: ----------------------------------------
siesta:  Tot    0.000000    0.000000    0.000111

siesta: Stress tensor (static) (eV/Ang**3):
siesta:     0.000000    0.000000    0.000000
siesta:     0.000000    0.000000    0.000000
siesta:     0.000000    0.000000    0.000064

siesta: Cell volume =       8000.000000 Ang**3

siesta: Pressure (static):
siesta:                Solid            Molecule  Units
siesta:          -0.00000023          0.00000000  Ry/Bohr**3
siesta:          -0.00002143         -0.00000012  eV/Ang**3
siesta:          -0.03433380         -0.00018432  kBar

siesta: Total spin polarization (Qup-Qdown) =    0.000000
siesta: Spin vector =    0.000000    0.000000    0.000000
siesta: No SpinPolK block detected...

siesta: Electric dipole (a.u.)  =    0.000000    0.000000    0.013427
siesta: Electric dipole (Debye) =    0.000000    0.000000    0.034127

siesta: Vibrational frequency (cm^-1) & IR (a.u.) (Acoustic sum rule):
 eigenvalue #    1   omega =   -0.000038    IR =    0.000000 
 eigenvalue #    2   omega =    0.000000    IR =    0.000000 
 eigenvalue #    3   omega =    0.000048    IR =    0.000000 
 eigenvalue #    4   omega =   78.422663    IR =    0.000034 
 eigenvalue #    5   omega =   85.140612    IR =    0.000035 
 eigenvalue #    6   omega = 4409.028037    IR =    0.000848 
 
* Maximum dynamic memory allocated : Node    0 =   584 MB
* Maximum dynamic memory allocated : Node    1 =   580 MB
* Maximum dynamic memory allocated : Node    2 =   583 MB
* Maximum dynamic memory allocated : Node    3 =   580 MB
* Maximum memory occured during redistribXZ                   

timer: CPU execution times:
timer:  Routine       Calls   Time/call    Tot.time        %
timer:  siesta            1   16359.946   16359.946   100.00
timer:  Setup             1       1.297       1.297     0.01
timer:  bands             1       0.002       0.002     0.00
timer:  writewave         1       0.004       0.004     0.00
timer:  KSV_init          1       0.000       0.000     0.00
timer:  IterMD           13    1252.324   16280.215    99.51
timer:  hsparse          14       0.000       0.007     0.00
timer:  overfsm          26       0.002       0.058     0.00
timer:  IterSCF         352      46.241   16276.822    99.49
timer:  kinefsm          26       0.001       0.035     0.00
timer:  nlefsm           26       0.033       0.845     0.01
timer:  DHSCF           392      41.701   16346.793    99.92
timer:  DHSCF1            1      12.671      12.671     0.08
timer:  DHSCF2           53      24.492    1298.066     7.93
timer:  REORD          5596       0.153     858.757     5.25
timer:  POISON          445      22.432    9982.176    61.02
timer:  DHSCF3          392      38.130   14946.984    91.36
timer:  rhoofd          392       0.272     106.461     0.65
timer:  CELLXC          392       4.890    1916.893    11.72
timer:  vmat            352       0.137      48.291     0.30
timer:  diagon          339       0.019       6.442     0.04
timer:  rdiag           339       0.012       3.917     0.02
timer:  DHSCF4           52       1.501      78.046     0.48
timer:  dfscf            52       1.206      62.712     0.38
  
>> End of run:   5-OCT-2013  14:14:00
