ATOMS
H             0.00000000      0.00000000     -0.00998254             0.70710671     -0.00024527      0.00020468
H             0.00000000      0.00000000      0.73998166            -0.70710671      0.00024527     -0.00020468
