ATOMS
H             0.00000000      0.00000000     -0.00998254             0.70710670      0.00029190      0.00018360
H             0.00000000      0.00000000      0.73998166            -0.70710670     -0.00029190     -0.00018360
