Siesta Version: ismeagol.1.0
Architecture  : thomas-intel2017update1-intelmpi-mkl
Compiler flags: mpif90 -O2 -fPIC -g -ftree-vectorize -xHost
PARALLEL version

* Running on   20 nodes in parallel
>> Start of run:   3-NOV-2023  18:56:47

                           ***********************       
                           *  WELCOME TO SIESTA  *       
                           ***********************       

reinit: Reading from standard input
************************** Dump of input data file ****************************
SystemName		    Bulk transport		# Descriptive name of the system
SystemLabel 			bulk		# Short name for naming files
NumberOfAtoms    32
NumberOfSpecies			1               # Number of species
PAO.BasisType			split		# Type of basis ('nones', 'nonodes', 'split')
%block ChemicalSpeciesLabel
1 79 Au
%endblock ChemicalSpeciesLabel
%block PAO.Basis
  Au  2
n=6  0  1
6.500
1.00
n=5  2  1
5.850
1.00
%endblock PAO.Basis
%block PS.lmax
 Au   3
%endblock PS.lmax
LatticeConstant 1.000 Ang
%block LatticeVectors
  8.336     0.000   0.000	  1
  0.000   8.336    0.000   1
  0.000   0.000      8.336  1
%endblock LatticeVectors
AtomicCoordinatesFormat Ang
%block AtomicCoordinatesAndAtomicSpecies
0.0 0.0 0.0 1 Au
0.0 4.168 0.0 1 Au
2.084 2.084 0.0 1 Au
2.084 6.252 0.0 1 Au
4.168 0.0 0.0 1 Au
4.168 4.168 0.0 1 Au
6.252 2.084 0.0 1 Au
6.252 6.252 0.0 1 Au
0.0 2.084 2.084 1 Au
0.0 6.252 2.084 1 Au
2.084 0.0 2.084 1 Au
2.084 4.168 2.084 1 Au
4.168 2.084 2.084 1 Au
4.168 6.252 2.084 1 Au
6.252 0.0 2.084 1 Au
6.252 4.168 2.084 1 Au
0.0 0.0 4.168 1 Au
0.0 4.168 4.168 1 Au
2.084 2.084 4.168 1 Au
2.084 6.252 4.168 1 Au
4.168 0.0 4.168 1 Au
4.168 4.168 4.168 1 Au
6.252 2.084 4.168 1 Au
6.252 6.252 4.168 1 Au
0.0 2.084 6.252 1 Au
0.0 6.252 6.252 1 Au
2.084 0.0 6.252 1 Au
2.084 4.168 6.252 1 Au
4.168 2.084 6.252 1 Au
4.168 6.252 6.252 1 Au
6.252 0.0 6.252 1 Au
6.252 4.168 6.252 1 Au
%endblock AtomicCoordinatesAndAtomicSpecies 	
%block kgrid_Monkhorst_Pack
  2   0   0     0.0
  0   2   0     0.0
  0   0   20    0.0
%endblock kgrid_Monkhorst_Pack
xc.functional		LDA		# 'LDA', 'GGA'
xc.authors 	 		CA		# 'CA'='PZ', 'PW92', 'PBE'
SpinPolarized			F		# 'T', 'F'		
#FixSpin           F
#TotalSpin        0.0
NonCollinearSpin		F		# 'T', 'F'
MeshCutoff 	 		    200 Ry		# Equivalent plane wave cutoff for the grid
MaxSCFIterations		10000
DM.MixingWeight			0.1
DM.NumberPulay			4	# Pulay convergency accelerator
DM.PulayOnFile			F		# Store in memory ('F') or in files ('T')
#DM.NumberKick         30
#DM.KickMixingWeight   0.1
DM.Tolerance 		0.5E-5
NeglNonOverlapInt		F		# 'F'=do not neglect
SolutionMethod			diagon
ElectronicTemperature		300 K		# Default value
DM.UseSaveDM 			T
#MD.UseSaveXV			T
#MD.UseSaveCG			T
WriteForces      T
WriteCoorXmol			T		# Write Atoms coordinates
SaveElectrostaticPotential      T
#SaveHS				T		# Save the Hamiltonian and Overlap matrices
SaveRho				T		# Save the valence pseudocharge density
#SaveDeltaRho			T
#WriteDenchar			T		# Write Denchar output
WriteMullikenPop		1 #write mulliken population of aromic and orbital charges
#-----
#smeagol
#-----
BulkTransport			T
BulkLeads			LR
************************** End of input data file *****************************

reinit: -----------------------------------------------------------------------
reinit: System Name: Bulk transport
reinit: -----------------------------------------------------------------------
reinit: System Label: bulk                                                        
reinit: -----------------------------------------------------------------------

initatom: Reading input for the pseudopotentials and atomic orbitals ----------
 Species number:            1  Label: Au Atomic number:          79
Ground state valence configuration:   6s01  5d10
Reading pseudopotential information in formatted form from Au.psf

Pseudopotential generated from a relativistic atomic calculation
There are spin-orbit pseudopotentials available
Spin-orbit interaction is not included in this calculation

Valence configuration for pseudopotential generation:
6s( 1.00) rc: 2.18
6p( 0.00) rc: 2.47
5d(10.00) rc: 1.79
5f( 0.00) rc: 2.00
relmxkb: Read Max KB Ang. Momentum=    3 for species Au
 Warning: Empty PAO shell. l =           1
 Will have a KB projector anyway...

<basis_specs>
===============================================================================
Au                   Z=  79    Mass=  196.97        Charge= 0.17977+309
Lmxo=2 Lmxkb= 3    BasisType=split      Semic=F
L=0  Nsemic=0  Cnfigmx=6
          n=1  nzeta=1  polorb=0
            splnorm:   0.15000    
               vcte:    0.0000    
               rinn:    0.0000    
                rcs:    6.5000    
            lambdas:    1.0000    
L=1  Nsemic=0  Cnfigmx=6
L=2  Nsemic=0  Cnfigmx=5
          n=1  nzeta=1  polorb=0
            splnorm:   0.15000    
               vcte:    0.0000    
               rinn:    0.0000    
                rcs:    5.8500    
            lambdas:    1.0000    
-------------------------------------------------------------------------------
L=0  Nkbl=1  erefs: 0.17977+309
L=1  Nkbl=1  erefs: 0.17977+309
L=2  Nkbl=1  erefs: 0.17977+309
L=3  Nkbl=1  erefs: 0.17977+309
===============================================================================
</basis_specs>

atom: Called for Au                    (Z =  79)

read_vps: Pseudopotential generation method:
read_vps: ATM3      Troullier-Martins                       
Total valence charge:   11.00000

read_vps: Pseudopotential includes a core correction:
read_vps: Pseudo-core for xc-correction

xc_check: Exchange-correlation functional:
xc_check: Ceperley-Alder
V l=0 = -2*Zval/r beyond r=  2.9833
V l=1 = -2*Zval/r beyond r=  2.9833
V l=2 = -2*Zval/r beyond r=  2.9833
V l=3 = -2*Zval/r beyond r=  2.9833
All V_l potentials equal beyond r=  2.4425
This should be close to max(r_c) in ps generation
All pots = -2*Zval/r beyond r=  2.9833

VLOCAL1: 99.0% of the norm of Vloc inside      7.276 Ry
VLOCAL1: 99.9% of the norm of Vloc inside     16.582 Ry
atom: Maximum radius for 4*pi*r*r*local-pseudopot. charge    2.94627
atom: Maximum radius for r*vlocal+2*Zval:    2.60007
GHOST: No ghost state for L =  0
GHOST: No ghost state for L =  1
GHOST: No ghost state for L =  2
GHOST: No ghost state for L =  3

KBgen: Kleinman-Bylander projectors: 
   l= 0   rc=  3.175745   el= -0.445638   Ekb=  5.072790   kbcos=  0.276607
   l= 1   rc=  3.256140   el= -0.066324   Ekb=  2.703235   kbcos=  0.227171
   l= 2   rc=  3.020861   el= -0.526103   Ekb= -4.704026   kbcos= -0.643795
   l= 3   rc=  3.466145   el=  0.003438   Ekb= -2.516122   kbcos= -0.010529

KBgen: Total number of  Kleinman-Bylander projectors:   16
atom: -------------------------------------------------------------------------

atom: SANKEY-TYPE ORBITALS:

SPLIT: Orbitals with angular momentum L= 0

SPLIT: Basis orbitals for state 6s

   izeta = 1
                 lambda =    1.000000
                     rc =    6.557093
                 energy =   -0.435455
                kinetic =    0.389259
    potential(screened) =   -0.824714
       potential(ionic) =   -8.467175

SPLIT: Orbitals with angular momentum L= 2

SPLIT: Basis orbitals for state 5d

   izeta = 1
                 lambda =    1.000000
                     rc =    5.933100
                 energy =   -0.524775
                kinetic =    4.913203
    potential(screened) =   -5.437978
       potential(ionic) =  -15.883506
atom: Total number of Sankey-type orbitals:  6

atm_pop: Valence configuration (for local Pseudopot. screening):
 6s( 1.00)                                                            
 6p( 0.00)                                                            
 5d(10.00)                                                            
Vna: chval, zval:   11.00000  11.00000

Vna:  Cut-off radius for the neutral-atom potential:   6.557093
comcore: Pseudo-core radius Rcore=  4.027091

atom: _________________________________________________________________________

prinput: Basis input ----------------------------------------------------------

PAO.BasisType split     

%block ChemicalSpeciesLabel
    1   79 Au                      # Species index, atomic number, species label
%endblock ChemicalSpeciesLabel

%block PAO.Basis                 # Define Basis set
Au                    2                    # Species label, number of l-shells
 n=6   0   1                         # n, l, Nzeta 
   6.557   
   1.000   
 n=5   2   1                         # n, l, Nzeta 
   5.933   
   1.000   
%endblock PAO.Basis

prinput: ----------------------------------------------------------------------

coor:   Atomic-coordinates input format  =     Cartesian coordinates
coor:                                          (in Angstroms)

siesta: Atomic coordinates (Bohr) and species
siesta:      0.00000   0.00000   0.00000  1        1
siesta:      0.00000   7.87638   0.00000  1        2
siesta:      3.93819   3.93819   0.00000  1        3
siesta:      3.93819  11.81457   0.00000  1        4
siesta:      7.87638   0.00000   0.00000  1        5
siesta:      7.87638   7.87638   0.00000  1        6
siesta:     11.81457   3.93819   0.00000  1        7
siesta:     11.81457  11.81457   0.00000  1        8
siesta:      0.00000   3.93819   3.93819  1        9
siesta:      0.00000  11.81457   3.93819  1       10
siesta:      3.93819   0.00000   3.93819  1       11
siesta:      3.93819   7.87638   3.93819  1       12
siesta:      7.87638   3.93819   3.93819  1       13
siesta:      7.87638  11.81457   3.93819  1       14
siesta:     11.81457   0.00000   3.93819  1       15
siesta:     11.81457   7.87638   3.93819  1       16
siesta:      0.00000   0.00000   7.87638  1       17
siesta:      0.00000   7.87638   7.87638  1       18
siesta:      3.93819   3.93819   7.87638  1       19
siesta:      3.93819  11.81457   7.87638  1       20
siesta:      7.87638   0.00000   7.87638  1       21
siesta:      7.87638   7.87638   7.87638  1       22
siesta:     11.81457   3.93819   7.87638  1       23
siesta:     11.81457  11.81457   7.87638  1       24
siesta:      0.00000   3.93819  11.81457  1       25
siesta:      0.00000  11.81457  11.81457  1       26
siesta:      3.93819   0.00000  11.81457  1       27
siesta:      3.93819   7.87638  11.81457  1       28
siesta:      7.87638   3.93819  11.81457  1       29
siesta:      7.87638  11.81457  11.81457  1       30
siesta:     11.81457   0.00000  11.81457  1       31
siesta:     11.81457   7.87638  11.81457  1       32

siesta: System type = bulk      

initatomlists: Number of atoms, orbitals, and projectors:     32   192   512

SMEAGOL: ******************* SMEAGOL Simulation parameters ********************
SMEAGOL:
SMEAGOL:       The following are some of the SMEAGOL parameters of the
SMEAGOL:       simulation. A complete list of the parameters used,
SMEAGOL:       including default values, can be found in file fdf.log.
SMEAGOL:
redata: Transport in extended molecule                =      F
redata: # of points in real energy axis integral      =   6000
redata: # of contour points in semi-circle            =     42
redata: # of contour points in line region            =     24
redata: # of poles in the Fermi function              =      7
redata: Initial value of the bias potential           =      0.0000 Ry
redata: Final value of the bias potential             =      0.1000 Ry
redata: # of bias potential points                    =     10
redata: Small imaginary part                          =      0.00010
redata: Lower bound for the contour integral          =     -5.0000 Ry
redata: 1 = Leads with different spin                 =      0
redata: Atom of the lead where bias slope starts      =      1
redata: Atom of the lead where bias slope ends        =     32
redata: # of bulk slices to include in EM             =      1
redata: Calculate transmission coefficients           =      F
redata: Set bulk transversal cell                     =      F
redata: Bulk transversal cell size                    =      3
redata: Write leads H and S matrices at .HSL          =      T
redata: Init transport                                =      F
redata: Force super cell in z direction = 3           =      F
redata: Calculated electronic structure for           =     LR
redata: Write converged DM (at bias/MD selected step) =      F
redata: Hartree Leads Left                            =      0.0000 Bohr
redata: Hartree Leads Right                           =      0.0000 Bohr
redata: Hartree Leads Bottom                          =      0.0000 Ry
redata: Periodic leads in perpendicular directions    =      F
redata: Thresholds at generalized SVD                 =      0.000000001000
redata: Write .orb, .ef and .gHS files                =      F
redata: Write .onlyS files                            =      F
redata: Invert only central region    =      F
redata: Calculate Forces    =      F
redata: ***********************************************************************

siesta: ******************** SIESTA Simulation parameters *********************
siesta:
siesta:       The following are some of the SIESTA parameters of the
siesta:       simulation. A complete list of the parameters used,
siesta:       including default values, can be found in file fdf.log.
siesta:
redata: Non-Collinear-spin run             =       F
redata: SpinPolarized (Up/Down) run        =       F
redata: Number of spin components          =       1
redata: Long output                        =       F
redata: Number of Atomic Species           =       1
redata: Charge density info will appear in .RHO file
redata: Write Mulliken Pop.                =     Atomic and Orbital charges
redata: Mesh Cutoff                        =     200.0000  Ry
redata: Net charge of the system           =       0.0000 |e|
redata: Max. number of SCF Iter            =   10000
redata: Performing Pulay mixing using      =       4 iterations
redata: Mix DM in first SCF step ?         =       F
redata: Write Pulay info on disk?          =       F
redata: Discard 1st Pulay DM after kick    =       F
redata: New DM Mixing Weight               =       0.1000
redata: New DM Occupancy tolerance         =       0.000000000001
redata: No kicks to SCF
redata: DM Mixing Weight for Kicks         =       0.5000
redata: DM Tolerance for SCF               =       0.000005
redata: Require Energy convergence for SCF =       F
redata: DM Energy tolerance for SCF        =       0.000100 eV
redata: Require Harris convergence for SCF =       F
redata: DM Harris energy tolerance for SCF =       0.000100 eV
redata: Using Saved Data (generic)         =       F
redata: Use continuation files for DM      =       T
redata: Neglect nonoverlap interactions    =       F
redata: Method of Calculation              =     Diagonalization
redata: Divide and Conquer                 =       T
redata: Electronic Temperature             =       0.0019  Ry
redata: Fix the spin of the system         =       F
redata: Dynamics option                    =     Verlet MD run
redata: Initial MD time step               =       1
redata: Final MD time step                 =       1
redata: Length of MD time step             =       1.0000  fs
redata: Initial Temperature of MD run      =       0.0000  K
redata: Perform a MD quench                =       F
redata: ***********************************************************************

Total number of electrons:   352.000000
Total ionic charge:   352.000000

* ProcessorY, Blocksize:    4  10

k-point displ. along   1 input, could be:     0.00    0.50
k-point displ. along   2 input, could be:     0.00    0.50
k-point displ. along   3 input, could be:     0.00    0.50
 Kpoints in:           44 . Kpoints trimmed:           44

siesta: k-grid: Number of k-points =    44
siesta: k-grid: Cutoff (effective) =     8.336 Ang
siesta: k-grid: Supercell and displacements
siesta: k-grid:    2   0   0      0.000
siesta: k-grid:    0   2   0      0.000
siesta: k-grid:    0   0  20      0.000
siesta: overlap:  rmaxh   veclen  direction
siesta: overlap:  20.0465 15.7528   1
siesta: overlap:  rmaxh   veclen  direction
siesta: overlap:  20.0465 15.7528   2
siesta: overlap:  rmaxh   veclen  direction
siesta: overlap:  20.0465 15.7528   3
Naive supercell factors:     3    3    3

superc: Internal auxiliary supercell:     3 x     3 x     3  =      27
superc: Number of atoms, orbitals, and projectors:    864   5184  13824

* Maximum dynamic memory allocated =     1 MB

siesta:                 ===============================
                            Begin MD step =      1
                        ===============================

superc: Internal auxiliary supercell:     3 x     3 x     3  =      27
superc: Number of atoms, orbitals, and projectors:    864   5184  13824

outcell: Unit cell vectors (Ang):
        8.336000    0.000000    0.000000
        0.000000    8.336000    0.000000
        0.000000    0.000000    8.336000

outcell: Cell vector modules (Ang)   :    8.336000    8.336000    8.336000
outcell: Cell angles (23,13,12) (deg):     90.0000     90.0000     90.0000
outcell: Cell volume (Ang**3)        :    579.2594
New_DM. Step:     1
Initializing Density Matrix...

InitMesh: MESH =    72 x    72 x    72 =      373248
InitMesh: Mesh cutoff (required, used) =   200.000   206.182 Ry

* Maximum dynamic memory allocated =    22 MB

stepf: Fermi-Dirac step function

siesta: Program's energy decomposition (eV):
siesta: Ebs     =     -2468.553278
siesta: Eions   =     38560.014795
siesta: Ena     =      2136.575095
siesta: Ekin    =     21561.171304
siesta: Enl     =     -8293.747949
siesta: DEna    =         0.000008
siesta: DUscf   =         0.000000
siesta: DUext   =         0.000000
siesta: Exc     =    -13379.013585
siesta: eta*DQ  =         0.000000
siesta: Emadel  =         0.000000
siesta: Emeta   =         0.000000
siesta: Emolmec =         0.000000
siesta: Ekinion =         0.000000
siesta: Eharris =    -36478.424455
siesta: Etot    =    -36535.029921
siesta: FreeEng =    -36535.029921

siesta: iscf   Eharris(eV)      E_KS(eV)   FreeEng(eV)   dDmax  Ef(eV)
siesta:    1   -36478.4245   -36535.0299   -36535.0299  0.1627 -2.4314
timer: Routine,Calls,Time,% = IterSCF        1      57.080  94.52
elaps: Routine,Calls,Wall,% = IterSCF        1       2.868  94.50
siesta:    2   -36478.3223   -36478.3043   -36478.3226  0.0126 -2.5306
siesta:    3   -36478.3214   -36478.5847   -36478.6032  0.0103 -2.5287
siesta:    4   -36478.3203   -36478.3193   -36478.3378  0.0001 -2.5179
siesta:    5   -36478.3204   -36478.3191   -36478.3376  0.0000 -2.5178
siesta:    6   -36478.3208   -36478.3207   -36478.3393  0.0000 -2.5178

siesta: E_KS(eV) =           -36478.3208

siesta: E_KS - E_eggbox =    -36478.3208

siesta: Atomic forces (eV/Ang):
     1    0.000023    0.000036    0.000043
     2    0.000031   -0.000003    0.000036
     3    0.000015   -0.000001    0.000032
     4    0.000007    0.000005    0.000023
     5    0.000008    0.000026    0.000045
     6    0.000012   -0.000003    0.000038
     7    0.000013   -0.000001    0.000040
     8    0.000005    0.000005    0.000018
     9    0.000038    0.000000    0.000022
    10    0.000015    0.000005    0.000004
    11    0.000010    0.000034    0.000032
    12    0.000010   -0.000000    0.000030
    13    0.000011   -0.000001    0.000028
    14    0.000002    0.000008    0.000012
    15    0.000006    0.000039    0.000021
    16    0.000015   -0.000001    0.000018
    17    0.000030    0.000042    0.000024
    18    0.000041   -0.000001    0.000023
    19    0.000015   -0.000002    0.000028
    20    0.000003    0.000004    0.000012
    21    0.000009    0.000036    0.000030
    22    0.000012   -0.000001    0.000031
    23    0.000019    0.000000    0.000022
    24   -0.000001    0.000001    0.000001
    25    0.000028    0.000001    0.000023
    26    0.000007    0.000003    0.000007
    27    0.000010    0.000023    0.000032
    28    0.000012   -0.000001    0.000030
    29    0.000015   -0.000002    0.000030
    30    0.000002    0.000008    0.000015
    31    0.000005    0.000027    0.000018
    32    0.000016   -0.000001    0.000022
----------------------------------------
   Tot    0.000445    0.000286    0.000788
----------------------------------------
   Max    0.000045
   Res    0.000021    sqrt( Sum f_i^2 / 3N )
----------------------------------------
   Max    0.000045    constrained

Stress-tensor-Voigt (kbar):      -35.79      -35.79      -23.55       -0.00       -0.00       -0.00
(Free)E + p*V (eV/cell)   -36466.8751
Target enthalpy (eV/cell)   -36478.3393

siesta: Stress tensor (static) (eV/Ang**3):
        -0.022337   -0.000000   -0.000000
        -0.000000   -0.022337   -0.000000
        -0.000000   -0.000000   -0.014699

siesta: Pressure (static):         31.70923809  kBar

siesta: Stress tensor (total) (eV/Ang**3):
        -0.022337   -0.000000   -0.000000
        -0.000000   -0.022337   -0.000000
        -0.000000   -0.000000   -0.014699

siesta: Pressure (total):         31.70923809  kBar
 
mulliken: Atomic and Orbital Populations:

Species: Au                  
Atom  Qatom  Qorb
               6s      5dxy    5dyz    5dz2    5dxz    5dx2-y2 
   1 11.000   1.221   1.943   1.943   1.975   1.943   1.975
   2 11.000   1.221   1.943   1.943   1.975   1.943   1.975
   3 11.000   1.221   1.943   1.943   1.975   1.943   1.975
   4 11.000   1.221   1.943   1.943   1.975   1.943   1.975
   5 11.000   1.221   1.943   1.943   1.975   1.943   1.975
   6 11.000   1.221   1.943   1.943   1.975   1.943   1.975
   7 11.000   1.221   1.943   1.943   1.975   1.943   1.975
   8 11.000   1.221   1.943   1.943   1.975   1.943   1.975
   9 11.000   1.221   1.943   1.943   1.975   1.943   1.975
  10 11.000   1.221   1.943   1.943   1.975   1.943   1.975
  11 11.000   1.221   1.943   1.943   1.975   1.943   1.975
  12 11.000   1.221   1.943   1.943   1.975   1.943   1.975
  13 11.000   1.221   1.943   1.943   1.975   1.943   1.975
  14 11.000   1.221   1.943   1.943   1.975   1.943   1.975
  15 11.000   1.221   1.943   1.943   1.975   1.943   1.975
  16 11.000   1.221   1.943   1.943   1.975   1.943   1.975
  17 11.000   1.221   1.943   1.943   1.975   1.943   1.975
  18 11.000   1.221   1.943   1.943   1.975   1.943   1.975
  19 11.000   1.221   1.943   1.943   1.975   1.943   1.975
  20 11.000   1.221   1.943   1.943   1.975   1.943   1.975
  21 11.000   1.221   1.943   1.943   1.975   1.943   1.975
  22 11.000   1.221   1.943   1.943   1.975   1.943   1.975
  23 11.000   1.221   1.943   1.943   1.975   1.943   1.975
  24 11.000   1.221   1.943   1.943   1.975   1.943   1.975
  25 11.000   1.221   1.943   1.943   1.975   1.943   1.975
  26 11.000   1.221   1.943   1.943   1.975   1.943   1.975
  27 11.000   1.221   1.943   1.943   1.975   1.943   1.975
  28 11.000   1.221   1.943   1.943   1.975   1.943   1.975
  29 11.000   1.221   1.943   1.943   1.975   1.943   1.975
  30 11.000   1.221   1.943   1.943   1.975   1.943   1.975
  31 11.000   1.221   1.943   1.943   1.975   1.943   1.975
  32 11.000   1.221   1.943   1.943   1.975   1.943   1.975

mulliken: Qtot =      352.000

siesta: Temp_ion =       0.000 K

* Maximum dynamic memory allocated =    23 MB

coxmol: Writing XMOL coordinates into file bulk.xyz                                                        

siesta: Program's energy decomposition (eV):
siesta: Ebs     =     -2507.496382
siesta: Eions   =     38560.014795
siesta: Ena     =      2136.575095
siesta: Ekin    =     21476.566118
siesta: Enl     =     -8194.323124
siesta: DEna    =        27.133093
siesta: DUscf   =         0.123900
siesta: DUext   =         0.000000
siesta: Exc     =    -13364.381055
siesta: eta*DQ  =         0.000000
siesta: Emadel  =         0.000000
siesta: Emeta   =         0.000000
siesta: Emolmec =         0.000000
siesta: Ekinion =         0.000000
siesta: Eharris =    -36478.320793
siesta: Etot    =    -36478.320769
siesta: FreeEng =    -36478.339324

siesta: Final energy (eV):
siesta:  Band Struct. =   -2507.496382
siesta:       Kinetic =   21476.566118
siesta:       Hartree =    3780.103727
siesta:    Ext. field =       0.000000
siesta:   Exch.-corr. =  -13364.381055
siesta:  Ion-electron =  -24174.528695
siesta:       Ion-ion =  -24196.080863
siesta:       Ekinion =       0.000000
siesta:         Total =  -36478.320769

siesta: Stress tensor (static) (eV/Ang**3):
siesta:    -0.022337   -0.000000   -0.000000
siesta:    -0.000000   -0.022337   -0.000000
siesta:    -0.000000   -0.000000   -0.014699

siesta: Cell volume =        579.259437 Ang**3

siesta: Pressure (static):
siesta:                Solid            Molecule  Units
siesta:           0.00021555          0.00021556  Ry/Bohr**3
siesta:           0.01979114          0.01979197  eV/Ang**3
siesta:          31.70923809         31.71056934  kBar
(Free)E+ p_basis*V_orbitals  =      -36466.170641
(Free)Eharris+ p_basis*V_orbitals  =      -36466.170703

SMEAGOL: The transport is along the z direction.

* Maximum dynamic memory allocated : Node    0 =    23 MB
* Maximum dynamic memory allocated : Node    1 =    22 MB
* Maximum dynamic memory allocated : Node    2 =    22 MB
* Maximum dynamic memory allocated : Node    3 =    22 MB
* Maximum dynamic memory allocated : Node    4 =    22 MB
* Maximum dynamic memory allocated : Node    5 =    23 MB
* Maximum dynamic memory allocated : Node    6 =    22 MB
* Maximum dynamic memory allocated : Node    7 =    22 MB
* Maximum dynamic memory allocated : Node    8 =    22 MB
* Maximum dynamic memory allocated : Node    9 =    22 MB
* Maximum dynamic memory allocated : Node   10 =    23 MB
* Maximum dynamic memory allocated : Node   11 =    22 MB
* Maximum dynamic memory allocated : Node   12 =    22 MB
* Maximum dynamic memory allocated : Node   13 =    22 MB
* Maximum dynamic memory allocated : Node   14 =    22 MB
* Maximum dynamic memory allocated : Node   15 =    23 MB
* Maximum dynamic memory allocated : Node   16 =    22 MB
* Maximum dynamic memory allocated : Node   17 =    22 MB
* Maximum dynamic memory allocated : Node   18 =    22 MB
* Maximum dynamic memory allocated : Node   19 =    21 MB

* Maximum memory occured during matrixMtoO                    

timer: CPU execution times:
timer:  Routine       Calls   Time/call    Tot.time        %
timer:  siesta            1     261.376     261.376   100.00
timer:  Setup             1       1.889       1.889     0.72
timer:  bands             1       0.006       0.006     0.00
timer:  writewave         1       0.017       0.017     0.01
timer:  KSV_init          1       0.002       0.002     0.00
timer:  IterMD            1     234.353     234.353    89.66
timer:  hsparse           1       0.133       0.133     0.05
timer:  overlap           1       0.807       0.807     0.31
timer:  IterSCF           6      36.827     220.960    84.54
timer:  kinefsm           2       0.380       0.759     0.29
timer:  nlefsm            2       6.268      12.535     4.80
timer:  DHSCF             8       3.839      30.709    11.75
timer:  DHSCF1            1       0.894       0.894     0.34
timer:  DHSCF2            1       9.343       9.343     3.57
timer:  REORD            70       0.000       0.029     0.01
timer:  POISON            9       0.045       0.409     0.16
timer:  DHSCF3            8       2.148      17.181     6.57
timer:  rhoofd            8       0.884       7.071     2.71
timer:  cellXC            8       0.055       0.439     0.17
timer:  vmat              7       1.135       7.947     3.04
timer:  MolMec            2       0.000       0.000     0.00
timer:  diagon            6      31.015     186.087    71.20
timer:  c-eigval        264       0.319      84.228    32.22
timer:  c-buildHS       264       0.003       0.691     0.26
timer:  cdiag           528       0.323     170.300    65.16
timer:  cdiag1          528       0.023      12.195     4.67
timer:  cdiag2          528       0.076      40.198    15.38
timer:  cdiag3          528       0.210     111.059    42.49
timer:  cdiag4          528       0.010       5.150     1.97
timer:  c-eigvec        264       0.331      87.382    33.43
timer:  c-buildD        264       0.054      14.144     5.41
timer:  DHSCF4            1       3.253       3.253     1.24
timer:  dfscf             1       1.840       1.840     0.70
timer:  overfsm           1       0.036       0.036     0.01
timer:  optical           1       0.479       0.479     0.18
  

elaps: ELAPSED times:
elaps:  Routine       Calls   Time/call    Tot.time        %
elaps:  siesta            1      13.133      13.133   100.00
elaps:  Setup             1       0.095       0.095     0.73
elaps:  bands             1       0.000       0.000     0.00
elaps:  writewave         1       0.001       0.001     0.01
elaps:  KSV_init          1       0.000       0.000     0.00
elaps:  IterMD            1      11.774      11.774    89.65
elaps:  hsparse           1       0.007       0.007     0.05
elaps:  overlap           1       0.042       0.042     0.32
elaps:  IterSCF           6       1.850      11.103    84.54
elaps:  kinefsm           2       0.020       0.039     0.30
elaps:  nlefsm            2       0.324       0.649     4.94
elaps:  DHSCF             8       0.194       1.551    11.81
elaps:  DHSCF1            1       0.045       0.045     0.34
elaps:  DHSCF2            1       0.469       0.469     3.57
elaps:  REORD            70       0.000       0.002     0.01
elaps:  POISON            9       0.002       0.021     0.16
elaps:  DHSCF3            8       0.108       0.862     6.56
elaps:  rhoofd            8       0.049       0.395     3.01
elaps:  cellXC            8       0.003       0.022     0.17
elaps:  vmat              7       0.057       0.398     3.03
elaps:  MolMec            2       0.000       0.000     0.00
elaps:  diagon            6       1.559       9.355    71.23
elaps:  c-eigval        264       0.016       4.235    32.25
elaps:  c-buildHS       264       0.000       0.037     0.28
elaps:  cdiag           528       0.016       8.542    65.04
elaps:  cdiag1          528       0.001       0.686     5.22
elaps:  cdiag2          528       0.004       1.961    14.93
elaps:  cdiag3          528       0.011       5.573    42.43
elaps:  cdiag4          528       0.000       0.257     1.96
elaps:  c-eigvec        264       0.017       4.377    33.33
elaps:  c-buildD        264       0.003       0.712     5.42
elaps:  DHSCF4            1       0.174       0.174     1.32
elaps:  dfscf             1       0.101       0.101     0.77
elaps:  overfsm           1       0.002       0.002     0.01
elaps:  optical           1       0.000       0.000     0.00
  
>> End of run:   3-NOV-2023  18:57:00
