Siesta Version: ismeagol.1.0
Architecture  : thomas-intel2017update1-intelmpi-mkl
Compiler flags: mpif90 -O2 -fPIC -g -ftree-vectorize -xHost
PARALLEL version

* Running on   20 nodes in parallel
>> Start of run:   3-NOV-2023  19:00:44

                           ***********************       
                           *  WELCOME TO SIESTA  *       
                           ***********************       

reinit: Reading from standard input
************************** Dump of input data file ****************************
SystemName                   4V          # Descriptive name of the system
SystemLabel                     4V               # Short name for naming files
NumberOfAtoms    96
NumberOfSpecies                 1               # Number of species
PAO.BasisType                   split
%block ChemicalSpeciesLabel
1 79 Au
%endblock ChemicalSpeciesLabel
%block PAO.Basis
  Au  2
n=6  0  1
6.500
1.00
n=5  2  1
5.850
1.00
%endblock PAO.Basis
%block PS.lmax
 Au   3
%endblock PS.lmax
LatticeConstant 1.000 Ang
%block LatticeVectors
   8.336     0.000   0.000        1
  0.000    8.336     0.000   1
  0.000   0.000    33.926  1
%endblock LatticeVectors
AtomicCoordinatesFormat Ang
%block AtomicCoordinatesAndAtomicSpecies
0.0 0.0 0.0 1 Au
0.0 4.168 0.0 1 Au
2.084 2.084 0.0 1 Au
2.084 6.252 0.0 1 Au
4.168 0.0 0.0 1 Au
4.168 4.168 0.0 1 Au
6.252 2.084 0.0 1 Au
6.252 6.252 0.0 1 Au
0.0 2.084 2.084 1 Au
0.0 6.252 2.084 1 Au
2.084 0.0 2.084 1 Au
2.084 4.168 2.084 1 Au
4.168 2.084 2.084 1 Au
4.168 6.252 2.084 1 Au
6.252 0.0 2.084 1 Au
6.252 4.168 2.084 1 Au
0.0 0.0 4.168 1 Au
0.0 4.168 4.168 1 Au
2.084 2.084 4.168 1 Au
2.084 6.252 4.168 1 Au
4.168 0.0 4.168 1 Au
4.168 4.168 4.168 1 Au
6.252 2.084 4.168 1 Au
6.252 6.252 4.168 1 Au
0.0 2.084 6.252 1 Au
0.0 6.252 6.252 1 Au
2.084 0.0 6.252 1 Au
2.084 4.168 6.252 1 Au
4.168 2.084 6.252 1 Au
4.168 6.252 6.252 1 Au
6.252 0.0 6.252 1 Au
6.252 4.168 6.252 1 Au
0.0 0.0 8.336 1 Au
0.0 4.168 8.336 1 Au
2.084 2.084 8.336 1 Au
2.084 6.252 8.336 1 Au
4.168 0.0 8.336 1 Au
4.168 4.168 8.336 1 Au
6.252 2.084 8.336 1 Au
6.252 6.252 8.336 1 Au
0.0 2.084 10.42 1 Au
0.0 6.252 10.42 1 Au
2.084 0.0 10.42 1 Au
2.084 4.168 10.42 1 Au
4.168 2.084 10.42 1 Au
4.168 6.252 10.42 1 Au
6.252 0.0 10.42 1 Au
6.252 4.168 10.42 1 Au
0.0 0.0 21.422 1 Au
0.0 4.168 21.422 1 Au
2.084 2.084 21.422 1 Au
2.084 6.252 21.422 1 Au
4.168 0.0 21.422 1 Au
4.168 4.168 21.422 1 Au
6.252 2.084 21.422 1 Au
6.252 6.252 21.422 1 Au
0.0 2.084 23.506 1 Au
0.0 6.252 23.506 1 Au
2.084 0.0 23.506 1 Au
2.084 4.168 23.506 1 Au
4.168 2.084 23.506 1 Au
4.168 6.252 23.506 1 Au
6.252 0.0 23.506 1 Au
6.252 4.168 23.506 1 Au
0.0 0.0 25.59 1 Au
0.0 4.168 25.59 1 Au
2.084 2.084 25.59 1 Au
2.084 6.252 25.59 1 Au
4.168 0.0 25.59 1 Au
4.168 4.168 25.59 1 Au
6.252 2.084 25.59 1 Au
6.252 6.252 25.59 1 Au
0.0 2.084 27.674 1 Au
0.0 6.252 27.674 1 Au
2.084 0.0 27.674 1 Au
2.084 4.168 27.674 1 Au
4.168 2.084 27.674 1 Au
4.168 6.252 27.674 1 Au
6.252 0.0 27.674 1 Au
6.252 4.168 27.674 1 Au
0.0 0.0 29.758 1 Au
0.0 4.168 29.758 1 Au
2.084 2.084 29.758 1 Au
2.084 6.252 29.758 1 Au
4.168 0.0 29.758 1 Au
4.168 4.168 29.758 1 Au
6.252 2.084 29.758 1 Au
6.252 6.252 29.758 1 Au
0.0 2.084 31.842 1 Au
0.0 6.252 31.842 1 Au
2.084 0.0 31.842 1 Au
2.084 4.168 31.842 1 Au
4.168 2.084 31.842 1 Au
4.168 6.252 31.842 1 Au
6.252 0.0 31.842 1 Au
6.252 4.168 31.842 1 Au
%endblock AtomicCoordinatesAndAtomicSpecies 	
%block kgrid_Monkhorst_Pack
  2   0   0     0.0
  0   2   0     0.0
  0   0   1     0.0
%endblock kgrid_Monkhorst_Pack
xc.functional		LDA		# 'LDA', 'GGA'
xc.authors 	 		CA		# 'CA'='PZ', 'PW92', 'PBE'
SpinPolarized			F		# 'T', 'F'		
#FixSpin           F
#TotalSpin        0.0
NonCollinearSpin		F		# 'T', 'F'
MeshCutoff 	 		    200 Ry		# Equivalent plane wave cutoff for the grid
MaxSCFIterations		500
DM.MixingWeight			0.1
DM.NumberPulay			4	# Pulay convergency accelerator
DM.MixSCF1			    T
MixHamiltonian      T
DM.PulayOnFile			F		# Store in memory ('F') or in files ('T')
#DM.NumberKick         30
#DM.KickMixingWeight   0.1
DM.Tolerance 		1.0E-4
NeglNonOverlapInt		F		# 'F'=do not neglect
SolutionMethod			diagon
ElectronicTemperature		300 K		# Default value
DM.UseSaveDM 			T
#MD.UseSaveXV			T
#MD.UseSaveCG			T
WriteForces      T
WriteCoorXmol			T		# Write Atoms coordinates
SaveElectrostaticPotential      T
#SaveHS				T		# Save the Hamiltonian and Overlap matrices
SaveRho				T		# Save the valence pseudocharge density
#SaveDeltaRho			T
#WriteDenchar			T		# Write Denchar output
WriteMullikenPop		0 #write mulliken population of aromic and orbital charges
#-----
#smeagol
#-----
# Perform a transport calculation
EMTransport              T
# Set number of energy points for integrals
NEnergReal               64
# Set bias range
VInitial             4 eV
VFinal               4 eV
NIVPoints                0
# General variables
Delta                    1e-4
EnergLowestBound    -100.0 eV
# Print transmission coefficient
TrCoefficients           T
InitTransmRange      -10.0 eV
FinalTransmRange      10.0 eV
NTransmPoints            800
TRC.EMDOS                T
TRC.LeadsDOS             T
# Matching of Hartree potential with the leads
HartreeLeadsBottom  -15.25061226 eV
%block SaveBiasSteps
 0
%endblock SaveBiasSteps
************************** End of input data file *****************************

reinit: -----------------------------------------------------------------------
reinit: System Name: 4V
reinit: -----------------------------------------------------------------------
reinit: System Label: 4V                                                          
reinit: -----------------------------------------------------------------------

initatom: Reading input for the pseudopotentials and atomic orbitals ----------
 Species number:            1  Label: Au Atomic number:          79
Ground state valence configuration:   6s01  5d10
Reading pseudopotential information in formatted form from Au.psf

Pseudopotential generated from a relativistic atomic calculation
There are spin-orbit pseudopotentials available
Spin-orbit interaction is not included in this calculation

Valence configuration for pseudopotential generation:
6s( 1.00) rc: 2.18
6p( 0.00) rc: 2.47
5d(10.00) rc: 1.79
5f( 0.00) rc: 2.00
relmxkb: Read Max KB Ang. Momentum=    3 for species Au
 Warning: Empty PAO shell. l =           1
 Will have a KB projector anyway...

<basis_specs>
===============================================================================
Au                   Z=  79    Mass=  196.97        Charge= 0.17977+309
Lmxo=2 Lmxkb= 3    BasisType=split      Semic=F
L=0  Nsemic=0  Cnfigmx=6
          n=1  nzeta=1  polorb=0
            splnorm:   0.15000    
               vcte:    0.0000    
               rinn:    0.0000    
                rcs:    6.5000    
            lambdas:    1.0000    
L=1  Nsemic=0  Cnfigmx=6
L=2  Nsemic=0  Cnfigmx=5
          n=1  nzeta=1  polorb=0
            splnorm:   0.15000    
               vcte:    0.0000    
               rinn:    0.0000    
                rcs:    5.8500    
            lambdas:    1.0000    
-------------------------------------------------------------------------------
L=0  Nkbl=1  erefs: 0.17977+309
L=1  Nkbl=1  erefs: 0.17977+309
L=2  Nkbl=1  erefs: 0.17977+309
L=3  Nkbl=1  erefs: 0.17977+309
===============================================================================
</basis_specs>

atom: Called for Au                    (Z =  79)

read_vps: Pseudopotential generation method:
read_vps: ATM3      Troullier-Martins                       
Total valence charge:   11.00000

read_vps: Pseudopotential includes a core correction:
read_vps: Pseudo-core for xc-correction

xc_check: Exchange-correlation functional:
xc_check: Ceperley-Alder
V l=0 = -2*Zval/r beyond r=  2.9833
V l=1 = -2*Zval/r beyond r=  2.9833
V l=2 = -2*Zval/r beyond r=  2.9833
V l=3 = -2*Zval/r beyond r=  2.9833
All V_l potentials equal beyond r=  2.4425
This should be close to max(r_c) in ps generation
All pots = -2*Zval/r beyond r=  2.9833

VLOCAL1: 99.0% of the norm of Vloc inside      7.276 Ry
VLOCAL1: 99.9% of the norm of Vloc inside     16.582 Ry
atom: Maximum radius for 4*pi*r*r*local-pseudopot. charge    2.94627
atom: Maximum radius for r*vlocal+2*Zval:    2.60007
GHOST: No ghost state for L =  0
GHOST: No ghost state for L =  1
GHOST: No ghost state for L =  2
GHOST: No ghost state for L =  3

KBgen: Kleinman-Bylander projectors: 
   l= 0   rc=  3.175745   el= -0.445638   Ekb=  5.072790   kbcos=  0.276607
   l= 1   rc=  3.256140   el= -0.066324   Ekb=  2.703235   kbcos=  0.227171
   l= 2   rc=  3.020861   el= -0.526103   Ekb= -4.704026   kbcos= -0.643795
   l= 3   rc=  3.466145   el=  0.003438   Ekb= -2.516122   kbcos= -0.010529

KBgen: Total number of  Kleinman-Bylander projectors:   16
atom: -------------------------------------------------------------------------

atom: SANKEY-TYPE ORBITALS:

SPLIT: Orbitals with angular momentum L= 0

SPLIT: Basis orbitals for state 6s

   izeta = 1
                 lambda =    1.000000
                     rc =    6.557093
                 energy =   -0.435455
                kinetic =    0.389259
    potential(screened) =   -0.824714
       potential(ionic) =   -8.467175

SPLIT: Orbitals with angular momentum L= 2

SPLIT: Basis orbitals for state 5d

   izeta = 1
                 lambda =    1.000000
                     rc =    5.933100
                 energy =   -0.524775
                kinetic =    4.913203
    potential(screened) =   -5.437978
       potential(ionic) =  -15.883506
atom: Total number of Sankey-type orbitals:  6

atm_pop: Valence configuration (for local Pseudopot. screening):
 6s( 1.00)                                                            
 6p( 0.00)                                                            
 5d(10.00)                                                            
Vna: chval, zval:   11.00000  11.00000

Vna:  Cut-off radius for the neutral-atom potential:   6.557093
comcore: Pseudo-core radius Rcore=  4.027091

atom: _________________________________________________________________________

prinput: Basis input ----------------------------------------------------------

PAO.BasisType split     

%block ChemicalSpeciesLabel
    1   79 Au                      # Species index, atomic number, species label
%endblock ChemicalSpeciesLabel

%block PAO.Basis                 # Define Basis set
Au                    2                    # Species label, number of l-shells
 n=6   0   1                         # n, l, Nzeta 
   6.557   
   1.000   
 n=5   2   1                         # n, l, Nzeta 
   5.933   
   1.000   
%endblock PAO.Basis

prinput: ----------------------------------------------------------------------

coor:   Atomic-coordinates input format  =     Cartesian coordinates
coor:                                          (in Angstroms)

siesta: Atomic coordinates (Bohr) and species
siesta:      0.00000   0.00000   0.00000  1        1
siesta:      0.00000   7.87638   0.00000  1        2
siesta:      3.93819   3.93819   0.00000  1        3
siesta:      3.93819  11.81457   0.00000  1        4
siesta:      7.87638   0.00000   0.00000  1        5
siesta:      7.87638   7.87638   0.00000  1        6
siesta:     11.81457   3.93819   0.00000  1        7
siesta:     11.81457  11.81457   0.00000  1        8
siesta:      0.00000   3.93819   3.93819  1        9
siesta:      0.00000  11.81457   3.93819  1       10
siesta:      3.93819   0.00000   3.93819  1       11
siesta:      3.93819   7.87638   3.93819  1       12
siesta:      7.87638   3.93819   3.93819  1       13
siesta:      7.87638  11.81457   3.93819  1       14
siesta:     11.81457   0.00000   3.93819  1       15
siesta:     11.81457   7.87638   3.93819  1       16
siesta:      0.00000   0.00000   7.87638  1       17
siesta:      0.00000   7.87638   7.87638  1       18
siesta:      3.93819   3.93819   7.87638  1       19
siesta:      3.93819  11.81457   7.87638  1       20
siesta:      7.87638   0.00000   7.87638  1       21
siesta:      7.87638   7.87638   7.87638  1       22
siesta:     11.81457   3.93819   7.87638  1       23
siesta:     11.81457  11.81457   7.87638  1       24
siesta:      0.00000   3.93819  11.81457  1       25
siesta:      0.00000  11.81457  11.81457  1       26
siesta:      3.93819   0.00000  11.81457  1       27
siesta:      3.93819   7.87638  11.81457  1       28
siesta:      7.87638   3.93819  11.81457  1       29
siesta:      7.87638  11.81457  11.81457  1       30
siesta:     11.81457   0.00000  11.81457  1       31
siesta:     11.81457   7.87638  11.81457  1       32
siesta:      0.00000   0.00000  15.75276  1       33
siesta:      0.00000   7.87638  15.75276  1       34
siesta:      3.93819   3.93819  15.75276  1       35
siesta:      3.93819  11.81457  15.75276  1       36
siesta:      7.87638   0.00000  15.75276  1       37
siesta:      7.87638   7.87638  15.75276  1       38
siesta:     11.81457   3.93819  15.75276  1       39
siesta:     11.81457  11.81457  15.75276  1       40
siesta:      0.00000   3.93819  19.69095  1       41
siesta:      0.00000  11.81457  19.69095  1       42
siesta:      3.93819   0.00000  19.69095  1       43
siesta:      3.93819   7.87638  19.69095  1       44
siesta:      7.87638   3.93819  19.69095  1       45
siesta:      7.87638  11.81457  19.69095  1       46
siesta:     11.81457   0.00000  19.69095  1       47
siesta:     11.81457   7.87638  19.69095  1       48
siesta:      0.00000   0.00000  40.48173  1       49
siesta:      0.00000   7.87638  40.48173  1       50
siesta:      3.93819   3.93819  40.48173  1       51
siesta:      3.93819  11.81457  40.48173  1       52
siesta:      7.87638   0.00000  40.48173  1       53
siesta:      7.87638   7.87638  40.48173  1       54
siesta:     11.81457   3.93819  40.48173  1       55
siesta:     11.81457  11.81457  40.48173  1       56
siesta:      0.00000   3.93819  44.41992  1       57
siesta:      0.00000  11.81457  44.41992  1       58
siesta:      3.93819   0.00000  44.41992  1       59
siesta:      3.93819   7.87638  44.41992  1       60
siesta:      7.87638   3.93819  44.41992  1       61
siesta:      7.87638  11.81457  44.41992  1       62
siesta:     11.81457   0.00000  44.41992  1       63
siesta:     11.81457   7.87638  44.41992  1       64
siesta:      0.00000   0.00000  48.35811  1       65
siesta:      0.00000   7.87638  48.35811  1       66
siesta:      3.93819   3.93819  48.35811  1       67
siesta:      3.93819  11.81457  48.35811  1       68
siesta:      7.87638   0.00000  48.35811  1       69
siesta:      7.87638   7.87638  48.35811  1       70
siesta:     11.81457   3.93819  48.35811  1       71
siesta:     11.81457  11.81457  48.35811  1       72
siesta:      0.00000   3.93819  52.29630  1       73
siesta:      0.00000  11.81457  52.29630  1       74
siesta:      3.93819   0.00000  52.29630  1       75
siesta:      3.93819   7.87638  52.29630  1       76
siesta:      7.87638   3.93819  52.29630  1       77
siesta:      7.87638  11.81457  52.29630  1       78
siesta:     11.81457   0.00000  52.29630  1       79
siesta:     11.81457   7.87638  52.29630  1       80
siesta:      0.00000   0.00000  56.23449  1       81
siesta:      0.00000   7.87638  56.23449  1       82
siesta:      3.93819   3.93819  56.23449  1       83
siesta:      3.93819  11.81457  56.23449  1       84
siesta:      7.87638   0.00000  56.23449  1       85
siesta:      7.87638   7.87638  56.23449  1       86
siesta:     11.81457   3.93819  56.23449  1       87
siesta:     11.81457  11.81457  56.23449  1       88
siesta:      0.00000   3.93819  60.17268  1       89
siesta:      0.00000  11.81457  60.17268  1       90
siesta:      3.93819   0.00000  60.17268  1       91
siesta:      3.93819   7.87638  60.17268  1       92
siesta:      7.87638   3.93819  60.17268  1       93
siesta:      7.87638  11.81457  60.17268  1       94
siesta:     11.81457   0.00000  60.17268  1       95
siesta:     11.81457   7.87638  60.17268  1       96

siesta: System type = bulk      

initatomlists: Number of atoms, orbitals, and projectors:     96   576  1536

SMEAGOL: ******************* SMEAGOL Simulation parameters ********************
SMEAGOL:
SMEAGOL:       The following are some of the SMEAGOL parameters of the
SMEAGOL:       simulation. A complete list of the parameters used,
SMEAGOL:       including default values, can be found in file fdf.log.
SMEAGOL:
redata: Transport in extended molecule                =      T
redata: # of points in real energy axis integral      =     64
redata: # of contour points in semi-circle            =     42
redata: # of contour points in line region            =     24
redata: # of poles in the Fermi function              =      7
redata: Initial value of the bias potential           =      0.2940 Ry
redata: Final value of the bias potential             =      0.2940 Ry
redata: # of bias potential points                    =      0
redata: Small imaginary part                          =      0.00010
redata: Lower bound for the contour integral          =     -7.3498 Ry
redata: 1 = Leads with different spin                 =      0
redata: Atom of the lead where bias slope starts      =      1
redata: Atom of the lead where bias slope ends        =     96
redata: # of bulk slices to include in EM             =      1
redata: Calculate transmission coefficients           =      T
redata: Set bulk transversal cell                     =      F
redata: Bulk transversal cell size                    =      3
redata: Write leads H and S matrices at .HSL          =      F
redata: Init transport                                =      F
redata: Force super cell in z direction = 3           =      F
redata: Calculated electronic structure for           =     LR
redata: Write converged DM (at bias/MD selected step) =      F
redata: Hartree Leads Left                            =      0.0000 Bohr
redata: Hartree Leads Right                           =      0.0000 Bohr
redata: Hartree Leads Bottom                          =     -1.1209 Ry
redata: Periodic leads in perpendicular directions    =      F
redata: Thresholds at generalized SVD                 =      0.000000001000
redata: Write .orb, .ef and .gHS files                =      F
redata: Write .onlyS files                            =      F
redata: Electron-phonon interaction                   =      F
redata: Invert only central region    =      F
redata: Calculate Forces    =      F
redata: ***********************************************************************

siesta: ******************** SIESTA Simulation parameters *********************
siesta:
siesta:       The following are some of the SIESTA parameters of the
siesta:       simulation. A complete list of the parameters used,
siesta:       including default values, can be found in file fdf.log.
siesta:
redata: Non-Collinear-spin run             =       F
redata: SpinPolarized (Up/Down) run        =       F
redata: Number of spin components          =       1
redata: Long output                        =       F
redata: Number of Atomic Species           =       1
redata: Charge density info will appear in .RHO file
redata: Write Mulliken Pop.                =      NO
redata: Mesh Cutoff                        =     200.0000  Ry
redata: Net charge of the system           =       0.0000 |e|
redata: Max. number of SCF Iter            =     500
redata: Performing Pulay mixing using      =       4 iterations
redata: Mix DM in first SCF step ?         =       T
redata: Write Pulay info on disk?          =       F
redata: Discard 1st Pulay DM after kick    =       F
redata: New DM Mixing Weight               =       0.1000
redata: New DM Occupancy tolerance         =       0.000000000001
redata: No kicks to SCF
redata: DM Mixing Weight for Kicks         =       0.5000
redata: DM Tolerance for SCF               =       0.000100
redata: Require Energy convergence for SCF =       F
redata: DM Energy tolerance for SCF        =       0.000100 eV
redata: Require Harris convergence for SCF =       F
redata: DM Harris energy tolerance for SCF =       0.000100 eV
redata: Using Saved Data (generic)         =       F
redata: Use continuation files for DM      =       T
redata: Neglect nonoverlap interactions    =       F
redata: Method of Calculation              =     Diagonalization
redata: Divide and Conquer                 =       T
redata: Electronic Temperature             =       0.0019  Ry
redata: Fix the spin of the system         =       F
redata: Dynamics option                    =     Verlet MD run
redata: Initial MD time step               =       1
redata: Final MD time step                 =       1
redata: Length of MD time step             =       1.0000  fs
redata: Initial Temperature of MD run      =       0.0000  K
redata: Perform a MD quench                =       F
redata: ***********************************************************************

Total number of electrons:  1056.000000
Total ionic charge:  1056.000000

* ProcessorY, Blocksize:    4  24

k-point displ. along   1 input, could be:     0.00    0.50
k-point displ. along   2 input, could be:     0.00    0.50
 Kpoints in:            4 . Kpoints trimmed:            4

siesta: k-grid: Number of k-points =     4
siesta: k-grid: Cutoff (effective) =     8.336 Ang
siesta: k-grid: Supercell and displacements
siesta: k-grid:    2   0   0      0.000
siesta: k-grid:    0   2   0      0.000
siesta: k-grid:    0   0   1      0.000
siesta: overlap:  rmaxh   veclen  direction
siesta: overlap:  20.0465 15.7528   1
siesta: overlap:  rmaxh   veclen  direction
siesta: overlap:  20.0465 15.7528   2
siesta: overlap:  rmaxh   veclen  direction
siesta: overlap:  20.0465 64.1109   3
Naive supercell factors:     3    3    1

superc: Internal auxiliary supercell:     3 x     3 x     1  =       9
superc: Number of atoms, orbitals, and projectors:    864   5184  13824

* Maximum dynamic memory allocated =     1 MB

siesta:                 ===============================
SMEAGOL                 Bias step =    0, V =  0.294 Ry
                            Begin MD step =      1
                        ===============================

superc: Internal auxiliary supercell:     3 x     3 x     1  =       9
superc: Number of atoms, orbitals, and projectors:    864   5184  13824

outcell: Unit cell vectors (Ang):
        8.336000    0.000000    0.000000
        0.000000    8.336000    0.000000
        0.000000    0.000000   33.926000

outcell: Cell vector modules (Ang)   :    8.336000    8.336000   33.926000
outcell: Cell angles (23,13,12) (deg):     90.0000     90.0000     90.0000
outcell: Cell volume (Ang**3)        :   2357.4803
New_DM. Step:     1
Initializing Density Matrix...

InitMesh: MESH =    72 x    72 x   300 =     1555200
InitMesh: Mesh cutoff (required, used) =   200.000   206.182 Ry
SMEAGOL: average =  -1.11970, shift =  -1.12089, count =   5184
SMEAGOL: minL =   0.00000, maxR =   0.00000

* Maximum dynamic memory allocated =    46 MB

SMEAGOL: Integral method for real-axis = Traditional 
 calling get_energy_points

SMEAGOL: Integral method for real-axis = Traditional 

SMEAGOL: Integral method for real-axis = Traditional 

SMEAGOL: Integral method for real-axis = Traditional 

siesta: Program's energy decomposition (eV):
siesta: Ebs     =     -7362.373536
siesta: Eions   =    115680.044384
siesta: Ena     =      6422.662625
siesta: Ekin    =     64683.514008
siesta: Enl     =    -24893.125209
siesta: DEna    =         0.000000
siesta: DUscf   =         0.000000
siesta: DUext   =         0.000000
siesta: Exc     =    -40111.144532
siesta: eta*DQ  =         0.000000
siesta: Emadel  =         0.000000
siesta: Emeta   =         0.000000
siesta: Emolmec =         0.000000
siesta: Ekinion =         0.000000
siesta: Eharris =   -109425.281895
siesta: Etot    =   -109578.137491
siesta: FreeEng =   -109578.137491

siesta: iscf   Eharris(eV)      E_KS(eV)   FreeEng(eV)   dDmax  Ef(eV)
siesta:    1  -109425.2819  -109578.1375  -109578.1375  1.1144  0.0000
timer: Routine,Calls,Time,% = IterSCF        1     514.286  99.20
elaps: Routine,Calls,Wall,% = IterSCF        1      25.784  99.19
SMEAGOL: average =  -1.60204, shift =  -1.12089, count =   5184
SMEAGOL: minL =   0.00000, maxR =   0.00000
siesta:    2  -109383.5306  -109164.8349  -109164.8349  4.5259  0.0000
SMEAGOL: average =   9.14061, shift =  -1.12089, count =   5184
SMEAGOL: minL =   0.00000, maxR =   0.00000
siesta:    3   -67676.2202   -67087.2209   -67087.2209 62.2388  0.0000
SMEAGOL: average =  -2.67084, shift =  -1.12089, count =   5184
SMEAGOL: minL =   0.00000, maxR =   0.00000
siesta:    4  -109303.3952  -109321.2802  -109321.2802  4.4717  0.0000
SMEAGOL: average =  -1.75194, shift =  -1.12089, count =   5184
SMEAGOL: minL =   0.00000, maxR =   0.00000
siesta:    5  -109325.4697  -109322.2140  -109322.2140  3.3784  0.0000
SMEAGOL: average =  -1.44924, shift =  -1.12089, count =   5184
SMEAGOL: minL =   0.00000, maxR =   0.00000
siesta:    6  -109417.0497  -109418.2474  -109418.2474  1.3171  0.0000
SMEAGOL: average =  -1.41033, shift =  -1.12089, count =   5184
SMEAGOL: minL =   0.00000, maxR =   0.00000
siesta:    7  -109416.2863  -109418.6208  -109418.6208  1.2118  0.0000
SMEAGOL: average =  -1.22124, shift =  -1.12089, count =   5184
SMEAGOL: minL =   0.00000, maxR =   0.00000
siesta:    8  -109427.1390  -109427.1812  -109427.1812  0.2540  0.0000
SMEAGOL: average =  -1.20380, shift =  -1.12089, count =   5184
SMEAGOL: minL =   0.00000, maxR =   0.00000
siesta:    9  -109427.1059  -109427.2583  -109427.2583  0.1570  0.0000
SMEAGOL: average =  -1.16696, shift =  -1.12089, count =   5184
SMEAGOL: minL =   0.00000, maxR =   0.00000
siesta:   10  -109426.9479  -109426.9007  -109426.9007  0.0204  0.0000
SMEAGOL: average =  -1.16754, shift =  -1.12089, count =   5184
SMEAGOL: minL =   0.00000, maxR =   0.00000
siesta:   11  -109426.9785  -109426.9749  -109426.9749  0.0145  0.0000
SMEAGOL: average =  -1.16582, shift =  -1.12089, count =   5184
SMEAGOL: minL =   0.00000, maxR =   0.00000
siesta:   12  -109427.0239  -109427.0172  -109427.0172  0.0070  0.0000
SMEAGOL: average =  -1.16621, shift =  -1.12089, count =   5184
SMEAGOL: minL =   0.00000, maxR =   0.00000
siesta:   13  -109427.0061  -109427.0235  -109427.0235  0.0059  0.0000
SMEAGOL: average =  -1.16597, shift =  -1.12089, count =   5184
SMEAGOL: minL =   0.00000, maxR =   0.00000
siesta:   14  -109427.0094  -109427.0023  -109427.0023  0.0036  0.0000
SMEAGOL: average =  -1.16612, shift =  -1.12089, count =   5184
SMEAGOL: minL =   0.00000, maxR =   0.00000
siesta:   15  -109427.0168  -109427.0140  -109427.0140  0.0032  0.0000
SMEAGOL: average =  -1.16630, shift =  -1.12089, count =   5184
SMEAGOL: minL =   0.00000, maxR =   0.00000
siesta:   16  -109427.0203  -109427.0167  -109427.0167  0.0021  0.0000
SMEAGOL: average =  -1.16668, shift =  -1.12089, count =   5184
SMEAGOL: minL =   0.00000, maxR =   0.00000
siesta:   17  -109427.0181  -109427.0231  -109427.0231  0.0008  0.0000
SMEAGOL: average =  -1.16673, shift =  -1.12089, count =   5184
SMEAGOL: minL =   0.00000, maxR =   0.00000
siesta:   18  -109427.0135  -109427.0173  -109427.0173  0.0003  0.0000
SMEAGOL: average =  -1.16673, shift =  -1.12089, count =   5184
SMEAGOL: minL =   0.00000, maxR =   0.00000
siesta:   19  -109427.0115  -109427.0128  -109427.0128  0.0002  0.0000
SMEAGOL: average =  -1.16676, shift =  -1.12089, count =   5184
SMEAGOL: minL =   0.00000, maxR =   0.00000
siesta:   20  -109427.0129  -109427.0111  -109427.0111  0.0002  0.0000
SMEAGOL: average =  -1.16675, shift =  -1.12089, count =   5184
SMEAGOL: minL =   0.00000, maxR =   0.00000
siesta:   21  -109427.0147  -109427.0132  -109427.0132  0.0001  0.0000
SMEAGOL: average =  -1.16678, shift =  -1.12089, count =   5184
SMEAGOL: minL =   0.00000, maxR =   0.00000
siesta:   22  -109427.0149  -109427.0148  -109427.0148  0.0002  0.0000
SMEAGOL: average =  -1.16675, shift =  -1.12089, count =   5184
SMEAGOL: minL =   0.00000, maxR =   0.00000
siesta:   23  -109427.0171  -109427.0149  -109427.0149  0.0001  0.0000
SMEAGOL: average =  -1.16679, shift =  -1.12089, count =   5184
SMEAGOL: minL =   0.00000, maxR =   0.00000

SMEAGOL: InitTransmRange =  -0.73497988D+00, FinalTransmRange =   0.73497988D+00
SMEAGOL: trcde =  0.00000D+00, NeneT =   800
SMEAGOL: Ef =  -0.18505545D+00, temp =   0.19000693D-02
SMEAGOL: deltaimagtrc =   0.00000000D+00
 no. of left channels .ne. number of right channels
          19         118          19         120
 Norm :   68.8148086410655       Cond num :   2.016672249378660E-025
 warnin0_R -0.738390047568867                1
 no. of left channels .ne. number of right channels
          10         125          10         131
 Norm :   106.610064714774       Cond num :   3.231562631151184E-026
 warnin0_L -0.632495509876686                1
 no. of left channels .ne. number of right channels
          15         124          15         122
 Norm :   54.0869532581350       Cond num :   2.485823200980644E-025
 warnin0_L -0.524806149511757                1
 no. of left channels .ne. number of right channels
          12         124          12         128
 Norm :   78.4919574529952       Cond num :   2.138591844945854E-025
 warnin0_L -0.535575085548250                1
 no. of left channels .ne. number of right channels
          19         120          19         118
 Norm :   110.345575355251       Cond num :   1.455550735381056E-025
 warnin0_L -0.427885725183320                1
 no. of left channels .ne. number of right channels
          14         124          14         120
 Norm :   125.104592320757       Cond num :   1.530934449382394E-025
 warnin0_R -0.833515649224555                1
 no. of left channels .ne. number of right channels
           9         124          10         129
 Norm :   80.2620447654441       Cond num :   6.964906570028464E-026
 warnin0_L -0.372246222328106                1
 no. of left channels .ne. number of right channels
          22         116          22         112
 Norm :   250.274700526247       Cond num :   1.361566640881885E-025
 warnin0_R -0.781465791714839                1
 no. of left channels .ne. number of right channels
          10         127          10         125
 Norm :   297.847196864433       Cond num :   2.598539225948853E-024
 warnin0_L -0.650443736604174                1
 no. of left channels .ne. number of right channels
          24         110          26         112
 Norm :   41.9381314662415       Cond num :   3.551686508566235E-025
 warnin0_L -0.470961469329292                1
 no. of left channels .ne. number of right channels
           7         126          12         127
 Norm :   80.2372460083738       Cond num :   4.338422894064936E-025
 warnin0_L -0.372246222328106                1
 no. of left channels .ne. number of right channels
           9         132          11         136
 Norm :   109.975565939123       Cond num :   1.151142337614583E-026
 warnin0_R -0.828131181206308                1
 no. of left channels .ne. number of right channels
          24         121          23         120
 Norm :   113.948292775990       Cond num :   9.869546916870619E-027
 warnin0_R -0.727621111532374                1
 no. of left channels .ne. number of right channels
          15         128          16         129
 Norm :   65.0915884842250       Cond num :   5.274549943470086E-026
 warnin0_L -0.600188701767207                1

siesta: E_KS(eV) =          -109427.0175

siesta: E_KS - E_eggbox =   -109427.0175

siesta: Atomic forces (eV/Ang):
     1    0.000011    0.000014    0.420379
     2    0.000001    0.000001    0.420381
     3    0.000003   -0.000001    0.420383
     4    0.000001   -0.000000    0.420380
     5    0.000007    0.000008    0.420378
     6    0.000005    0.000000    0.420381
     7    0.000004    0.000000    0.420381
     8   -0.000001    0.000000    0.420379
     9    0.000017    0.000002    0.038816
    10    0.000003    0.000002    0.038814
    11    0.000003    0.000011    0.038819
    12    0.000007    0.000001    0.038814
    13    0.000006    0.000000    0.038812
    14    0.000001    0.000008    0.038806
    15    0.000007    0.000016    0.038817
    16    0.000016    0.000001    0.038810
    17    0.000014    0.000019    0.723620
    18    0.000019    0.000000    0.723629
    19    0.000016    0.000000    0.723620
    20   -0.000001    0.000006    0.723617
    21    0.000004    0.000018    0.723627
    22    0.000009    0.000001    0.723621
    23    0.000007    0.000000    0.723619
    24   -0.000002   -0.000002    0.723609
    25    0.000024    0.000000   -0.377682
    26    0.000010    0.000007   -0.377691
    27    0.000005    0.000025   -0.377677
    28    0.000016   -0.000000   -0.377682
    29    0.000020    0.000001   -0.377681
    30    0.000001    0.000013   -0.377692
    31    0.000010    0.000024   -0.377686
    32    0.000019   -0.000002   -0.377692
    33    0.000024    0.000028    0.380541
    34    0.000026   -0.000001    0.380538
    35    0.000010    0.000002    0.380527
    36   -0.000003    0.000005    0.380529
    37    0.000004    0.000027    0.380540
    38    0.000012    0.000001    0.380524
    39    0.000015    0.000001    0.380532
    40   -0.000003   -0.000002    0.380529
    41    0.000004   -0.000001   -2.066570
    42    0.000001   -0.000006   -2.066560
    43    0.000002    0.000004   -2.066576
    44    0.000003   -0.000000   -2.066584
    45    0.000004    0.000001   -2.066584
    46   -0.000003   -0.000002   -2.066566
    47   -0.000001    0.000006   -2.066569
    48    0.000003    0.000001   -2.066571
    49    0.000001    0.000005    0.868098
    50    0.000007   -0.000000    0.868091
    51   -0.000000   -0.000001    0.868093
    52   -0.000000    0.000001    0.868093
    53    0.000005    0.000009    0.868097
    54    0.000000   -0.000001    0.868093
    55   -0.000001    0.000000    0.868095
    56   -0.000000    0.000000    0.868093
    57    0.000012    0.000001    0.741512
    58    0.000007   -0.000006    0.741502
    59    0.000002    0.000022    0.741507
    60   -0.000007    0.000001    0.741514
    61   -0.000007    0.000001    0.741514
    62   -0.000005   -0.000006    0.741507
    63    0.000006    0.000014    0.741506
    64   -0.000000   -0.000001    0.741509
    65    0.000011    0.000014   -0.559090
    66    0.000009    0.000000   -0.559090
    67    0.000005    0.000000   -0.559083
    68   -0.000000    0.000008   -0.559100
    69    0.000001    0.000015   -0.559086
    70    0.000003   -0.000001   -0.559090
    71    0.000009   -0.000001   -0.559098
    72   -0.000001    0.000003   -0.559106
    73    0.000022   -0.000001    0.500500
    74    0.000011    0.000004    0.500483
    75    0.000006    0.000020    0.500507
    76    0.000015   -0.000001    0.500494
    77    0.000013    0.000001    0.500496
    78   -0.000001    0.000010    0.500484
    79    0.000001    0.000020    0.500501
    80    0.000018   -0.000001    0.500491
    81    0.000013    0.000027   -0.781336
    82    0.000018   -0.000001   -0.781337
    83    0.000015    0.000001   -0.781340
    84   -0.000000    0.000007   -0.781352
    85    0.000006    0.000026   -0.781331
    86    0.000009   -0.000003   -0.781337
    87    0.000012   -0.000000   -0.781342
    88   -0.000001   -0.000001   -0.781357
    89    0.000030    0.000001    0.056610
    90    0.000006    0.000002    0.056612
    91    0.000004    0.000026    0.056606
    92    0.000021    0.000003    0.056610
    93    0.000022    0.000001    0.056610
    94   -0.000003    0.000006    0.056612
    95   -0.000002    0.000028    0.056607
    96    0.000020    0.000002    0.056606
----------------------------------------
   Tot    0.000672    0.000493   -0.437112
----------------------------------------
   Max    2.066584
   Res    0.463688    sqrt( Sum f_i^2 / 3N )
----------------------------------------
   Max    2.066584    constrained

Stress-tensor-Voigt (kbar):      157.55      157.55      130.63       -0.00       -0.00       -0.00
(Free)E + p*V (eV/cell)  -109645.6338
Target enthalpy (eV/cell)  -109427.0175

siesta: Stress tensor (static) (eV/Ang**3):
         0.098334   -0.000000   -0.000000
        -0.000000    0.098334   -0.000000
        -0.000000   -0.000000    0.081531

siesta: Pressure (static):       -148.57632511  kBar

siesta: Stress tensor (total) (eV/Ang**3):
         0.098334   -0.000000   -0.000000
        -0.000000    0.098334   -0.000000
        -0.000000   -0.000000    0.081531

siesta: Pressure (total):       -148.57632511  kBar

siesta: Temp_ion =       0.000 K

* Maximum dynamic memory allocated =  2148 MB

coxmol: Writing XMOL coordinates into file 4V.xyz                                                          

siesta: Program's energy decomposition (eV):
siesta: Ebs     =     -7382.402069
siesta: Eions   =    115680.044384
siesta: Ena     =      6422.662625
siesta: Ekin    =     64366.071090
siesta: Enl     =    -24580.134187
siesta: DEna    =        99.472659
siesta: DUscf   =         1.733831
siesta: DUext   =         0.000000
siesta: Exc     =    -40056.779087
siesta: eta*DQ  =         0.000000
siesta: Emadel  =         0.000000
siesta: Emeta   =         0.000000
siesta: Emolmec =         0.000000
siesta: Ekinion =         0.000000
siesta: Eharris =   -109427.017089
siesta: Etot    =   -109427.017452
siesta: FreeEng =   -109427.017452

siesta: Final energy (eV):
siesta:  Band Struct. =   -7382.402069
siesta:       Kinetic =   64366.071090
siesta:       Hartree =  295033.301247
siesta:    Ext. field =       0.000000
siesta:   Exch.-corr. =  -40056.779087
siesta:  Ion-electron = -640435.000828
siesta:       Ion-ion =  211665.390125
siesta:       Ekinion =       0.000000
siesta:         Total = -109427.017452

siesta: Atomic forces (eV/Ang):
siesta:      1    0.000011    0.000014    0.420379
siesta:      2    0.000001    0.000001    0.420381
siesta:      3    0.000003   -0.000001    0.420383
siesta:      4    0.000001   -0.000000    0.420380
siesta:      5    0.000007    0.000008    0.420378
siesta:      6    0.000005    0.000000    0.420381
siesta:      7    0.000004    0.000000    0.420381
siesta:      8   -0.000001    0.000000    0.420379
siesta:      9    0.000017    0.000002    0.038816
siesta:     10    0.000003    0.000002    0.038814
siesta:     11    0.000003    0.000011    0.038819
siesta:     12    0.000007    0.000001    0.038814
siesta:     13    0.000006    0.000000    0.038812
siesta:     14    0.000001    0.000008    0.038806
siesta:     15    0.000007    0.000016    0.038817
siesta:     16    0.000016    0.000001    0.038810
siesta:     17    0.000014    0.000019    0.723620
siesta:     18    0.000019    0.000000    0.723629
siesta:     19    0.000016    0.000000    0.723620
siesta:     20   -0.000001    0.000006    0.723617
siesta:     21    0.000004    0.000018    0.723627
siesta:     22    0.000009    0.000001    0.723621
siesta:     23    0.000007    0.000000    0.723619
siesta:     24   -0.000002   -0.000002    0.723609
siesta:     25    0.000024    0.000000   -0.377682
siesta:     26    0.000010    0.000007   -0.377691
siesta:     27    0.000005    0.000025   -0.377677
siesta:     28    0.000016   -0.000000   -0.377682
siesta:     29    0.000020    0.000001   -0.377681
siesta:     30    0.000001    0.000013   -0.377692
siesta:     31    0.000010    0.000024   -0.377686
siesta:     32    0.000019   -0.000002   -0.377692
siesta:     33    0.000024    0.000028    0.380541
siesta:     34    0.000026   -0.000001    0.380538
siesta:     35    0.000010    0.000002    0.380527
siesta:     36   -0.000003    0.000005    0.380529
siesta:     37    0.000004    0.000027    0.380540
siesta:     38    0.000012    0.000001    0.380524
siesta:     39    0.000015    0.000001    0.380532
siesta:     40   -0.000003   -0.000002    0.380529
siesta:     41    0.000004   -0.000001   -2.066570
siesta:     42    0.000001   -0.000006   -2.066560
siesta:     43    0.000002    0.000004   -2.066576
siesta:     44    0.000003   -0.000000   -2.066584
siesta:     45    0.000004    0.000001   -2.066584
siesta:     46   -0.000003   -0.000002   -2.066566
siesta:     47   -0.000001    0.000006   -2.066569
siesta:     48    0.000003    0.000001   -2.066571
siesta:     49    0.000001    0.000005    0.868098
siesta:     50    0.000007   -0.000000    0.868091
siesta:     51   -0.000000   -0.000001    0.868093
siesta:     52   -0.000000    0.000001    0.868093
siesta:     53    0.000005    0.000009    0.868097
siesta:     54    0.000000   -0.000001    0.868093
siesta:     55   -0.000001    0.000000    0.868095
siesta:     56   -0.000000    0.000000    0.868093
siesta:     57    0.000012    0.000001    0.741512
siesta:     58    0.000007   -0.000006    0.741502
siesta:     59    0.000002    0.000022    0.741507
siesta:     60   -0.000007    0.000001    0.741514
siesta:     61   -0.000007    0.000001    0.741514
siesta:     62   -0.000005   -0.000006    0.741507
siesta:     63    0.000006    0.000014    0.741506
siesta:     64   -0.000000   -0.000001    0.741509
siesta:     65    0.000011    0.000014   -0.559090
siesta:     66    0.000009    0.000000   -0.559090
siesta:     67    0.000005    0.000000   -0.559083
siesta:     68   -0.000000    0.000008   -0.559100
siesta:     69    0.000001    0.000015   -0.559086
siesta:     70    0.000003   -0.000001   -0.559090
siesta:     71    0.000009   -0.000001   -0.559098
siesta:     72   -0.000001    0.000003   -0.559106
siesta:     73    0.000022   -0.000001    0.500500
siesta:     74    0.000011    0.000004    0.500483
siesta:     75    0.000006    0.000020    0.500507
siesta:     76    0.000015   -0.000001    0.500494
siesta:     77    0.000013    0.000001    0.500496
siesta:     78   -0.000001    0.000010    0.500484
siesta:     79    0.000001    0.000020    0.500501
siesta:     80    0.000018   -0.000001    0.500491
siesta:     81    0.000013    0.000027   -0.781336
siesta:     82    0.000018   -0.000001   -0.781337
siesta:     83    0.000015    0.000001   -0.781340
siesta:     84   -0.000000    0.000007   -0.781352
siesta:     85    0.000006    0.000026   -0.781331
siesta:     86    0.000009   -0.000003   -0.781337
siesta:     87    0.000012   -0.000000   -0.781342
siesta:     88   -0.000001   -0.000001   -0.781357
siesta:     89    0.000030    0.000001    0.056610
siesta:     90    0.000006    0.000002    0.056612
siesta:     91    0.000004    0.000026    0.056606
siesta:     92    0.000021    0.000003    0.056610
siesta:     93    0.000022    0.000001    0.056610
siesta:     94   -0.000003    0.000006    0.056612
siesta:     95   -0.000002    0.000028    0.056607
siesta:     96    0.000020    0.000002    0.056606
siesta: ----------------------------------------
siesta:    Tot    0.000672    0.000493   -0.437112

siesta: Stress tensor (static) (eV/Ang**3):
siesta:     0.098334   -0.000000   -0.000000
siesta:    -0.000000    0.098334   -0.000000
siesta:    -0.000000   -0.000000    0.081531

siesta: Cell volume =       2357.480286 Ang**3

siesta: Pressure (static):
siesta:                Solid            Molecule  Units
siesta:          -0.00100998         -0.00097752  Ry/Bohr**3
siesta:          -0.09273305         -0.08975233  eV/Ang**3
siesta:        -148.57632511       -143.80064717  kBar
(Free)E+ p_basis*V_orbitals  =     -109390.511406
(Free)Eharris+ p_basis*V_orbitals  =     -109390.513642
SMEAGOL: average =  -1.16679, shift =  -1.12089, count =   5184
SMEAGOL: minL =   0.00000, maxR =   0.00000

* Maximum dynamic memory allocated : Node    0 =  2148 MB
* Maximum dynamic memory allocated : Node    1 =  2144 MB
* Maximum dynamic memory allocated : Node    2 =  2148 MB
* Maximum dynamic memory allocated : Node    3 =  2143 MB
* Maximum dynamic memory allocated : Node    4 =  2148 MB
* Maximum dynamic memory allocated : Node    5 =  2148 MB
* Maximum dynamic memory allocated : Node    6 =  2148 MB
* Maximum dynamic memory allocated : Node    7 =  2146 MB
* Maximum dynamic memory allocated : Node    8 =  2145 MB
* Maximum dynamic memory allocated : Node    9 =  2147 MB
* Maximum dynamic memory allocated : Node   10 =  2147 MB
* Maximum dynamic memory allocated : Node   11 =  2148 MB
* Maximum dynamic memory allocated : Node   12 =  2145 MB
* Maximum dynamic memory allocated : Node   13 =  2145 MB
* Maximum dynamic memory allocated : Node   14 =  2147 MB
* Maximum dynamic memory allocated : Node   15 =  2147 MB
* Maximum dynamic memory allocated : Node   16 =  2148 MB
* Maximum dynamic memory allocated : Node   17 =  2146 MB
* Maximum dynamic memory allocated : Node   18 =  2146 MB
* Maximum dynamic memory allocated : Node   19 =  2148 MB

* Maximum memory occured during keldyshImag                   

timer: CPU execution times:
timer:  Routine       Calls   Time/call    Tot.time        %
timer:  siesta            1    4245.764    4245.764   100.00
timer:  Setup             1       2.512       2.512     0.06
timer:  bands             1       0.011       0.011     0.00
timer:  writewave         1       0.027       0.027     0.00
timer:  KSV_init          1       0.004       0.004     0.00
timer:  IterMD            1    4236.989    4236.989    99.79
timer:  hsparse           1       0.278       0.278     0.01
timer:  overlap           1       0.779       0.779     0.02
timer:  IterSCF          23      69.892    1607.520    37.86
timer:  kinefsm           2       0.393       0.785     0.02
timer:  nlefsm            2       6.399      12.799     0.30
timer:  DHSCF            25       8.148     203.702     4.80
timer:  DHSCF1            1       1.166       1.166     0.03
timer:  DHSCF2            1      13.956      13.956     0.33
timer:  REORD           256       0.001       0.362     0.01
timer:  POISON           26       0.167       4.341     0.10
timer:  DHSCF3           25       7.232     180.788     4.26
timer:  rhoofd           25       2.378      59.460     1.40
timer:  cellXC           25       0.201       5.020     0.12
timer:  vmat             24       3.310      79.446     1.87
timer:  MolMec            2       0.000       0.001     0.00
timer:  emtrans          24     166.654    3999.691    94.20
timer:  NEGFK            96      41.145    3949.938    93.03
timer:  RE_SENE         100       3.549     354.935     8.36
timer:  IM_SENE           4      59.345     237.379     5.59
timer:  DHSCF4            1       7.657       7.657     0.18
timer:  dfscf             1       5.530       5.530     0.13
timer:  overfsm           1       0.086       0.086     0.00
timer:  TRANSM            4     637.404    2549.616    60.05
timer:  senetrc           4     636.504    2546.015    59.97
timer:  CURRENT           4       4.401      17.604     0.41
timer:  optical           1       0.339       0.339     0.01
  

elaps: ELAPSED times:
elaps:  Routine       Calls   Time/call    Tot.time        %
elaps:  siesta            1     212.811     212.811   100.00
elaps:  Setup             1       0.127       0.127     0.06
elaps:  bands             1       0.001       0.001     0.00
elaps:  writewave         1       0.001       0.001     0.00
elaps:  KSV_init          1       0.000       0.000     0.00
elaps:  IterMD            1     212.368     212.368    99.79
elaps:  hsparse           1       0.018       0.018     0.01
elaps:  overlap           1       0.043       0.043     0.02
elaps:  IterSCF          23       3.504      80.581    37.86
elaps:  kinefsm           2       0.023       0.045     0.02
elaps:  nlefsm            2       0.461       0.922     0.43
elaps:  DHSCF            25       0.413      10.323     4.85
elaps:  DHSCF1            1       0.059       0.059     0.03
elaps:  DHSCF2            1       0.699       0.699     0.33
elaps:  REORD           256       0.000       0.018     0.01
elaps:  POISON           26       0.008       0.217     0.10
elaps:  DHSCF3           25       0.362       9.062     4.26
elaps:  rhoofd           25       0.177       4.419     2.08
elaps:  cellXC           25       0.010       0.251     0.12
elaps:  vmat             24       0.166       3.982     1.87
elaps:  MolMec            2       0.000       0.000     0.00
elaps:  emtrans          24       8.353     200.476    94.20
elaps:  NEGFK            96       2.059     197.645    92.87
elaps:  RE_SENE         100       0.178      17.825     8.38
elaps:  IM_SENE           4       2.989      11.957     5.62
elaps:  DHSCF4            1       0.497       0.497     0.23
elaps:  dfscf             1       0.372       0.372     0.17
elaps:  overfsm           1       0.007       0.007     0.00
elaps:  TRANSM            4      32.508     130.033    61.10
elaps:  senetrc           4      31.643     126.574    59.48
elaps:  CURRENT           4       0.055       0.220     0.10
elaps:  optical           1       0.000       0.000     0.00
  
>> End of run:   3-NOV-2023  19:04:16
