 DBCSR| CPU Multiplication driver                                           BLAS
 DBCSR| Multrec recursion limit                                              512
 DBCSR| Multiplication stack size                                           1000
 DBCSR| Maximum elements for images                                    UNLIMITED
 DBCSR| Multiplicative factor virtual images                                   1
 DBCSR| Use multiplication densification                                       T
 DBCSR| Multiplication size stacks                                             3
 DBCSR| Use memory pool for CPU allocation                                     F
 DBCSR| Number of 3D layers                                               SINGLE
 DBCSR| Use MPI memory allocation                                              F
 DBCSR| Use RMA algorithm                                                      F
 DBCSR| Use Communication thread                                               T
 DBCSR| Communication thread load                                             75
 DBCSR| MPI: My node id                                                        0
 DBCSR| MPI: Number of nodes                                                 128
 DBCSR| OMP: Current number of threads                                         4
 DBCSR| OMP: Max number of threads                                             4
 DBCSR| Split modifier for TAS multiplication algorithm                  1.0E+00


  **** **** ******  **  PROGRAM STARTED AT               2023-11-04 07:40:32.890
 ***** ** ***  *** **   PROGRAM STARTED ON                             nid005524
 **    ****   ******    PROGRAM STARTED BY                                cahart
 ***** **    ** ** **   PROGRAM PROCESS ID                                131566
  **** **  *******  **  PROGRAM STARTED IN /mnt/lustre/a2fs-work2/work/e05/e05/c
                                           ahart/postdoc/transport/cp2k-smeagol-
                                           examples/au-capacitor/cp2k-smeagol/kp
                                           oints-2-2-20_V-4_double-contour

 CP2K| version string:                 CP2K version 2022.1 (Development Version)
 CP2K| source code revision number:                                  git:3a6d0d5
 CP2K| cp2kflags: omp libint fftw3 libxc elpa parallel mpi3 scalapack mkl       
 CP2K| is freely available from                            https://www.cp2k.org/
 CP2K| Program compiled at                          Fri  3 Nov 17:12:21 GMT 2023
 CP2K| Program compiled on                                                  ln01
 CP2K| Program compiled for                                                local
 CP2K| Data directory path    /work/e05/e05/cahart/smeagol/smgl/cp2k-private-ser
 CP2K| Input file name                                                  4_4V.inp

 GLOBAL| Force Environment number                                              1
 GLOBAL| Basis set file name            /work/e05/e05/cahart/smeagol/smgl/cp2k-p
 GLOBAL| Potential file name            /work/e05/e05/cahart/smeagol/smgl/cp2k-p
 GLOBAL| MM Potential file name                                     MM_POTENTIAL
 GLOBAL| Coordinate file name                                             em.xyz
 GLOBAL| Method name                                                        CP2K
 GLOBAL| Project name                                                         4V
 GLOBAL| Run type                                                         ENERGY
 GLOBAL| FFT library                                                       FFTW3
 GLOBAL| Diagonalization library                                            ELPA
 GLOBAL| Minimum number of eigenvectors for ELPA usage                        16
 GLOBAL| Orthonormality check for eigenvectors                          DISABLED
 GLOBAL| Matrix multiplication library                                 ScaLAPACK
 GLOBAL| All-to-all communication in single precision                          F
 GLOBAL| FFTs using library dependent lengths                                  T
 GLOBAL| Grid backend                                                       AUTO
 GLOBAL| Global print level                                               MEDIUM
 GLOBAL| MPI I/O enabled                                                       T
 GLOBAL| Total number of message passing processes                           128
 GLOBAL| Number of threads for this process                                    4
 GLOBAL| This output is from process                                           0
 GLOBAL| Stack size for threads created by OpenMP (OMP_STACKSIZE)        default
 GLOBAL| CPU model name                          AMD EPYC 7742 64-Core Processor
 GLOBAL| CPUID                                                              1002

 MEMORY| system memory details [Kb]
 MEMORY|                        rank 0           min           max       average
 MEMORY| MemTotal            263866200     263866200     263866200     263866200
 MEMORY| MemFree             241909432     241905992     242996748     242452954
 MEMORY| Buffers                     0             0             0             0
 MEMORY| Cached                2358804       1363260       2358804       1861032
 MEMORY| Slab                  2796856       2712048       2796856       2754451
 MEMORY| SReclaimable           129012        114852        129012        121932
 MEMORY| MemLikelyFree       244397248     244393808     244474860     244435918


 *** Fundamental physical constants (SI units) ***

 *** Literature: B. J. Mohr and B. N. Taylor,
 ***             CODATA recommended values of the fundamental physical
 ***             constants: 2006, Web Version 5.1
 ***             http://physics.nist.gov/constants

 Speed of light in vacuum [m/s]                             2.99792458000000E+08
 Magnetic constant or permeability of vacuum [N/A**2]       1.25663706143592E-06
 Electric constant or permittivity of vacuum [F/m]          8.85418781762039E-12
 Planck constant (h) [J*s]                                  6.62606896000000E-34
 Planck constant (h-bar) [J*s]                              1.05457162825177E-34
 Elementary charge [C]                                      1.60217648700000E-19
 Electron mass [kg]                                         9.10938215000000E-31
 Electron g factor [ ]                                     -2.00231930436220E+00
 Proton mass [kg]                                           1.67262163700000E-27
 Fine-structure constant                                    7.29735253760000E-03
 Rydberg constant [1/m]                                     1.09737315685270E+07
 Avogadro constant [1/mol]                                  6.02214179000000E+23
 Boltzmann constant [J/K]                                   1.38065040000000E-23
 Atomic mass unit [kg]                                      1.66053878200000E-27
 Bohr radius [m]                                            5.29177208590000E-11

 *** Conversion factors ***

 [u] -> [a.u.]                                              1.82288848426455E+03
 [Angstrom] -> [Bohr] = [a.u.]                              1.88972613288564E+00
 [a.u.] = [Bohr] -> [Angstrom]                              5.29177208590000E-01
 [a.u.] -> [s]                                              2.41888432650478E-17
 [a.u.] -> [fs]                                             2.41888432650478E-02
 [a.u.] -> [J]                                              4.35974393937059E-18
 [a.u.] -> [N]                                              8.23872205491840E-08
 [a.u.] -> [K]                                              3.15774647902944E+05
 [a.u.] -> [kJ/mol]                                         2.62549961709828E+03
 [a.u.] -> [kcal/mol]                                       6.27509468713739E+02
 [a.u.] -> [Pa]                                             2.94210107994716E+13
 [a.u.] -> [bar]                                            2.94210107994716E+08
 [a.u.] -> [atm]                                            2.90362800883016E+08
 [a.u.] -> [eV]                                             2.72113838565563E+01
 [a.u.] -> [Hz]                                             6.57968392072181E+15
 [a.u.] -> [1/cm] (wave numbers)                            2.19474631370540E+05
 [a.u./Bohr**2] -> [1/cm]                                   5.14048714338585E+03
 

 CELL_TOP| Volume [angstrom^3]:                                      2357.480286
 CELL_TOP| Vector a [angstrom     8.336     0.000     0.000   |a| =     8.336000
 CELL_TOP| Vector b [angstrom     0.000     8.336     0.000   |b| =     8.336000
 CELL_TOP| Vector c [angstrom     0.000     0.000    33.926   |c| =    33.926000
 CELL_TOP| Angle (b,c), alpha [degree]:                                90.000000
 CELL_TOP| Angle (a,c), beta  [degree]:                                90.000000
 CELL_TOP| Angle (a,b), gamma [degree]:                                90.000000
 CELL_TOP| Numerically orthorhombic:                                         YES
 CELL_TOP| Periodicity                                                       XYZ

 GENERATE|  Preliminary Number of Bonds generated:                             0
 GENERATE|  Achieved consistency in connectivity generation.

 CELL| Volume [angstrom^3]:                                          2357.480286
 CELL| Vector a [angstrom]:       8.336     0.000     0.000   |a| =     8.336000
 CELL| Vector b [angstrom]:       0.000     8.336     0.000   |b| =     8.336000
 CELL| Vector c [angstrom]:       0.000     0.000    33.926   |c| =    33.926000
 CELL| Angle (b,c), alpha [degree]:                                    90.000000
 CELL| Angle (a,c), beta  [degree]:                                    90.000000
 CELL| Angle (a,b), gamma [degree]:                                    90.000000
 CELL| Numerically orthorhombic:                                             YES
 CELL| Periodicity                                                           XYZ

 CELL_REF| Volume [angstrom^3]:                                      2357.480286
 CELL_REF| Vector a [angstrom     8.336     0.000     0.000   |a| =     8.336000
 CELL_REF| Vector b [angstrom     0.000     8.336     0.000   |b| =     8.336000
 CELL_REF| Vector c [angstrom     0.000     0.000    33.926   |c| =    33.926000
 CELL_REF| Angle (b,c), alpha [degree]:                                90.000000
 CELL_REF| Angle (a,c), beta  [degree]:                                90.000000
 CELL_REF| Angle (a,b), gamma [degree]:                                90.000000
 CELL_REF| Numerically orthorhombic:                                         YES
 CELL_REF| Periodicity                                                       XYZ

 *** WARNING in cryssym.F:165 :: Symmetry library SPGLIB not available ***


 *******************************************************************************
                                    Kpoints
 *******************************************************************************
 BRILLOUIN| K-point scheme                                        Monkhorst-Pack
 BRILLOUIN| K-Point grid                                             2    2    1
 BRILLOUIN| Accuracy in Symmetry determination                      0.100000E-07
 BRILLOUIN| K-Point point group symmetrization                               OFF
 BRILLOUIN| Wavefunction type                                            COMPLEX
 BRILLOUIN| Use full k-point grid     
 BRILLOUIN| List of Kpoints [2 Pi/Bohr]                                        4
 BRILLOUIN| Number           Weight            X              Y              Z
 BRILLOUIN|     1           0.25000       -0.25000       -0.25000        0.00000
 BRILLOUIN|     2           0.25000       -0.25000        0.25000        0.00000
 BRILLOUIN|     3           0.25000        0.25000       -0.25000        0.00000
 BRILLOUIN|     4           0.25000        0.25000        0.25000        0.00000
 *******************************************************************************

 *******************************************************************************
 *******************************************************************************
 **                                                                           **
 **     #####                         ##              ##                      **
 **    ##   ##            ##          ##              ##                      **
 **   ##     ##                       ##            ######                    **
 **   ##     ##  ##   ##  ##   #####  ##  ##   ####   ##    #####    #####    **
 **   ##     ##  ##   ##  ##  ##      ## ##   ##      ##   ##   ##  ##   ##   **
 **   ##  ## ##  ##   ##  ##  ##      ####     ###    ##   ######   ######    **
 **    ##  ###   ##   ##  ##  ##      ## ##      ##   ##   ##       ##        **
 **     #######   #####   ##   #####  ##  ##  ####    ##    #####   ##        **
 **           ##                                                    ##        **
 **                                                                           **
 **                                                ... make the atoms dance   **
 **                                                                           **
 **            Copyright (C) by CP2K developers group (2000-2022)             **
 **                      J. Chem. Phys. 152, 194103 (2020)                    **
 **                                                                           **
 *******************************************************************************

 DFT| Spin restricted Kohn-Sham (RKS) calculation                            RKS
 DFT| Multiplicity                                                             1
 DFT| Number of spin states                                                    1
 DFT| Charge                                                                   0
 DFT| Self-interaction correction (SIC)                                       NO
 DFT| Cutoffs: density                                              1.000000E-10
 DFT|          gradient                                             1.000000E-10
 DFT|          tau                                                  1.000000E-10
 DFT|          cutoff_smoothing_range                               0.000000E+00
 DFT| XC density smoothing                                                  NONE
 DFT| XC derivatives                                                          PW

 FUNCTIONAL| PADE:
 FUNCTIONAL| S. Goedecker, M. Teter and J. Hutter, Phys. Rev. B 54, 1703 (1996) 


 QS| Method:                                                                 GPW
 QS| Density plane wave grid type                        NON-SPHERICAL FULLSPACE
 QS| Number of grid levels:                                                    4
 QS| Density cutoff [a.u.]:                                                200.0
 QS| Multi grid cutoff [a.u.]: 1) grid level                               200.0
 QS|                           2) grid level                                66.7
 QS|                           3) grid level                                22.2
 QS|                           4) grid level                                 7.4
 QS| Grid level progression factor:                                          3.0
 QS| Relative density cutoff [a.u.]:                                        20.0
 QS| Interaction thresholds: eps_pgf_orb:                                1.0E-05
 QS|                         eps_filter_matrix:                          0.0E+00
 QS|                         eps_core_charge:                            1.0E-12
 QS|                         eps_rho_gspace:                             1.0E-10
 QS|                         eps_rho_rspace:                             1.0E-10
 QS|                         eps_gvg_rspace:                             1.0E-05
 QS|                         eps_ppl:                                    1.0E-02
 QS|                         eps_ppnl:                                   1.0E-07


 ATOMIC KIND INFORMATION

  1. Atomic kind: Au                                    Number of atoms:      96

     Orbital Basis Set                                         SZV-MOLOPT-SR-GTH

       Number of orbital shell sets:                                           1
       Number of orbital shells:                                               3
       Number of primitive Cartesian functions:                                5
       Number of Cartesian basis functions:                                   10
       Number of spherical basis functions:                                    9
       Norm type:                                                              2

       Normalised Cartesian orbitals:

                        Set   Shell   Orbital            Exponent    Coefficient

                          1       1    2s                2.950008       0.074626
                                                         1.563057      -0.007898
                                                         0.666664      -0.297688
                                                         0.251083       0.136809
                                                         0.081714       0.088198

                          1       2    3px               2.950008       0.148824
                                                         1.563057       0.025430
                                                         0.666664      -0.123003
                                                         0.251083       0.033648
                                                         0.081714       0.059008
                          1       2    3py               2.950008       0.148824
                                                         1.563057       0.025430
                                                         0.666664      -0.123003
                                                         0.251083       0.033648
                                                         0.081714       0.059008
                          1       2    3pz               2.950008       0.148824
                                                         1.563057       0.025430
                                                         0.666664      -0.123003
                                                         0.251083       0.033648
                                                         0.081714       0.059008

                          1       3    4dx2              2.950008      -0.139595
                                                         1.563057       1.319655
                                                         0.666664       0.377081
                                                         0.251083       0.046872
                                                         0.081714       0.001393
                          1       3    4dxy              2.950008      -0.241786
                                                         1.563057       2.285709
                                                         0.666664       0.653124
                                                         0.251083       0.081185
                                                         0.081714       0.002412
                          1       3    4dxz              2.950008      -0.241786
                                                         1.563057       2.285709
                                                         0.666664       0.653124
                                                         0.251083       0.081185
                                                         0.081714       0.002412
                          1       3    4dy2              2.950008      -0.139595
                                                         1.563057       1.319655
                                                         0.666664       0.377081
                                                         0.251083       0.046872
                                                         0.081714       0.001393
                          1       3    4dyz              2.950008      -0.241786
                                                         1.563057       2.285709
                                                         0.666664       0.653124
                                                         0.251083       0.081185
                                                         0.081714       0.002412
                          1       3    4dz2              2.950008      -0.139595
                                                         1.563057       1.319655
                                                         0.666664       0.377081
                                                         0.251083       0.046872
                                                         0.081714       0.001393

       Atomic covalent radius [Angstrom]:                                  1.340

       Atomic van der Waals radius [Angstrom]:                             1.660

     GTH Potential information for                                  GTH-PADE-q11

       Description:                       Goedecker-Teter-Hutter pseudopotential
                                           Goedecker et al., PRB 54, 1703 (1996)
                                          Hartwigsen et al., PRB 58, 3641 (1998)
                                                      Krack, TCA 114, 145 (2005)

       Gaussian exponent of the core charge distribution:               1.436369
       Electronic configuration (s p d ...):                           1   0  10

       Parameters of the local part of the GTH pseudopotential:

                          rloc        C1          C2          C3          C4
                        0.590000   11.604428

       Parameters of the non-local part of the GTH pseudopotential:

                   l      r(l)      h(i,j,l)

                   0    0.521180    2.538614   -1.046137
                                   -1.046137    2.701113
                   1    0.630613    0.394853   -0.869592
                                   -0.869592    2.057831
                   2    0.440706   -4.719070    0.727771
                                    0.727771   -1.650429


 MOLECULE KIND INFORMATION


 All atoms are their own molecule, skipping detailed information


 TOTAL NUMBERS AND MAXIMUM NUMBERS

  Total number of            - Atomic kinds:                                   1
                             - Atoms:                                         96
                             - Shell sets:                                    96
                             - Shells:                                       288
                             - Primitive Cartesian functions:                480
                             - Cartesian basis functions:                    960
                             - Spherical basis functions:                    864

  Maximum angular momentum of- Orbital basis functions:                        2
                             - Local part of the GTH pseudopotential:          0
                             - Non-local part of the GTH pseudopotential:      4


 MODULE QUICKSTEP: ATOMIC COORDINATES IN ANGSTROM

   Atom Kind Element         X             Y             Z       Z(eff)     Mass
      1    1 Au   79      0.000000      0.000000      0.000000  11.0000 196.9666
      2    1 Au   79      0.000000      4.168000      0.000000  11.0000 196.9666
      3    1 Au   79      2.084000      2.084000      0.000000  11.0000 196.9666
      4    1 Au   79      2.084000      6.252000      0.000000  11.0000 196.9666
      5    1 Au   79      4.168000      0.000000      0.000000  11.0000 196.9666
      6    1 Au   79      4.168000      4.168000      0.000000  11.0000 196.9666
      7    1 Au   79      6.252000      2.084000      0.000000  11.0000 196.9666
      8    1 Au   79      6.252000      6.252000      0.000000  11.0000 196.9666
      9    1 Au   79      0.000000      2.084000      2.084000  11.0000 196.9666
     10    1 Au   79      0.000000      6.252000      2.084000  11.0000 196.9666
     11    1 Au   79      2.084000      0.000000      2.084000  11.0000 196.9666
     12    1 Au   79      2.084000      4.168000      2.084000  11.0000 196.9666
     13    1 Au   79      4.168000      2.084000      2.084000  11.0000 196.9666
     14    1 Au   79      4.168000      6.252000      2.084000  11.0000 196.9666
     15    1 Au   79      6.252000      0.000000      2.084000  11.0000 196.9666
     16    1 Au   79      6.252000      4.168000      2.084000  11.0000 196.9666
     17    1 Au   79      0.000000      0.000000      4.168000  11.0000 196.9666
     18    1 Au   79      0.000000      4.168000      4.168000  11.0000 196.9666
     19    1 Au   79      2.084000      2.084000      4.168000  11.0000 196.9666
     20    1 Au   79      2.084000      6.252000      4.168000  11.0000 196.9666
     21    1 Au   79      4.168000      0.000000      4.168000  11.0000 196.9666
     22    1 Au   79      4.168000      4.168000      4.168000  11.0000 196.9666
     23    1 Au   79      6.252000      2.084000      4.168000  11.0000 196.9666
     24    1 Au   79      6.252000      6.252000      4.168000  11.0000 196.9666
     25    1 Au   79      0.000000      2.084000      6.252000  11.0000 196.9666
     26    1 Au   79      0.000000      6.252000      6.252000  11.0000 196.9666
     27    1 Au   79      2.084000      0.000000      6.252000  11.0000 196.9666
     28    1 Au   79      2.084000      4.168000      6.252000  11.0000 196.9666
     29    1 Au   79      4.168000      2.084000      6.252000  11.0000 196.9666
     30    1 Au   79      4.168000      6.252000      6.252000  11.0000 196.9666
     31    1 Au   79      6.252000      0.000000      6.252000  11.0000 196.9666
     32    1 Au   79      6.252000      4.168000      6.252000  11.0000 196.9666
     33    1 Au   79      0.000000      0.000000      8.336000  11.0000 196.9666
     34    1 Au   79      0.000000      4.168000      8.336000  11.0000 196.9666
     35    1 Au   79      2.084000      2.084000      8.336000  11.0000 196.9666
     36    1 Au   79      2.084000      6.252000      8.336000  11.0000 196.9666
     37    1 Au   79      4.168000      0.000000      8.336000  11.0000 196.9666
     38    1 Au   79      4.168000      4.168000      8.336000  11.0000 196.9666
     39    1 Au   79      6.252000      2.084000      8.336000  11.0000 196.9666
     40    1 Au   79      6.252000      6.252000      8.336000  11.0000 196.9666
     41    1 Au   79      0.000000      2.084000     10.420000  11.0000 196.9666
     42    1 Au   79      0.000000      6.252000     10.420000  11.0000 196.9666
     43    1 Au   79      2.084000      0.000000     10.420000  11.0000 196.9666
     44    1 Au   79      2.084000      4.168000     10.420000  11.0000 196.9666
     45    1 Au   79      4.168000      2.084000     10.420000  11.0000 196.9666
     46    1 Au   79      4.168000      6.252000     10.420000  11.0000 196.9666
     47    1 Au   79      6.252000      0.000000     10.420000  11.0000 196.9666
     48    1 Au   79      6.252000      4.168000     10.420000  11.0000 196.9666
     49    1 Au   79      0.000000      0.000000     21.422000  11.0000 196.9666
     50    1 Au   79      0.000000      4.168000     21.422000  11.0000 196.9666
     51    1 Au   79      2.084000      2.084000     21.422000  11.0000 196.9666
     52    1 Au   79      2.084000      6.252000     21.422000  11.0000 196.9666
     53    1 Au   79      4.168000      0.000000     21.422000  11.0000 196.9666
     54    1 Au   79      4.168000      4.168000     21.422000  11.0000 196.9666
     55    1 Au   79      6.252000      2.084000     21.422000  11.0000 196.9666
     56    1 Au   79      6.252000      6.252000     21.422000  11.0000 196.9666
     57    1 Au   79      0.000000      2.084000     23.506000  11.0000 196.9666
     58    1 Au   79      0.000000      6.252000     23.506000  11.0000 196.9666
     59    1 Au   79      2.084000      0.000000     23.506000  11.0000 196.9666
     60    1 Au   79      2.084000      4.168000     23.506000  11.0000 196.9666
     61    1 Au   79      4.168000      2.084000     23.506000  11.0000 196.9666
     62    1 Au   79      4.168000      6.252000     23.506000  11.0000 196.9666
     63    1 Au   79      6.252000      0.000000     23.506000  11.0000 196.9666
     64    1 Au   79      6.252000      4.168000     23.506000  11.0000 196.9666
     65    1 Au   79      0.000000      0.000000     25.590000  11.0000 196.9666
     66    1 Au   79      0.000000      4.168000     25.590000  11.0000 196.9666
     67    1 Au   79      2.084000      2.084000     25.590000  11.0000 196.9666
     68    1 Au   79      2.084000      6.252000     25.590000  11.0000 196.9666
     69    1 Au   79      4.168000      0.000000     25.590000  11.0000 196.9666
     70    1 Au   79      4.168000      4.168000     25.590000  11.0000 196.9666
     71    1 Au   79      6.252000      2.084000     25.590000  11.0000 196.9666
     72    1 Au   79      6.252000      6.252000     25.590000  11.0000 196.9666
     73    1 Au   79      0.000000      2.084000     27.674000  11.0000 196.9666
     74    1 Au   79      0.000000      6.252000     27.674000  11.0000 196.9666
     75    1 Au   79      2.084000      0.000000     27.674000  11.0000 196.9666
     76    1 Au   79      2.084000      4.168000     27.674000  11.0000 196.9666
     77    1 Au   79      4.168000      2.084000     27.674000  11.0000 196.9666
     78    1 Au   79      4.168000      6.252000     27.674000  11.0000 196.9666
     79    1 Au   79      6.252000      0.000000     27.674000  11.0000 196.9666
     80    1 Au   79      6.252000      4.168000     27.674000  11.0000 196.9666
     81    1 Au   79      0.000000      0.000000     29.758000  11.0000 196.9666
     82    1 Au   79      0.000000      4.168000     29.758000  11.0000 196.9666
     83    1 Au   79      2.084000      2.084000     29.758000  11.0000 196.9666
     84    1 Au   79      2.084000      6.252000     29.758000  11.0000 196.9666
     85    1 Au   79      4.168000      0.000000     29.758000  11.0000 196.9666
     86    1 Au   79      4.168000      4.168000     29.758000  11.0000 196.9666
     87    1 Au   79      6.252000      2.084000     29.758000  11.0000 196.9666
     88    1 Au   79      6.252000      6.252000     29.758000  11.0000 196.9666
     89    1 Au   79      0.000000      2.084000     31.842000  11.0000 196.9666
     90    1 Au   79      0.000000      6.252000     31.842000  11.0000 196.9666
     91    1 Au   79      2.084000      0.000000     31.842000  11.0000 196.9666
     92    1 Au   79      2.084000      4.168000     31.842000  11.0000 196.9666
     93    1 Au   79      4.168000      2.084000     31.842000  11.0000 196.9666
     94    1 Au   79      4.168000      6.252000     31.842000  11.0000 196.9666
     95    1 Au   79      6.252000      0.000000     31.842000  11.0000 196.9666
     96    1 Au   79      6.252000      4.168000     31.842000  11.0000 196.9666



 SCF PARAMETERS         Density guess:                                   RESTART
                        --------------------------------------------------------
                        max_scf:                                             500
                        max_scf_history:                                       0
                        max_diis:                                              4
                        --------------------------------------------------------
                        eps_scf:                                        1.00E-05
                        eps_scf_history:                                0.00E+00
                        eps_diis:                                       1.00E-01
                        eps_eigval:                                     1.00E-05
                        --------------------------------------------------------
                        level_shift [a.u.]:                             0.000000
                        added MOs                                       100    0
                        --------------------------------------------------------
                        Mixing method:                            BROYDEN_MIXING
                                                charge density mixing in g-space
                        --------------------------------------------------------
                        Smear method:                                FERMI_DIRAC
                        Electronic temperature [K]:                        293.0
                        Electronic temperature [a.u.]:                  9.28E-04
                        Accuracy threshold:                             1.00E-10
                        --------------------------------------------------------
                        No outer SCF

 PW_GRID| Information for grid number                                          1
 PW_GRID| Grid distributed over                                   128 processors
 PW_GRID| Real space group dimensions                                     8   16
 PW_GRID| the grid is blocked:                                               YES
 PW_GRID| Cutoff [a.u.]                                                    200.0
 PW_GRID| spherical cutoff:                                                   NO
 PW_GRID|   Bounds   1            -52      52                Points:         105
 PW_GRID|   Bounds   2            -52      52                Points:         105
 PW_GRID|   Bounds   3           -210     209                Points:         420
 PW_GRID| Volume element (a.u.^3)  0.3436E-02     Volume (a.u.^3)     15909.0657
 PW_GRID| Grid span                                                    FULLSPACE
 PW_GRID|   Distribution                         Average         Max         Min
 PW_GRID|   G-Vectors                            36175.8       39690       35490
 PW_GRID|   G-Rays                                 344.5         378         338
 PW_GRID|   Real Space Points                    36175.8       39690       35490

 PW_GRID| Information for grid number                                          2
 PW_GRID| Number of the reference grid                                         1
 PW_GRID| Grid distributed over                                   128 processors
 PW_GRID| Real space group dimensions                                     8   16
 PW_GRID| the grid is blocked:                                                NO
 PW_GRID| Cutoff [a.u.]                                                     66.7
 PW_GRID| spherical cutoff:                                                   NO
 PW_GRID|   Bounds   1            -30      29                Points:          60
 PW_GRID|   Bounds   2            -30      29                Points:          60
 PW_GRID|   Bounds   3           -120     119                Points:         240
 PW_GRID| Volume element (a.u.^3)  0.1841E-01     Volume (a.u.^3)     15909.0657
 PW_GRID| Grid span                                                    FULLSPACE
 PW_GRID|   Distribution                         Average         Max         Min
 PW_GRID|   G-Vectors                             6750.0       21060           0
 PW_GRID|   G-Rays                                 112.5         351           0
 PW_GRID|   Real Space Points                     6750.0        7680        5040

 PW_GRID| Information for grid number                                          3
 PW_GRID| Number of the reference grid                                         1
 PW_GRID| Grid distributed over                                   128 processors
 PW_GRID| Real space group dimensions                                     8   16
 PW_GRID| the grid is blocked:                                                NO
 PW_GRID| Cutoff [a.u.]                                                     22.2
 PW_GRID| spherical cutoff:                                                   NO
 PW_GRID|   Bounds   1            -16      16                Points:          33
 PW_GRID|   Bounds   2            -16      16                Points:          33
 PW_GRID|   Bounds   3            -70      69                Points:         140
 PW_GRID| Volume element (a.u.^3)  0.1043         Volume (a.u.^3)     15909.0657
 PW_GRID| Grid span                                                    FULLSPACE
 PW_GRID|   Distribution                         Average         Max         Min
 PW_GRID|   G-Vectors                             1191.1       11583           0
 PW_GRID|   G-Rays                                  36.1         351           0
 PW_GRID|   Real Space Points                     1191.1        2100        1120

 PW_GRID| Information for grid number                                          4
 PW_GRID| Number of the reference grid                                         1
 PW_GRID| Grid distributed over                                   128 processors
 PW_GRID| Real space group dimensions                                     8   16
 PW_GRID| the grid is blocked:                                                NO
 PW_GRID| Cutoff [a.u.]                                                      7.4
 PW_GRID| spherical cutoff:                                                   NO
 PW_GRID|   Bounds   1            -10       9                Points:          20
 PW_GRID|   Bounds   2            -10       9                Points:          20
 PW_GRID|   Bounds   3            -40      39                Points:          80
 PW_GRID| Volume element (a.u.^3)  0.4972         Volume (a.u.^3)     15909.0657
 PW_GRID| Grid span                                                    FULLSPACE
 PW_GRID|   Distribution                         Average         Max         Min
 PW_GRID|   G-Vectors                              250.0        5200           0
 PW_GRID|   G-Rays                                  12.5         260           0
 PW_GRID|   Real Space Points                      250.0         480         160

 POISSON| Solver                                                        PERIODIC
 POISSON| Periodicity                                                        XYZ

 RS_GRID| Information for grid number                                          1
 RS_GRID|   Bounds   1            -52      52                Points:         105
 RS_GRID|   Bounds   2            -52      52                Points:         105
 RS_GRID|   Bounds   3           -210     209                Points:         420
 RS_GRID| Real space distribution over                                  4 groups
 RS_GRID| Real space distribution along direction                              2
 RS_GRID| Border size                                                         30
 RS_GRID| Real space distribution over                                 32 groups
 RS_GRID| Real space distribution along direction                              3
 RS_GRID| Border size                                                         30
 RS_GRID|   Distribution                         Average         Max         Min
 RS_GRID|   Planes                                  86.2          87          86
 RS_GRID|   Distribution                         Average         Max         Min
 RS_GRID|   Planes                                  73.1          74          73

 RS_GRID| Information for grid number                                          2
 RS_GRID|   Bounds   1            -30      29                Points:          60
 RS_GRID|   Bounds   2            -30      29                Points:          60
 RS_GRID|   Bounds   3           -120     119                Points:         240
 RS_GRID| Real space distribution over                                  4 groups
 RS_GRID| Real space distribution along direction                              2
 RS_GRID| Border size                                                         20
 RS_GRID| Real space distribution over                                 32 groups
 RS_GRID| Real space distribution along direction                              3
 RS_GRID| Border size                                                         20
 RS_GRID|   Distribution                         Average         Max         Min
 RS_GRID|   Planes                                  55.0          55          55
 RS_GRID|   Distribution                         Average         Max         Min
 RS_GRID|   Planes                                  47.5          48          47

 RS_GRID| Information for grid number                                          3
 RS_GRID|   Bounds   1            -16      16                Points:          33
 RS_GRID|   Bounds   2            -16      16                Points:          33
 RS_GRID|   Bounds   3            -70      69                Points:         140
 RS_GRID| Real space fully replicated
 RS_GRID| Group size                                                           1

 RS_GRID| Information for grid number                                          4
 RS_GRID|   Bounds   1            -10       9                Points:          20
 RS_GRID|   Bounds   2            -10       9                Points:          20
 RS_GRID|   Bounds   3            -40      39                Points:          80
 RS_GRID| Real space fully replicated
 RS_GRID| Group size                                                           1

 KPOINTS| Number of kpoint groups                                              1
 KPOINTS| Size of each kpoint group                                          128
 KPOINTS| Number of kpoints per group                                          4

 Number of electrons:                                                       1056
 Number of occupied orbitals:                                                528
 Number of molecular orbitals:                                               628

 Number of orbital functions:                                                864
 Number of independent orbital functions:                                    864

 Extrapolation method: initial_guess

 *** WARNING in qs_initial_guess.F:310 :: User requested to restart the    ***
 *** wavefunction from the file named: 4V-RESTART_0.kp. This file does not ***
 *** exist. Please check the existence of the file or change properly the  ***
 *** value of the keyword WFN_RESTART_FILE_NAME. Calculation continues     ***
 *** using ATOMIC GUESS.                                                   ***


 Atomic guess: The first density matrix is obtained in terms of atomic orbitals
               and electronic configurations assigned to each atomic kind

 Guess for atomic kind: Au

 Electronic structure
    Total number of core electrons                                         68.00
    Total number of valence electrons                                      11.00
    Total number of electrons                                              79.00
    Multiplicity                                                   not specified
    S   [  2.00  2.00  2.00  2.00  2.00] 1.00
    P   [  6.00  6.00  6.00  6.00]
    D   [ 10.00 10.00]10.00
    F   [ 14.00]


 *******************************************************************************
                  Iteration          Convergence                     Energy [au]
 *******************************************************************************
                          1         0.00000                     -33.033218197848

 Energy components [Hartree]           Total Energy ::          -33.033218197848
                                        Band Energy ::           -1.147505983145
                                     Kinetic Energy ::           24.744064437587
                                   Potential Energy ::          -57.777282635435
                                      Virial (-V/T) ::            2.334995642336
                                        Core Energy ::          -60.197309615488
                                          XC Energy ::           -5.116883226844
                                     Coulomb Energy ::           32.280974644483
                       Total Pseudopotential Energy ::          -85.042885173964
                       Local Pseudopotential Energy ::          -66.341694915099
                    Nonlocal Pseudopotential Energy ::          -18.701190258865
                                        Confinement ::            1.015111208892

 Orbital energies  State     L     Occupation   Energy[a.u.]          Energy[eV]

                       1     0          1.000      -0.213792           -5.817572

                       1     2         10.000      -0.093371           -2.540765


 Total Electron Density at R=0:                                         0.000035
 Re-scaling the density matrix to get the right number of electrons
                  # Electrons              Trace(P)               Scaling factor
                         1056              1056.000                        1.000


 SCF WAVEFUNCTION OPTIMIZATION

  Step     Update method      Time    Convergence         Total energy    Change
  ------------------------------------------------------------------------------
     1 NoMix/SMGL  0.30E+00   41.2     8.96958021     -3196.1539753039 -3.20E+03
     2 Broy./SMGL  0.30E+00   10.7    18.74148382     -3349.4217129704 -1.53E+02
     3 Broy./SMGL  0.30E+00   10.8    15.21348607     -3379.6737230890 -3.03E+01
     4 Broy./SMGL  0.30E+00   10.7     3.29396569     -3046.6904217943  3.33E+02
     5 Broy./SMGL  0.30E+00   10.7     5.30199974     -3109.2878408482 -6.26E+01
     6 Broy./SMGL  0.30E+00   10.7     1.54704569     -3169.3668109357 -6.01E+01
     7 Broy./SMGL  0.30E+00   10.6     3.47174506     -3171.9101226138 -2.54E+00
     8 Broy./SMGL  0.30E+00   10.7     0.17145906     -3198.5545606961 -2.66E+01
     9 Broy./SMGL  0.30E+00   10.7     1.69640466     -3187.2690380905  1.13E+01
    10 Broy./SMGL  0.30E+00   10.7     0.07274153     -3201.9085997117 -1.46E+01
    11 Broy./SMGL  0.30E+00   10.7     4.39891342     -3185.8765512713  1.60E+01
    12 Broy./SMGL  0.30E+00   10.7    11.34060417     -3371.2168621213 -1.85E+02
    13 Broy./SMGL  0.30E+00   10.6    13.03535259     -3355.3782755773  1.58E+01
    14 Broy./SMGL  0.30E+00   10.8     0.82824793     -3176.3168383509  1.79E+02
    15 Broy./SMGL  0.30E+00   10.6     0.12865798     -3183.2667080563 -6.95E+00
    16 Broy./SMGL  0.30E+00   10.7     0.30838359     -3182.0316748704  1.24E+00
    17 Broy./SMGL  0.30E+00   10.7     0.02359036     -3187.2668540662 -5.24E+00
    18 Broy./SMGL  0.30E+00   10.7     0.02821516     -3187.7540303997 -4.87E-01
    19 Broy./SMGL  0.30E+00   10.7     0.30307294     -3185.6290817472  2.12E+00
    20 Broy./SMGL  0.30E+00   10.8     0.24130365     -3188.3298983219 -2.70E+00
    21 Broy./SMGL  0.30E+00   10.7     0.00734716     -3192.0083522758 -3.68E+00
    22 Broy./SMGL  0.30E+00   10.6    17.65893759     -3190.3065906248  1.70E+00
    23 Broy./SMGL  0.30E+00   10.7    14.93323492     -3368.4348599866 -1.78E+02
    24 Broy./SMGL  0.30E+00   10.7     1.26642499     -3172.1629434485  1.96E+02
    25 Broy./SMGL  0.30E+00   10.7     0.98977961     -3172.5034454480 -3.41E-01
    26 Broy./SMGL  0.30E+00   10.8     0.24825036     -3177.8594201827 -5.36E+00
    27 Broy./SMGL  0.30E+00   10.8     0.30057380     -3176.8277449233  1.03E+00
    28 Broy./SMGL  0.30E+00   10.6     0.12052693     -3179.6067750082 -2.78E+00
    29 Broy./SMGL  0.30E+00   10.8     0.04896032     -3180.3656486883 -7.59E-01
    30 Broy./SMGL  0.30E+00   10.7     0.26449786     -3180.3569949575  8.65E-03
    31 Broy./SMGL  0.30E+00   10.6     0.37536174     -3183.3510695946 -2.99E+00
    32 Broy./SMGL  0.30E+00   10.9     4.55689710     -3181.8957842766  1.46E+00
    33 Broy./SMGL  0.30E+00   10.7     3.89387693     -3234.7284619046 -5.28E+01
    34 Broy./SMGL  0.30E+00   10.8     0.88751274     -3180.0628234652  5.47E+01
    35 Broy./SMGL  0.30E+00   10.7     0.10700450     -3188.2814365604 -8.22E+00
    36 Broy./SMGL  0.30E+00   10.8     0.20839531     -3189.2828940275 -1.00E+00
    37 Broy./SMGL  0.30E+00   10.7     0.02827761     -3190.8995641217 -1.62E+00
    38 Broy./SMGL  0.30E+00   10.7     0.13545314     -3191.2390298238 -3.39E-01
    39 Broy./SMGL  0.30E+00   10.7     0.00808933     -3193.8530173955 -2.61E+00
    40 Broy./SMGL  0.30E+00   10.7     0.00910000     -3194.0729665226 -2.20E-01
    41 Broy./SMGL  0.30E+00   10.7     0.13589152     -3193.3709681015  7.02E-01
    42 Broy./SMGL  0.30E+00   10.7     0.06263943     -3197.6089267141 -4.24E+00
    43 Broy./SMGL  0.30E+00   10.7     0.03020916     -3196.2267064665  1.38E+00
    44 Broy./SMGL  0.30E+00   10.8     0.06466130     -3196.6896985196 -4.63E-01
    45 Broy./SMGL  0.30E+00   10.7     0.02022159     -3194.6069173588  2.08E+00
    46 Broy./SMGL  0.30E+00   10.7     0.01090495     -3195.3014242919 -6.95E-01
    47 Broy./SMGL  0.30E+00   10.7     0.00327613     -3194.9741098085  3.27E-01
    48 Broy./SMGL  0.30E+00   10.8     0.00213542     -3195.1520172879 -1.78E-01
    49 Broy./SMGL  0.30E+00   10.7     0.00191855     -3195.1197564582  3.23E-02
    50 Broy./SMGL  0.30E+00   10.7     0.00028721     -3195.1102013468  9.56E-03
    51 Broy./SMGL  0.30E+00   10.8     0.00054740     -3195.0961883666  1.40E-02
    52 Broy./SMGL  0.30E+00   10.7     0.00043418     -3195.1184658449 -2.23E-02
    53 Broy./SMGL  0.30E+00   10.6     0.00015301     -3195.1426751798 -2.42E-02
    54 Broy./SMGL  0.30E+00   10.8     0.00011294     -3195.1347644131  7.91E-03
    55 Broy./SMGL  0.30E+00   10.8     0.00008568     -3195.1366144055 -1.85E-03
    56 Broy./SMGL  0.30E+00   10.7     0.00004946     -3195.1398317868 -3.22E-03
    57 Broy./SMGL  0.30E+00   10.8     0.00004063     -3195.1393340263  4.98E-04
    58 Broy./SMGL  0.30E+00   10.7     0.00001212     -3195.1387085185  6.26E-04
    59 Broy./SMGL  0.30E+00   10.8     0.00000943     -3195.1387696410 -6.11E-05

  *** SCF run converged in    59 steps ***


  Electronic density on regular grids:      -1055.9400125179        0.0599874821
  Core density on regular grids:             1055.9999998266       -0.0000001734
  Total charge density on r-space grids:        0.0599873087
  Total charge density g-space grids:           0.0599873087

  Overlap energy of the core charge distribution:               0.00000029240347
  Self energy of the core charge distribution:              -5553.92051058537163
  Core Hamiltonian energy:                                   1758.40615546390040
  Hartree energy:                                            1097.69170023166680
  Exchange-correlation energy:                               -497.31611504362382
  Electronic entropic energy:                                   0.00000000000000
  Fermi energy:                                                 0.00000000000000

  Total energy:                                             -3195.13876964102519

 The electron density is written in cube file format to the file:

 4V-ELECTRON_DENSITY-1_0.cube

 !-----------------------------------------------------------------------------!
                     Mulliken Population Analysis

 #  Atom  Element  Kind  Atomic population                           Net charge
       1     Au       1         11.000006                             -0.000006
       2     Au       1         11.000007                             -0.000007
       3     Au       1         11.000007                             -0.000007
       4     Au       1         11.000007                             -0.000007
       5     Au       1         11.000007                             -0.000007
       6     Au       1         11.000008                             -0.000008
       7     Au       1         11.000007                             -0.000007
       8     Au       1         11.000007                             -0.000007
       9     Au       1         11.000362                             -0.000362
      10     Au       1         11.000362                             -0.000362
      11     Au       1         11.000362                             -0.000362
      12     Au       1         11.000362                             -0.000362
      13     Au       1         11.000362                             -0.000362
      14     Au       1         11.000362                             -0.000362
      15     Au       1         11.000362                             -0.000362
      16     Au       1         11.000362                             -0.000362
      17     Au       1         10.990159                              0.009841
      18     Au       1         10.990160                              0.009840
      19     Au       1         10.990160                              0.009840
      20     Au       1         10.990160                              0.009840
      21     Au       1         10.990160                              0.009840
      22     Au       1         10.990160                              0.009840
      23     Au       1         10.990160                              0.009840
      24     Au       1         10.990160                              0.009840
      25     Au       1         10.996939                              0.003061
      26     Au       1         10.996939                              0.003061
      27     Au       1         10.996939                              0.003061
      28     Au       1         10.996940                              0.003060
      29     Au       1         10.996940                              0.003060
      30     Au       1         10.996940                              0.003060
      31     Au       1         10.996939                              0.003061
      32     Au       1         10.996940                              0.003060
      33     Au       1         10.938123                              0.061877
      34     Au       1         10.938123                              0.061877
      35     Au       1         10.938123                              0.061877
      36     Au       1         10.938123                              0.061877
      37     Au       1         10.938123                              0.061877
      38     Au       1         10.938123                              0.061877
      39     Au       1         10.938123                              0.061877
      40     Au       1         10.938123                              0.061877
      41     Au       1         11.093062                             -0.093062
      42     Au       1         11.093062                             -0.093062
      43     Au       1         11.093062                             -0.093062
      44     Au       1         11.093062                             -0.093062
      45     Au       1         11.093062                             -0.093062
      46     Au       1         11.093062                             -0.093062
      47     Au       1         11.093062                             -0.093062
      48     Au       1         11.093062                             -0.093062
      49     Au       1         11.054034                             -0.054034
      50     Au       1         11.054034                             -0.054034
      51     Au       1         11.054035                             -0.054035
      52     Au       1         11.054035                             -0.054035
      53     Au       1         11.054034                             -0.054034
      54     Au       1         11.054034                             -0.054034
      55     Au       1         11.054035                             -0.054035
      56     Au       1         11.054035                             -0.054035
      57     Au       1         10.931595                              0.068405
      58     Au       1         10.931595                              0.068405
      59     Au       1         10.931595                              0.068405
      60     Au       1         10.931595                              0.068405
      61     Au       1         10.931595                              0.068405
      62     Au       1         10.931595                              0.068405
      63     Au       1         10.931595                              0.068405
      64     Au       1         10.931595                              0.068405
      65     Au       1         10.997395                              0.002605
      66     Au       1         10.997396                              0.002604
      67     Au       1         10.997396                              0.002604
      68     Au       1         10.997396                              0.002604
      69     Au       1         10.997396                              0.002604
      70     Au       1         10.997396                              0.002604
      71     Au       1         10.997396                              0.002604
      72     Au       1         10.997396                              0.002604
      73     Au       1         10.990511                              0.009489
      74     Au       1         10.990511                              0.009489
      75     Au       1         10.990511                              0.009489
      76     Au       1         10.990512                              0.009488
      77     Au       1         10.990512                              0.009488
      78     Au       1         10.990512                              0.009488
      79     Au       1         10.990511                              0.009489
      80     Au       1         10.990512                              0.009488
      81     Au       1         11.000326                             -0.000326
      82     Au       1         11.000326                             -0.000326
      83     Au       1         11.000326                             -0.000326
      84     Au       1         11.000326                             -0.000326
      85     Au       1         11.000326                             -0.000326
      86     Au       1         11.000327                             -0.000327
      87     Au       1         11.000326                             -0.000326
      88     Au       1         11.000326                             -0.000326
      89     Au       1         11.000007                             -0.000007
      90     Au       1         11.000007                             -0.000007
      91     Au       1         11.000007                             -0.000007
      92     Au       1         11.000008                             -0.000008
      93     Au       1         11.000008                             -0.000008
      94     Au       1         11.000008                             -0.000008
      95     Au       1         11.000007                             -0.000007
      96     Au       1         11.000008                             -0.000008
 # Total charge                           1055.940192                  0.059808

 !-----------------------------------------------------------------------------!

 !-----------------------------------------------------------------------------!
                           Hirshfeld Charges

  #Atom  Element  Kind  Ref Charge     Population                    Net charge
      1       Au     1      11.000         11.000                         0.000
      2       Au     1      11.000         11.000                         0.000
      3       Au     1      11.000         11.000                         0.000
      4       Au     1      11.000         11.000                         0.000
      5       Au     1      11.000         11.000                         0.000
      6       Au     1      11.000         11.000                        -0.000
      7       Au     1      11.000         11.000                         0.000
      8       Au     1      11.000         11.000                         0.000
      9       Au     1      11.000         11.000                         0.000
     10       Au     1      11.000         11.000                         0.000
     11       Au     1      11.000         11.000                         0.000
     12       Au     1      11.000         11.000                         0.000
     13       Au     1      11.000         11.000                         0.000
     14       Au     1      11.000         11.000                         0.000
     15       Au     1      11.000         11.000                         0.000
     16       Au     1      11.000         11.000                         0.000
     17       Au     1      11.000         10.996                         0.004
     18       Au     1      11.000         10.996                         0.004
     19       Au     1      11.000         10.996                         0.004
     20       Au     1      11.000         10.996                         0.004
     21       Au     1      11.000         10.996                         0.004
     22       Au     1      11.000         10.996                         0.004
     23       Au     1      11.000         10.996                         0.004
     24       Au     1      11.000         10.996                         0.004
     25       Au     1      11.000         11.008                        -0.008
     26       Au     1      11.000         11.008                        -0.008
     27       Au     1      11.000         11.008                        -0.008
     28       Au     1      11.000         11.008                        -0.008
     29       Au     1      11.000         11.008                        -0.008
     30       Au     1      11.000         11.008                        -0.008
     31       Au     1      11.000         11.008                        -0.008
     32       Au     1      11.000         11.008                        -0.008
     33       Au     1      11.000         10.982                         0.018
     34       Au     1      11.000         10.982                         0.018
     35       Au     1      11.000         10.982                         0.018
     36       Au     1      11.000         10.982                         0.018
     37       Au     1      11.000         10.982                         0.018
     38       Au     1      11.000         10.982                         0.018
     39       Au     1      11.000         10.982                         0.018
     40       Au     1      11.000         10.982                         0.018
     41       Au     1      11.000         11.032                        -0.032
     42       Au     1      11.000         11.032                        -0.032
     43       Au     1      11.000         11.032                        -0.032
     44       Au     1      11.000         11.032                        -0.032
     45       Au     1      11.000         11.032                        -0.032
     46       Au     1      11.000         11.032                        -0.032
     47       Au     1      11.000         11.032                        -0.032
     48       Au     1      11.000         11.032                        -0.032
     49       Au     1      11.000         10.990                         0.010
     50       Au     1      11.000         10.990                         0.010
     51       Au     1      11.000         10.990                         0.010
     52       Au     1      11.000         10.990                         0.010
     53       Au     1      11.000         10.990                         0.010
     54       Au     1      11.000         10.990                         0.010
     55       Au     1      11.000         10.990                         0.010
     56       Au     1      11.000         10.990                         0.010
     57       Au     1      11.000         10.979                         0.021
     58       Au     1      11.000         10.979                         0.021
     59       Au     1      11.000         10.979                         0.021
     60       Au     1      11.000         10.979                         0.021
     61       Au     1      11.000         10.979                         0.021
     62       Au     1      11.000         10.979                         0.021
     63       Au     1      11.000         10.979                         0.021
     64       Au     1      11.000         10.979                         0.021
     65       Au     1      11.000         11.009                        -0.009
     66       Au     1      11.000         11.009                        -0.009
     67       Au     1      11.000         11.009                        -0.009
     68       Au     1      11.000         11.009                        -0.009
     69       Au     1      11.000         11.009                        -0.009
     70       Au     1      11.000         11.009                        -0.009
     71       Au     1      11.000         11.009                        -0.009
     72       Au     1      11.000         11.009                        -0.009
     73       Au     1      11.000         10.996                         0.004
     74       Au     1      11.000         10.996                         0.004
     75       Au     1      11.000         10.996                         0.004
     76       Au     1      11.000         10.996                         0.004
     77       Au     1      11.000         10.996                         0.004
     78       Au     1      11.000         10.996                         0.004
     79       Au     1      11.000         10.996                         0.004
     80       Au     1      11.000         10.996                         0.004
     81       Au     1      11.000         11.000                         0.000
     82       Au     1      11.000         11.000                         0.000
     83       Au     1      11.000         11.000                         0.000
     84       Au     1      11.000         11.000                         0.000
     85       Au     1      11.000         11.000                         0.000
     86       Au     1      11.000         11.000                         0.000
     87       Au     1      11.000         11.000                         0.000
     88       Au     1      11.000         11.000                         0.000
     89       Au     1      11.000         11.000                         0.000
     90       Au     1      11.000         11.000                         0.000
     91       Au     1      11.000         11.000                         0.000
     92       Au     1      11.000         11.000                        -0.000
     93       Au     1      11.000         11.000                        -0.000
     94       Au     1      11.000         11.000                        -0.000
     95       Au     1      11.000         11.000                         0.000
     96       Au     1      11.000         11.000                        -0.000

  Total Charge                                                            0.060
 !-----------------------------------------------------------------------------!
 Calculating transmission coefficient

 ENERGY| Total FORCE_EVAL ( QS ) energy [a.u.]:            -3195.138769641025192

 -------------------------------------------------------------------------------
 -                                                                             -
 -                                DBCSR STATISTICS                             -
 -                                                                             -
 -------------------------------------------------------------------------------
 COUNTER                                    TOTAL       BLAS       SMM       ACC
 flops inhomo. stacks                           0       0.0%      0.0%      0.0%
 flops total                         0.000000E+00       0.0%      0.0%      0.0%
 flops max/rank                      0.000000E+00       0.0%      0.0%      0.0%
 matmuls inhomo. stacks                         0       0.0%      0.0%      0.0%
 matmuls total                                  0       0.0%      0.0%      0.0%
 number of processed stacks                     0       0.0%      0.0%      0.0%
 average stack size                                     0.0       0.0       0.0
 marketing flops                     0.000000E+00
 -------------------------------------------------------------------------------
 -                                                                             -
 -                      DBCSR MESSAGE PASSING PERFORMANCE                      -
 -                                                                             -
 -------------------------------------------------------------------------------
 ROUTINE             CALLS      AVE VOLUME [Bytes]
 MP_Bcast                1                     12.
 MP_Allreduce         3914                      8.
 MP_Alltoall          1188                  61412.
 -------------------------------------------------------------------------------

 -------------------------------------------------------------------------------
 -                                                                             -
 -                                DBM STATISTICS                               -
 -                                                                             -
 -------------------------------------------------------------------------------
    M  x    N  x    K                                          COUNT     PERCENT
 -------------------------------------------------------------------------------

 -------------------------------------------------------------------------------
 -                                                                             -
 -                                GRID STATISTICS                              -
 -                                                                             -
 -------------------------------------------------------------------------------
 LP    KERNEL             BACKEND                              COUNT     PERCENT
 4     collocate ortho    REF                                5183040      49.42%
 4     integrate ortho    REF                                5096656      48.59%
 0     collocate general  REF                                 110592       1.05%
 0     integrate general  REF                                  98304       0.94%
 -------------------------------------------------------------------------------

 MEMORY| Estimated peak process memory [MiB]                                 522

 -------------------------------------------------------------------------------
 ----                             MULTIGRID INFO                            ----
 -------------------------------------------------------------------------------
 count for grid        1:          24608          cutoff [a.u.]          200.00
 count for grid        2:          85904          cutoff [a.u.]           66.67
 count for grid        3:          45584          cutoff [a.u.]           22.22
 count for grid        4:          53168          cutoff [a.u.]            7.41
 total gridlevel count  :         209264

 -------------------------------------------------------------------------------
 -                                                                             -
 -                         MESSAGE PASSING PERFORMANCE                         -
 -                                                                             -
 -------------------------------------------------------------------------------

 ROUTINE             CALLS      AVE VOLUME [Bytes]
 MP_Group                5
 MP_Bcast             7788                  32908.
 MP_Allreduce         3130                    618.
 MP_Sync               718
 MP_Alltoall          1087               74178162.
 MP_ISendRecv        30226                  10320.
 MP_Wait             42687
 MP_ISend            19556                  44632.
 MP_IRecv            19571                  44841.
 MP_Recv              2574                 221184.
 MP_Write_All            2                 503230.
 -------------------------------------------------------------------------------


 -------------------------------------------------------------------------------
 -                                                                             -
 -                           R E F E R E N C E S                               -
 -                                                                             -
 -------------------------------------------------------------------------------
 
 CP2K version 2022.1 (Development Version), the CP2K developers group (2022).
 CP2K is freely available from https://www.cp2k.org/ .

 Kuehne,Thomas D.; Iannuzzi,Marcella; Del Ben,Mauro;
 Rybkin,Vladimir V.; Seewald,Patrick; Stein,Frederick; Laino,Teodoro;
 Khaliullin,Rustam Z.; Schuett,Ole; Schiffmann,Florian; Golze,Dorothea;
 Wilhelm,Jan; Chulkov,Sergey; Bani-Hashemian,Mohammad Hossein;
 Weber,Valery; Borstnik,Urban; Taillefumier,Mathieu;
 Jakobovits,Alice Shoshana; Lazzaro,Alfio; Pabst,Hans; Mueller,Tiziano;
 Schade,Robert; Guidon,Manuel; Andermatt,Samuel; Holmberg,Nico;
 Schenter,Gregory K.; Hehn,Anna; Bussy,Augustin; Belleflamme,Fabian;
 Tabacchi,Gloria; Gloess,Andreas; Lass,Michael; Bethune,Iain;
 Mundy,Christopher J.; Plessl,Christian; Watkins,Matt;
 VandeVondele,Joost; Krack,Matthias; Hutter,Juerg. 
 The Journal of Chemical Physics, 152 (19), (2020). 
 CP2K: An electronic structure and molecular dynamics software package -
 Quickstep: Efficient and accurate electronic structure calculations.
 https://doi.org/10.1063/5.0007045

 Schuett, Ole; Messmer, Peter; Hutter, Juerg; VandeVondele, Joost. 
 Electronic Structure Calculations on Graphics Processing Units, John
 Wiley & Sons, Ltd, 173-190 (2016). 
 GPU-Accelerated Sparse Matrix-Matrix Multiplication for
 Linear Scaling Density Functional Theory.
 https://doi.org/10.1002/9781118670712.ch8

 Borstnik, U; VandeVondele, J; Weber, V; Hutter, J. 
 PARALLEL COMPUTING, 40 (5-6), 47-58 (2014). 
 Sparse matrix multiplication: The distributed block-compressed sparse
 row library.
 https://doi.org/10.1016/j.parco.2014.03.012

 Hutter, J; Iannuzzi, M; Schiffmann, F; VandeVondele, J. 
 WIREs Comput Mol Sci., 4 (1), 15-25 (2014). 
 CP2K: atomistic simulations of condensed matter systems.
 https://doi.org/10.1002/wcms.1159

 Marek, A; Blum, V; Johanni, R; Havu, V; Lang, B; Auckenthaler, T;
 Heinecke, A; Bungartz, H; Lederer, H. 
 Journal of Physics: Condensed Matter, 26 (21), (2014). 
 The ELPA library: scalable parallel eigenvalue solutions for
 electronic structure
 theory and computational science.
 https://doi.org/10.1088/0953-8984/26/21/213201

 VandeVondele, J; Hutter, J. 
 JOURNAL OF CHEMICAL PHYSICS, 127 (11), 114105 (2007). 
 Gaussian basis sets for accurate calculations on molecular systems in
 gas and condensed phases.
 https://doi.org/10.1063/1.2770708

 Krack, M. 
 THEORETICAL CHEMISTRY ACCOUNTS, 114 (1-3), 145-152 (2005). 
 Pseudopotentials for H to Kr optimized for gradient-corrected
 exchange-correlation functionals.
 https://doi.org/10.1007/s00214-005-0655-y

 VandeVondele, J; Krack, M; Mohamed, F; Parrinello, M; Chassaing, T;
 Hutter, J. COMPUTER PHYSICS COMMUNICATIONS, 167 (2), 103-128 (2005). 
 QUICKSTEP: Fast and accurate density functional calculations using a
 mixed Gaussian and plane waves approach.
 https://doi.org/10.1016/j.cpc.2004.12.014

 Frigo, M; Johnson, SG. 
 PROCEEDINGS OF THE IEEE, 93 (2), 216-231 (2005). 
 The design and implementation of FFTW3.
 https://doi.org/10.1109/JPROC.2004.840301

 Hartwigsen, C; Goedecker, S; Hutter, J. 
 PHYSICAL REVIEW B, 58 (7), 3641-3662 (1998). 
 Relativistic separable dual-space Gaussian pseudopotentials from H to Rn.
 https://doi.org/10.1103/PhysRevB.58.3641

 Lippert, G; Hutter, J; Parrinello, M. 
 MOLECULAR PHYSICS, 92 (3), 477-487 (1997). 
 A hybrid Gaussian and plane wave density functional scheme.
 https://doi.org/10.1080/002689797170220

 Goedecker, S; Teter, M; Hutter, J. 
 PHYSICAL REVIEW B, 54 (3), 1703-1710 (1996). 
 Separable dual-space Gaussian pseudopotentials.
 https://doi.org/10.1103/PhysRevB.54.1703


 -------------------------------------------------------------------------------
 -                                                                             -
 -                                T I M I N G                                  -
 -                                                                             -
 -------------------------------------------------------------------------------
 SUBROUTINE                       CALLS  ASD         SELF TIME        TOTAL TIME
                                MAXIMUM       AVERAGE  MAXIMUM  AVERAGE  MAXIMUM
 CP2K                                 1  1.0    0.023    0.044  742.121  742.124
 qs_energies                          1  2.0    0.003    0.005  741.927  741.930
 run_smeagol_emtrans                 60  6.0  726.718  727.685  729.995  730.038
 scf_env_do_scf                       1  3.0    0.000    0.001  664.562  664.570
 scf_env_do_scf_inner_loop           59  4.0    0.007    0.014  664.562  664.570
 qs_scf_new_mos_kp                   59  5.0    0.001    0.001  655.894  655.937
 -------------------------------------------------------------------------------

 The number of warnings for this run is : 2
 
 -------------------------------------------------------------------------------
  **** **** ******  **  PROGRAM ENDED AT                 2023-11-04 07:52:57.322
 ***** ** ***  *** **   PROGRAM RAN ON                                 nid005524
 **    ****   ******    PROGRAM RAN BY                                    cahart
 ***** **    ** ** **   PROGRAM PROCESS ID                                131566
  **** **  *******  **  PROGRAM STOPPED IN /mnt/lustre/a2fs-work2/work/e05/e05/c
                                           ahart/postdoc/transport/cp2k-smeagol-
                                           examples/au-capacitor/cp2k-smeagol/kp
                                           oints-2-2-20_V-4_double-contour
