 DBCSR| CPU Multiplication driver                                           XSMM
 DBCSR| Multrec recursion limit                                              512
 DBCSR| Multiplication stack size                                           1000
 DBCSR| Maximum elements for images                                    UNLIMITED
 DBCSR| Multiplicative factor virtual images                                   1
 DBCSR| Use multiplication densification                                       T
 DBCSR| Multiplication size stacks                                             3
 DBCSR| Use memory pool for CPU allocation                                     F
 DBCSR| Number of 3D layers                                               SINGLE
 DBCSR| Use MPI memory allocation                                              F
 DBCSR| Use RMA algorithm                                                      F
 DBCSR| Use Communication thread                                               T
 DBCSR| Communication thread load                                             87
 DBCSR| MPI: My node id                                                        0
 DBCSR| MPI: Number of nodes                                                 240
 DBCSR| OMP: Current number of threads                                         1
 DBCSR| OMP: Max number of threads                                             1
 DBCSR| Split modifier for TAS multiplication algorithm                  1.0E+00


  **** **** ******  **  PROGRAM STARTED AT               2023-02-17 15:08:08.303
 ***** ** ***  *** **   PROGRAM STARTED ON                 cn1140.scarf.rl.ac.uk
 **    ****   ******    PROGRAM STARTED BY                             scarf1157
 ***** **    ** ** **   PROGRAM PROCESS ID                                 42233
  **** **  *******  **  PROGRAM STARTED IN /work4/scd/scarf1157/work/testing/cp2
                                           k-smeagol/bdt/cp2k/hollow-site/transp
                                           ort-cp2k/5-4/geometry-ordered/3x3-4/s
                                           z/kpoints_bulk-31_em-1-1-1_sz-all

 CP2K| version string:                 CP2K version 2022.1 (Development Version)
 CP2K| source code revision number:                                  git:1ef701d
 CP2K| cp2kflags: omp fftw3 libxc parallel mpi3 scalapack xsmm spglib           
 CP2K| is freely available from                            https://www.cp2k.org/
 CP2K| Program compiled at                          Thu 26 Jan 13:39:53 GMT 2023
 CP2K| Program compiled on                                 cn1108.scarf.rl.ac.uk
 CP2K| Program compiled for                                                local
 CP2K| Data directory path    /home/vol07/scarf1157/code/smeagol/cp2k-smeagol/sc
 CP2K| Input file name                                                  3_0V.inp

 GLOBAL| Force Environment number                                              1
 GLOBAL| Basis set file name                                        BASIS_MOLOPT
 GLOBAL| Potential file name                                      GTH_POTENTIALS
 GLOBAL| MM Potential file name                                     MM_POTENTIAL
 GLOBAL| Coordinate file name                                             em.xyz
 GLOBAL| Method name                                                        CP2K
 GLOBAL| Project name                                                         0V
 GLOBAL| Run type                                                         ENERGY
 GLOBAL| FFT library                                                       FFTW3
 GLOBAL| Diagonalization library                                       ScaLAPACK
 GLOBAL| Orthonormality check for eigenvectors                          DISABLED
 GLOBAL| Matrix multiplication library                                 ScaLAPACK
 GLOBAL| All-to-all communication in single precision                          F
 GLOBAL| FFTs using library dependent lengths                                  T
 GLOBAL| Grid backend                                                       AUTO
 GLOBAL| Global print level                                               MEDIUM
 GLOBAL| MPI I/O enabled                                                       T
 GLOBAL| Total number of message passing processes                           240
 GLOBAL| Number of threads for this process                                    1
 GLOBAL| This output is from process                                           0
 GLOBAL| Stack size for threads created by OpenMP (OMP_STACKSIZE)        default
 GLOBAL| CPU model name                         AMD EPYC 7502P 32-Core Processor
 GLOBAL| CPUID                                                              1002

 MEMORY| system memory details [Kb]
 MEMORY|                        rank 0           min           max       average
 MEMORY| MemTotal            263897004     263896980     263897004     263896984
 MEMORY| MemFree             168910648      88554280     240698012     192535937
 MEMORY| Buffers                  2568          2560          3452          2677
 MEMORY| Cached               75803572       7974040     159200916      55278753
 MEMORY| Slab                  1361924       1024120       1857520       1271777
 MEMORY| SReclaimable           787500        522048       1345668        739768
 MEMORY| MemLikelyFree       245504288     245504288     249197552     248557136


 *** Fundamental physical constants (SI units) ***

 *** Literature: B. J. Mohr and B. N. Taylor,
 ***             CODATA recommended values of the fundamental physical
 ***             constants: 2006, Web Version 5.1
 ***             http://physics.nist.gov/constants

 Speed of light in vacuum [m/s]                             2.99792458000000E+08
 Magnetic constant or permeability of vacuum [N/A**2]       1.25663706143592E-06
 Electric constant or permittivity of vacuum [F/m]          8.85418781762039E-12
 Planck constant (h) [J*s]                                  6.62606896000000E-34
 Planck constant (h-bar) [J*s]                              1.05457162825177E-34
 Elementary charge [C]                                      1.60217648700000E-19
 Electron mass [kg]                                         9.10938215000000E-31
 Electron g factor [ ]                                     -2.00231930436220E+00
 Proton mass [kg]                                           1.67262163700000E-27
 Fine-structure constant                                    7.29735253760000E-03
 Rydberg constant [1/m]                                     1.09737315685270E+07
 Avogadro constant [1/mol]                                  6.02214179000000E+23
 Boltzmann constant [J/K]                                   1.38065040000000E-23
 Atomic mass unit [kg]                                      1.66053878200000E-27
 Bohr radius [m]                                            5.29177208590000E-11

 *** Conversion factors ***

 [u] -> [a.u.]                                              1.82288848426455E+03
 [Angstrom] -> [Bohr] = [a.u.]                              1.88972613288564E+00
 [a.u.] = [Bohr] -> [Angstrom]                              5.29177208590000E-01
 [a.u.] -> [s]                                              2.41888432650478E-17
 [a.u.] -> [fs]                                             2.41888432650478E-02
 [a.u.] -> [J]                                              4.35974393937059E-18
 [a.u.] -> [N]                                              8.23872205491840E-08
 [a.u.] -> [K]                                              3.15774647902944E+05
 [a.u.] -> [kJ/mol]                                         2.62549961709828E+03
 [a.u.] -> [kcal/mol]                                       6.27509468713739E+02
 [a.u.] -> [Pa]                                             2.94210107994716E+13
 [a.u.] -> [bar]                                            2.94210107994716E+08
 [a.u.] -> [atm]                                            2.90362800883016E+08
 [a.u.] -> [eV]                                             2.72113838565563E+01
 [a.u.] -> [Hz]                                             6.57968392072181E+15
 [a.u.] -> [1/cm] (wave numbers)                            2.19474631370540E+05
 [a.u./Bohr**2] -> [1/cm]                                   5.14048714338585E+03
 

 CELL_TOP| Volume [angstrom^3]:                                      4009.343578
 CELL_TOP| Vector a [angstrom    12.514     0.000     0.000   |a| =    12.513863
 CELL_TOP| Vector b [angstrom     0.000    12.514     0.000   |b| =    12.513863
 CELL_TOP| Vector c [angstrom     0.000     0.000    25.603   |c| =    25.602980
 CELL_TOP| Angle (b,c), alpha [degree]:                                90.000000
 CELL_TOP| Angle (a,c), beta  [degree]:                                90.000000
 CELL_TOP| Angle (a,b), gamma [degree]:                                90.000000
 CELL_TOP| Numerically orthorhombic:                                         YES
 CELL_TOP| Periodicity                                                       XYZ

 GENERATE|  Preliminary Number of Bonds generated:                             0
 GENERATE|  Achieved consistency in connectivity generation.

 CELL| Volume [angstrom^3]:                                          4009.343578
 CELL| Vector a [angstrom]:      12.514     0.000     0.000   |a| =    12.513863
 CELL| Vector b [angstrom]:       0.000    12.514     0.000   |b| =    12.513863
 CELL| Vector c [angstrom]:       0.000     0.000    25.603   |c| =    25.602980
 CELL| Angle (b,c), alpha [degree]:                                    90.000000
 CELL| Angle (a,c), beta  [degree]:                                    90.000000
 CELL| Angle (a,b), gamma [degree]:                                    90.000000
 CELL| Numerically orthorhombic:                                             YES
 CELL| Periodicity                                                           XYZ

 CELL_REF| Volume [angstrom^3]:                                      4009.343578
 CELL_REF| Vector a [angstrom    12.514     0.000     0.000   |a| =    12.513863
 CELL_REF| Vector b [angstrom     0.000    12.514     0.000   |b| =    12.513863
 CELL_REF| Vector c [angstrom     0.000     0.000    25.603   |c| =    25.602980
 CELL_REF| Angle (b,c), alpha [degree]:                                90.000000
 CELL_REF| Angle (a,c), beta  [degree]:                                90.000000
 CELL_REF| Angle (a,b), gamma [degree]:                                90.000000
 CELL_REF| Numerically orthorhombic:                                         YES
 CELL_REF| Periodicity                                                       XYZ

 *******************************************************************************
                                    Kpoints
 *******************************************************************************
 BRILLOUIN| K-point scheme                                        Monkhorst-Pack
 BRILLOUIN| K-Point grid                                             1    1    1
 BRILLOUIN| Accuracy in Symmetry determination                      0.100000E-07
 BRILLOUIN| K-Point point group symmetrization                               OFF
 BRILLOUIN| Wavefunction type                                            COMPLEX
 BRILLOUIN| Use full k-point grid     
 BRILLOUIN| List of Kpoints [2 Pi/Bohr]                                        1
 BRILLOUIN| Number           Weight            X              Y              Z
 BRILLOUIN|     1           1.00000        0.00000        0.00000        0.00000
 *******************************************************************************

 *******************************************************************************
 *******************************************************************************
 **                                                                           **
 **     #####                         ##              ##                      **
 **    ##   ##            ##          ##              ##                      **
 **   ##     ##                       ##            ######                    **
 **   ##     ##  ##   ##  ##   #####  ##  ##   ####   ##    #####    #####    **
 **   ##     ##  ##   ##  ##  ##      ## ##   ##      ##   ##   ##  ##   ##   **
 **   ##  ## ##  ##   ##  ##  ##      ####     ###    ##   ######   ######    **
 **    ##  ###   ##   ##  ##  ##      ## ##      ##   ##   ##       ##        **
 **     #######   #####   ##   #####  ##  ##  ####    ##    #####   ##        **
 **           ##                                                    ##        **
 **                                                                           **
 **                                                ... make the atoms dance   **
 **                                                                           **
 **            Copyright (C) by CP2K developers group (2000-2022)             **
 **                      J. Chem. Phys. 152, 194103 (2020)                    **
 **                                                                           **
 *******************************************************************************

 DFT| Spin restricted Kohn-Sham (RKS) calculation                            RKS
 DFT| Multiplicity                                                             1
 DFT| Number of spin states                                                    1
 DFT| Charge                                                                   0
 DFT| Self-interaction correction (SIC)                                       NO
 DFT| Cutoffs: density                                              1.000000E-10
 DFT|          gradient                                             1.000000E-10
 DFT|          tau                                                  1.000000E-10
 DFT|          cutoff_smoothing_range                               0.000000E+00
 DFT| XC density smoothing                                                  NONE
 DFT| XC derivatives                                                          PW

 FUNCTIONAL| PADE:
 FUNCTIONAL| S. Goedecker, M. Teter and J. Hutter, Phys. Rev. B 54, 1703 (1996) 


 QS| Method:                                                                 GPW
 QS| Density plane wave grid type                        NON-SPHERICAL FULLSPACE
 QS| Number of grid levels:                                                    4
 QS| Density cutoff [a.u.]:                                                200.0
 QS| Multi grid cutoff [a.u.]: 1) grid level                               200.0
 QS|                           2) grid level                                66.7
 QS|                           3) grid level                                22.2
 QS|                           4) grid level                                 7.4
 QS| Grid level progression factor:                                          3.0
 QS| Relative density cutoff [a.u.]:                                        20.0
 QS| Interaction thresholds: eps_pgf_orb:                                1.0E-05
 QS|                         eps_filter_matrix:                          0.0E+00
 QS|                         eps_core_charge:                            1.0E-12
 QS|                         eps_rho_gspace:                             1.0E-10
 QS|                         eps_rho_rspace:                             1.0E-10
 QS|                         eps_gvg_rspace:                             1.0E-05
 QS|                         eps_ppl:                                    1.0E-02
 QS|                         eps_ppnl:                                   1.0E-07


 ATOMIC KIND INFORMATION

  1. Atomic kind: Au                                    Number of atoms:     162

     Orbital Basis Set                                         SZV-MOLOPT-SR-GTH

       Number of orbital shell sets:                                           1
       Number of orbital shells:                                               3
       Number of primitive Cartesian functions:                                5
       Number of Cartesian basis functions:                                   10
       Number of spherical basis functions:                                    9
       Norm type:                                                              2

       Normalised Cartesian orbitals:

                        Set   Shell   Orbital            Exponent    Coefficient

                          1       1    2s                2.950008       0.074626
                                                         1.563057      -0.007898
                                                         0.666664      -0.297688
                                                         0.251083       0.136809
                                                         0.081714       0.088198

                          1       2    3px               2.950008       0.148824
                                                         1.563057       0.025430
                                                         0.666664      -0.123003
                                                         0.251083       0.033648
                                                         0.081714       0.059008
                          1       2    3py               2.950008       0.148824
                                                         1.563057       0.025430
                                                         0.666664      -0.123003
                                                         0.251083       0.033648
                                                         0.081714       0.059008
                          1       2    3pz               2.950008       0.148824
                                                         1.563057       0.025430
                                                         0.666664      -0.123003
                                                         0.251083       0.033648
                                                         0.081714       0.059008

                          1       3    4dx2              2.950008      -0.139595
                                                         1.563057       1.319655
                                                         0.666664       0.377081
                                                         0.251083       0.046872
                                                         0.081714       0.001393
                          1       3    4dxy              2.950008      -0.241786
                                                         1.563057       2.285709
                                                         0.666664       0.653124
                                                         0.251083       0.081185
                                                         0.081714       0.002412
                          1       3    4dxz              2.950008      -0.241786
                                                         1.563057       2.285709
                                                         0.666664       0.653124
                                                         0.251083       0.081185
                                                         0.081714       0.002412
                          1       3    4dy2              2.950008      -0.139595
                                                         1.563057       1.319655
                                                         0.666664       0.377081
                                                         0.251083       0.046872
                                                         0.081714       0.001393
                          1       3    4dyz              2.950008      -0.241786
                                                         1.563057       2.285709
                                                         0.666664       0.653124
                                                         0.251083       0.081185
                                                         0.081714       0.002412
                          1       3    4dz2              2.950008      -0.139595
                                                         1.563057       1.319655
                                                         0.666664       0.377081
                                                         0.251083       0.046872
                                                         0.081714       0.001393

       Atomic covalent radius [Angstrom]:                                  1.340

       Atomic van der Waals radius [Angstrom]:                             1.660

     GTH Potential information for                                  GTH-PADE-q11

       Description:                       Goedecker-Teter-Hutter pseudopotential
                                           Goedecker et al., PRB 54, 1703 (1996)
                                          Hartwigsen et al., PRB 58, 3641 (1998)
                                                      Krack, TCA 114, 145 (2005)

       Gaussian exponent of the core charge distribution:               1.436369
       Electronic configuration (s p d ...):                           1   0  10

       Parameters of the local part of the GTH pseudopotential:

                          rloc        C1          C2          C3          C4
                        0.590000   11.604428

       Parameters of the non-local part of the GTH pseudopotential:

                   l      r(l)      h(i,j,l)

                   0    0.521180    2.538614   -1.046137
                                   -1.046137    2.701113
                   1    0.630613    0.394853   -0.869592
                                   -0.869592    2.057831
                   2    0.440706   -4.719070    0.727771
                                    0.727771   -1.650429

  2. Atomic kind: S                                     Number of atoms:       2

     Orbital Basis Set                                         SZV-MOLOPT-SR-GTH

       Number of orbital shell sets:                                           1
       Number of orbital shells:                                               2
       Number of primitive Cartesian functions:                                4
       Number of Cartesian basis functions:                                    4
       Number of spherical basis functions:                                    4
       Norm type:                                                              2

       Normalised Cartesian orbitals:

                        Set   Shell   Orbital            Exponent    Coefficient

                          1       1    2s                2.215855       0.308496
                                                         1.131471       0.138505
                                                         0.410168      -0.373736
                                                         0.140587      -0.040370

                          1       2    3px               2.215855       0.420434
                                                         1.131471      -0.319283
                                                         0.410168      -0.335323
                                                         0.140587      -0.030976
                          1       2    3py               2.215855       0.420434
                                                         1.131471      -0.319283
                                                         0.410168      -0.335323
                                                         0.140587      -0.030976
                          1       2    3pz               2.215855       0.420434
                                                         1.131471      -0.319283
                                                         0.410168      -0.335323
                                                         0.140587      -0.030976

       Atomic covalent radius [Angstrom]:                                  1.020

       Atomic van der Waals radius [Angstrom]:                             1.800

     GTH Potential information for                                   GTH-PADE-q6

       Description:                       Goedecker-Teter-Hutter pseudopotential
                                           Goedecker et al., PRB 54, 1703 (1996)
                                          Hartwigsen et al., PRB 58, 3641 (1998)
                                                      Krack, TCA 114, 145 (2005)

       Gaussian exponent of the core charge distribution:               2.834467
       Electronic configuration (s p d ...):                               2   4

       Parameters of the local part of the GTH pseudopotential:

                          rloc        C1          C2          C3          C4
                        0.420000   -6.554492

       Parameters of the non-local part of the GTH pseudopotential:

                   l      r(l)      h(i,j,l)

                   0    0.361757    7.905303   -1.731881
                                   -1.731881    4.471698
                   1    0.405285    3.866579

  3. Atomic kind: C                                     Number of atoms:       6

     Orbital Basis Set                                         SZV-MOLOPT-SR-GTH

       Number of orbital shell sets:                                           1
       Number of orbital shells:                                               2
       Number of primitive Cartesian functions:                                5
       Number of Cartesian basis functions:                                    4
       Number of spherical basis functions:                                    4
       Norm type:                                                              2

       Normalised Cartesian orbitals:

                        Set   Shell   Orbital            Exponent    Coefficient

                          1       1    2s                5.605331       0.322515
                                                         2.113016       0.213043
                                                         0.769911      -0.209686
                                                         0.348157      -0.219794
                                                         0.128212      -0.022789

                          1       2    3px               5.605331      -0.703879
                                                         2.113016      -0.642521
                                                         0.769911      -0.374851
                                                         0.348157      -0.139743
                                                         0.128212      -0.027849
                          1       2    3py               5.605331      -0.703879
                                                         2.113016      -0.642521
                                                         0.769911      -0.374851
                                                         0.348157      -0.139743
                                                         0.128212      -0.027849
                          1       2    3pz               5.605331      -0.703879
                                                         2.113016      -0.642521
                                                         0.769911      -0.374851
                                                         0.348157      -0.139743
                                                         0.128212      -0.027849

       Atomic covalent radius [Angstrom]:                                  0.770

       Atomic van der Waals radius [Angstrom]:                             1.700

     GTH Potential information for                                   GTH-PADE-q4

       Description:                       Goedecker-Teter-Hutter pseudopotential
                                           Goedecker et al., PRB 54, 1703 (1996)
                                          Hartwigsen et al., PRB 58, 3641 (1998)
                                                      Krack, TCA 114, 145 (2005)

       Gaussian exponent of the core charge distribution:               4.109048
       Electronic configuration (s p d ...):                               2   2

       Parameters of the local part of the GTH pseudopotential:

                          rloc        C1          C2          C3          C4
                        0.348830   -8.513771    1.228432

       Parameters of the non-local part of the GTH pseudopotential:

                   l      r(l)      h(i,j,l)

                   0    0.304553    9.522842
                   1    0.232677

  4. Atomic kind: H                                     Number of atoms:       4

     Orbital Basis Set                                         SZV-MOLOPT-SR-GTH

       Number of orbital shell sets:                                           1
       Number of orbital shells:                                               1
       Number of primitive Cartesian functions:                                5
       Number of Cartesian basis functions:                                    1
       Number of spherical basis functions:                                    1
       Norm type:                                                              2

       Normalised Cartesian orbitals:

                        Set   Shell   Orbital            Exponent    Coefficient

                          1       1    2s               10.068468      -0.133023
                                                         2.680223      -0.177618
                                                         0.791502      -0.258419
                                                         0.239116      -0.107525
                                                         0.082193      -0.014019

       Atomic covalent radius [Angstrom]:                                  0.320

       Atomic van der Waals radius [Angstrom]:                             1.090

     GTH Potential information for                                   GTH-PADE-q1

       Description:                       Goedecker-Teter-Hutter pseudopotential
                                           Goedecker et al., PRB 54, 1703 (1996)
                                          Hartwigsen et al., PRB 58, 3641 (1998)
                                                      Krack, TCA 114, 145 (2005)

       Gaussian exponent of the core charge distribution:              12.500000
       Electronic configuration (s p d ...):                                   1

       Parameters of the local part of the GTH pseudopotential:

                          rloc        C1          C2          C3          C4
                        0.200000   -4.180237    0.725075


 MOLECULE KIND INFORMATION


 All atoms are their own molecule, skipping detailed information


 TOTAL NUMBERS AND MAXIMUM NUMBERS

  Total number of            - Atomic kinds:                                   4
                             - Atoms:                                        174
                             - Shell sets:                                   174
                             - Shells:                                       506
                             - Primitive Cartesian functions:                868
                             - Cartesian basis functions:                   1656
                             - Spherical basis functions:                   1494

  Maximum angular momentum of- Orbital basis functions:                        2
                             - Local part of the GTH pseudopotential:          2
                             - Non-local part of the GTH pseudopotential:      4


 MODULE QUICKSTEP: ATOMIC COORDINATES IN ANGSTROM

   Atom Kind Element         X             Y             Z       Z(eff)     Mass
      1    1 Au   79      0.000000      0.000000      0.000000  11.0000 196.9666
      2    1 Au   79      8.342575      4.171288      0.000000  11.0000 196.9666
      3    1 Au   79      6.256932      6.256932      0.000000  11.0000 196.9666
      4    1 Au   79      4.171288      4.171288      0.000000  11.0000 196.9666
      5    1 Au   79      2.085644      6.256932      0.000000  11.0000 196.9666
      6    1 Au   79      2.085644     10.428219      0.000000  11.0000 196.9666
      7    1 Au   79      4.171288      8.342575      0.000000  11.0000 196.9666
      8    1 Au   79      0.000000      4.171288      0.000000  11.0000 196.9666
      9    1 Au   79      0.000000      8.342575      0.000000  11.0000 196.9666
     10    1 Au   79     10.428219      2.085644      0.000000  11.0000 196.9666
     11    1 Au   79      8.342575      0.000000      0.000000  11.0000 196.9666
     12    1 Au   79      6.256932      2.085644      0.000000  11.0000 196.9666
     13    1 Au   79      8.342575      8.342575      0.000000  11.0000 196.9666
     14    1 Au   79      4.171288      0.000000      0.000000  11.0000 196.9666
     15    1 Au   79      2.085644      2.085644      0.000000  11.0000 196.9666
     16    1 Au   79     10.428219     10.428219      0.000000  11.0000 196.9666
     17    1 Au   79      6.256932     10.428219      0.000000  11.0000 196.9666
     18    1 Au   79     10.428219      6.256932      0.000000  11.0000 196.9666
     19    1 Au   79      6.256932      8.342575      2.085644  11.0000 196.9666
     20    1 Au   79      8.342575     10.428219      2.085644  11.0000 196.9666
     21    1 Au   79      2.085644      8.342575      2.085644  11.0000 196.9666
     22    1 Au   79      0.000000     10.428219      2.085644  11.0000 196.9666
     23    1 Au   79     10.428219      8.342575      2.085644  11.0000 196.9666
     24    1 Au   79      4.171288     10.428219      2.085644  11.0000 196.9666
     25    1 Au   79      8.342575      6.256932      2.085644  11.0000 196.9666
     26    1 Au   79     10.428219      4.171288      2.085644  11.0000 196.9666
     27    1 Au   79      0.000000      2.085644      2.085644  11.0000 196.9666
     28    1 Au   79      4.171288      2.085644      2.085644  11.0000 196.9666
     29    1 Au   79      6.256932      0.000000      2.085644  11.0000 196.9666
     30    1 Au   79      8.342575      2.085644      2.085644  11.0000 196.9666
     31    1 Au   79      2.085644      0.000000      2.085644  11.0000 196.9666
     32    1 Au   79      0.000000      6.256932      2.085644  11.0000 196.9666
     33    1 Au   79      2.085644      4.171288      2.085644  11.0000 196.9666
     34    1 Au   79      4.171288      6.256932      2.085644  11.0000 196.9666
     35    1 Au   79      6.256932      4.171288      2.085644  11.0000 196.9666
     36    1 Au   79     10.428219      0.000000      2.085644  11.0000 196.9666
     37    1 Au   79      8.342575      4.171288      4.171288  11.0000 196.9666
     38    1 Au   79     10.428219      2.085644      4.171288  11.0000 196.9666
     39    1 Au   79      6.256932      6.256932      4.171288  11.0000 196.9666
     40    1 Au   79      2.085644     10.428219      4.171288  11.0000 196.9666
     41    1 Au   79      4.171288      4.171288      4.171288  11.0000 196.9666
     42    1 Au   79      2.085644      6.256932      4.171288  11.0000 196.9666
     43    1 Au   79      4.171288      8.342575      4.171288  11.0000 196.9666
     44    1 Au   79      0.000000      4.171288      4.171288  11.0000 196.9666
     45    1 Au   79      6.256932     10.428219      4.171288  11.0000 196.9666
     46    1 Au   79     10.428219      6.256932      4.171288  11.0000 196.9666
     47    1 Au   79      6.256932      2.085644      4.171288  11.0000 196.9666
     48    1 Au   79      8.342575      8.342575      4.171288  11.0000 196.9666
     49    1 Au   79      4.171288      0.000000      4.171288  11.0000 196.9666
     50    1 Au   79      2.085644      2.085644      4.171288  11.0000 196.9666
     51    1 Au   79     10.428219     10.428219      4.171288  11.0000 196.9666
     52    1 Au   79      0.000000      0.000000      4.171288  11.0000 196.9666
     53    1 Au   79      0.000000      8.342575      4.171288  11.0000 196.9666
     54    1 Au   79      8.342575      0.000000      4.171288  11.0000 196.9666
     55    1 Au   79      6.256932      8.342575      6.256932  11.0000 196.9666
     56    1 Au   79      4.171288     10.428219      6.256932  11.0000 196.9666
     57    1 Au   79     10.428219      8.342575      6.256932  11.0000 196.9666
     58    1 Au   79      2.085644      8.342575      6.256932  11.0000 196.9666
     59    1 Au   79      0.000000     10.428219      6.256932  11.0000 196.9666
     60    1 Au   79      8.342575     10.428219      6.256932  11.0000 196.9666
     61    1 Au   79      4.171288      6.256932      6.256932  11.0000 196.9666
     62    1 Au   79      8.342575      6.256932      6.256932  11.0000 196.9666
     63    1 Au   79     10.428219      4.171288      6.256932  11.0000 196.9666
     64    1 Au   79      2.085644      0.000000      6.256932  11.0000 196.9666
     65    1 Au   79      4.171288      2.085644      6.256932  11.0000 196.9666
     66    1 Au   79      6.256932      0.000000      6.256932  11.0000 196.9666
     67    1 Au   79      8.342575      2.085644      6.256932  11.0000 196.9666
     68    1 Au   79      0.000000      2.085644      6.256932  11.0000 196.9666
     69    1 Au   79      0.000000      6.256932      6.256932  11.0000 196.9666
     70    1 Au   79      2.085644      4.171288      6.256932  11.0000 196.9666
     71    1 Au   79      6.256932      4.171288      6.256932  11.0000 196.9666
     72    1 Au   79     10.428219      0.000000      6.256932  11.0000 196.9666
     73    1 Au   79      8.342575      8.342575      8.342575  11.0000 196.9666
     74    1 Au   79      6.256932     10.428219      8.342575  11.0000 196.9666
     75    1 Au   79      4.171288      8.342575      8.342575  11.0000 196.9666
     76    1 Au   79      2.085644     10.428219      8.342575  11.0000 196.9666
     77    1 Au   79      0.000000      8.342575      8.342575  11.0000 196.9666
     78    1 Au   79     10.428219      6.256932      8.342575  11.0000 196.9666
     79    1 Au   79      8.342575      4.171288      8.342575  11.0000 196.9666
     80    1 Au   79      6.256932      6.256932      8.342575  11.0000 196.9666
     81    1 Au   79      4.171288      4.171288      8.342575  11.0000 196.9666
     82    1 Au   79      2.085644      6.256932      8.342575  11.0000 196.9666
     83    1 Au   79     10.428219      2.085644      8.342575  11.0000 196.9666
     84    1 Au   79      0.000000      4.171288      8.342575  11.0000 196.9666
     85    1 Au   79      4.171288      0.000000      8.342575  11.0000 196.9666
     86    1 Au   79      0.000000      0.000000      8.342575  11.0000 196.9666
     87    1 Au   79      2.085644      2.085644      8.342575  11.0000 196.9666
     88    1 Au   79      6.256932      2.085644      8.342575  11.0000 196.9666
     89    1 Au   79     10.428219     10.428219      8.342575  11.0000 196.9666
     90    1 Au   79      8.342575      0.000000      8.342575  11.0000 196.9666
     91    2 S    16      4.171290      2.085640      9.628096   6.0000  32.0650
     92    2 S    16      4.171290      2.085640     15.974876   6.0000  32.0650
     93    3 C     6      4.157310      2.079570     14.213376   4.0000  12.0107
     94    3 C     6      2.958740      2.073610     13.512906   4.0000  12.0107
     95    3 C     6      5.366590      2.073610     13.512906   4.0000  12.0107
     96    3 C     6      4.174690      2.089490     11.389596   4.0000  12.0107
     97    3 C     6      5.373260      2.095460     12.090056   4.0000  12.0107
     98    3 C     6      2.965410      2.095460     12.090056   4.0000  12.0107
     99    4 H     1      2.062560      2.053310     14.024266   1.0000   1.0079
    100    4 H     1      6.259350      2.053250     14.030186   1.0000   1.0079
    101    4 H     1      6.269440      2.115750     11.578706   1.0000   1.0079
    102    4 H     1      2.072650      2.115820     11.572786   1.0000   1.0079
    103    1 Au   79      0.000000      0.000000     17.260397  11.0000 196.9666
    104    1 Au   79      8.342575      8.342575     17.260397  11.0000 196.9666
    105    1 Au   79      6.256932     10.428219     17.260397  11.0000 196.9666
    106    1 Au   79      4.171288      8.342575     17.260397  11.0000 196.9666
    107    1 Au   79      2.085644     10.428219     17.260397  11.0000 196.9666
    108    1 Au   79      0.000000      8.342575     17.260397  11.0000 196.9666
    109    1 Au   79     10.428219      6.256932     17.260397  11.0000 196.9666
    110    1 Au   79      8.342575      4.171288     17.260397  11.0000 196.9666
    111    1 Au   79      6.256932      6.256932     17.260397  11.0000 196.9666
    112    1 Au   79      4.171288      4.171288     17.260397  11.0000 196.9666
    113    1 Au   79      2.085644      6.256932     17.260397  11.0000 196.9666
    114    1 Au   79      0.000000      4.171288     17.260397  11.0000 196.9666
    115    1 Au   79     10.428219     10.428219     17.260397  11.0000 196.9666
    116    1 Au   79     10.428219      2.085644     17.260397  11.0000 196.9666
    117    1 Au   79      8.342575      0.000000     17.260397  11.0000 196.9666
    118    1 Au   79      6.256932      2.085644     17.260397  11.0000 196.9666
    119    1 Au   79      2.085644      2.085644     17.260397  11.0000 196.9666
    120    1 Au   79      4.171288      0.000000     17.260397  11.0000 196.9666
    121    1 Au   79      0.000000      6.256932     19.346041  11.0000 196.9666
    122    1 Au   79     10.428219      8.342575     19.346041  11.0000 196.9666
    123    1 Au   79      8.342575     10.428219     19.346041  11.0000 196.9666
    124    1 Au   79      0.000000      2.085644     19.346041  11.0000 196.9666
    125    1 Au   79      2.085644      0.000000     19.346041  11.0000 196.9666
    126    1 Au   79      6.256932      8.342575     19.346041  11.0000 196.9666
    127    1 Au   79      2.085644      8.342575     19.346041  11.0000 196.9666
    128    1 Au   79      4.171288     10.428219     19.346041  11.0000 196.9666
    129    1 Au   79      4.171288      2.085644     19.346041  11.0000 196.9666
    130    1 Au   79      6.256932      0.000000     19.346041  11.0000 196.9666
    131    1 Au   79     10.428219      4.171288     19.346041  11.0000 196.9666
    132    1 Au   79      8.342575      6.256932     19.346041  11.0000 196.9666
    133    1 Au   79      6.256932      4.171288     19.346041  11.0000 196.9666
    134    1 Au   79      4.171288      6.256932     19.346041  11.0000 196.9666
    135    1 Au   79      8.342575      2.085644     19.346041  11.0000 196.9666
    136    1 Au   79     10.428219      0.000000     19.346041  11.0000 196.9666
    137    1 Au   79      0.000000     10.428219     19.346041  11.0000 196.9666
    138    1 Au   79      2.085644      4.171288     19.346041  11.0000 196.9666
    139    1 Au   79      4.171288      4.171288     21.431684  11.0000 196.9666
    140    1 Au   79      6.256932      6.256932     21.431684  11.0000 196.9666
    141    1 Au   79      8.342575      4.171288     21.431684  11.0000 196.9666
    142    1 Au   79     10.428219      6.256932     21.431684  11.0000 196.9666
    143    1 Au   79      6.256932     10.428219     21.431684  11.0000 196.9666
    144    1 Au   79      2.085644     10.428219     21.431684  11.0000 196.9666
    145    1 Au   79      4.171288      8.342575     21.431684  11.0000 196.9666
    146    1 Au   79      8.342575      8.342575     21.431684  11.0000 196.9666
    147    1 Au   79      2.085644      6.256932     21.431684  11.0000 196.9666
    148    1 Au   79      0.000000      8.342575     21.431684  11.0000 196.9666
    149    1 Au   79      0.000000      4.171288     21.431684  11.0000 196.9666
    150    1 Au   79     10.428219     10.428219     21.431684  11.0000 196.9666
    151    1 Au   79      4.171288      0.000000     21.431684  11.0000 196.9666
    152    1 Au   79      0.000000      0.000000     21.431684  11.0000 196.9666
    153    1 Au   79      8.342575      0.000000     21.431684  11.0000 196.9666
    154    1 Au   79      6.256932      2.085644     21.431684  11.0000 196.9666
    155    1 Au   79     10.428219      2.085644     21.431684  11.0000 196.9666
    156    1 Au   79      2.085644      2.085644     21.431684  11.0000 196.9666
    157    1 Au   79      8.342575     10.428219     23.517328  11.0000 196.9666
    158    1 Au   79     10.428219      8.342575     23.517328  11.0000 196.9666
    159    1 Au   79      6.256932      8.342575     23.517328  11.0000 196.9666
    160    1 Au   79      4.171288     10.428219     23.517328  11.0000 196.9666
    161    1 Au   79      0.000000      2.085644     23.517328  11.0000 196.9666
    162    1 Au   79      2.085644      0.000000     23.517328  11.0000 196.9666
    163    1 Au   79      2.085644      8.342575     23.517328  11.0000 196.9666
    164    1 Au   79     10.428219      0.000000     23.517328  11.0000 196.9666
    165    1 Au   79     10.428219      4.171288     23.517328  11.0000 196.9666
    166    1 Au   79      8.342575      6.256932     23.517328  11.0000 196.9666
    167    1 Au   79      4.171288      2.085644     23.517328  11.0000 196.9666
    168    1 Au   79      6.256932      4.171288     23.517328  11.0000 196.9666
    169    1 Au   79      4.171288      6.256932     23.517328  11.0000 196.9666
    170    1 Au   79      8.342575      2.085644     23.517328  11.0000 196.9666
    171    1 Au   79      2.085644      4.171288     23.517328  11.0000 196.9666
    172    1 Au   79      0.000000      6.256932     23.517328  11.0000 196.9666
    173    1 Au   79      0.000000     10.428219     23.517328  11.0000 196.9666
    174    1 Au   79      6.256932      0.000000     23.517328  11.0000 196.9666



 SCF PARAMETERS         Density guess:                                   RESTART
                        --------------------------------------------------------
                        max_scf:                                             100
                        max_scf_history:                                       0
                        max_diis:                                              4
                        --------------------------------------------------------
                        eps_scf:                                        1.00E-07
                        eps_scf_history:                                0.00E+00
                        eps_diis:                                       1.00E-01
                        eps_eigval:                                     1.00E-05
                        --------------------------------------------------------
                        level_shift [a.u.]:                             0.000000
                        added MOs                                       100    0
                        --------------------------------------------------------
                        Mixing method:                            BROYDEN_MIXING
                                                charge density mixing in g-space
                        --------------------------------------------------------
                        Smear method:                                FERMI_DIRAC
                        Electronic temperature [K]:                        293.0
                        Electronic temperature [a.u.]:                  9.28E-04
                        Accuracy threshold:                             1.00E-10
                        --------------------------------------------------------
                        No outer SCF

 PW_GRID| Information for grid number                                          1
 PW_GRID| Grid distributed over                                   240 processors
 PW_GRID| Real space group dimensions                                    12   20
 PW_GRID| the grid is blocked:                                               YES
 PW_GRID| Cutoff [a.u.]                                                    200.0
 PW_GRID| spherical cutoff:                                                   NO
 PW_GRID|   Bounds   1            -77      76                Points:         154
 PW_GRID|   Bounds   2            -77      76                Points:         154
 PW_GRID|   Bounds   3           -157     157                Points:         315
 PW_GRID| Volume element (a.u.^3)  0.3622E-02     Volume (a.u.^3)     27056.3919
 PW_GRID| Grid span                                                    FULLSPACE
 PW_GRID|   Distribution                         Average         Max         Min
 PW_GRID|   G-Vectors                            31127.2       32032       27720
 PW_GRID|   G-Rays                                 202.1         208         180
 PW_GRID|   Real Space Points                    31127.2       32032       27720

 PW_GRID| Information for grid number                                          2
 PW_GRID| Number of the reference grid                                         1
 PW_GRID| Grid distributed over                                   240 processors
 PW_GRID| Real space group dimensions                                    12   20
 PW_GRID| the grid is blocked:                                                NO
 PW_GRID| Cutoff [a.u.]                                                     66.7
 PW_GRID| spherical cutoff:                                                   NO
 PW_GRID|   Bounds   1            -44      43                Points:          88
 PW_GRID|   Bounds   2            -44      43                Points:          88
 PW_GRID|   Bounds   3            -90      89                Points:         180
 PW_GRID| Volume element (a.u.^3)  0.1941E-01     Volume (a.u.^3)     27056.3919
 PW_GRID| Grid span                                                    FULLSPACE
 PW_GRID|   Distribution                         Average         Max         Min
 PW_GRID|   G-Vectors                             5808.0       18304           0
 PW_GRID|   G-Rays                                  66.0         208           0
 PW_GRID|   Real Space Points                     5808.0        7200        5040

 PW_GRID| Information for grid number                                          3
 PW_GRID| Number of the reference grid                                         1
 PW_GRID| Grid distributed over                                   240 processors
 PW_GRID| Real space group dimensions                                    12   20
 PW_GRID| the grid is blocked:                                                NO
 PW_GRID| Cutoff [a.u.]                                                     22.2
 PW_GRID| spherical cutoff:                                                   NO
 PW_GRID|   Bounds   1            -27      26                Points:          54
 PW_GRID|   Bounds   2            -27      26                Points:          54
 PW_GRID|   Bounds   3            -52      52                Points:         105
 PW_GRID| Volume element (a.u.^3)  0.8837E-01     Volume (a.u.^3)     27056.3919
 PW_GRID| Grid span                                                    FULLSPACE
 PW_GRID|   Distribution                         Average         Max         Min
 PW_GRID|   G-Vectors                             1275.8       11232           0
 PW_GRID|   G-Rays                                  23.6         208           0
 PW_GRID|   Real Space Points                     1275.8        1575         840

 PW_GRID| Information for grid number                                          4
 PW_GRID| Number of the reference grid                                         1
 PW_GRID| Grid distributed over                                   240 processors
 PW_GRID| Real space group dimensions                                    12   20
 PW_GRID| the grid is blocked:                                                NO
 PW_GRID| Cutoff [a.u.]                                                      7.4
 PW_GRID| spherical cutoff:                                                   NO
 PW_GRID|   Bounds   1            -15      14                Points:          30
 PW_GRID|   Bounds   2            -15      14                Points:          30
 PW_GRID|   Bounds   3            -30      29                Points:          60
 PW_GRID| Volume element (a.u.^3)  0.5010         Volume (a.u.^3)     27056.3919
 PW_GRID| Grid span                                                    FULLSPACE
 PW_GRID|   Distribution                         Average         Max         Min
 PW_GRID|   G-Vectors                              225.0        6240           0
 PW_GRID|   G-Rays                                   7.5         208           0
 PW_GRID|   Real Space Points                      225.0         360         120

 POISSON| Solver                                                        PERIODIC
 POISSON| Periodicity                                                        XYZ

 RS_GRID| Information for grid number                                          1
 RS_GRID|   Bounds   1            -77      76                Points:         154
 RS_GRID|   Bounds   2            -77      76                Points:         154
 RS_GRID|   Bounds   3           -157     157                Points:         315
 RS_GRID| Real space distribution over                                  4 groups
 RS_GRID| Real space distribution along direction                              1
 RS_GRID| Border size                                                         29
 RS_GRID| Real space distribution over                                  5 groups
 RS_GRID| Real space distribution along direction                              2
 RS_GRID| Border size                                                         29
 RS_GRID| Real space distribution over                                 12 groups
 RS_GRID| Real space distribution along direction                              3
 RS_GRID| Border size                                                         29
 RS_GRID|   Distribution                         Average         Max         Min
 RS_GRID|   Planes                                  96.5          97          96
 RS_GRID|   Distribution                         Average         Max         Min
 RS_GRID|   Planes                                  88.8          89          88
 RS_GRID|   Distribution                         Average         Max         Min
 RS_GRID|   Planes                                  84.2          85          84

 RS_GRID| Information for grid number                                          2
 RS_GRID|   Bounds   1            -44      43                Points:          88
 RS_GRID|   Bounds   2            -44      43                Points:          88
 RS_GRID|   Bounds   3            -90      89                Points:         180
 RS_GRID| Real space distribution over                                  4 groups
 RS_GRID| Real space distribution along direction                              1
 RS_GRID| Border size                                                         21
 RS_GRID| Real space distribution over                                  5 groups
 RS_GRID| Real space distribution along direction                              2
 RS_GRID| Border size                                                         21
 RS_GRID| Real space distribution over                                 12 groups
 RS_GRID| Real space distribution along direction                              3
 RS_GRID| Border size                                                         21
 RS_GRID|   Distribution                         Average         Max         Min
 RS_GRID|   Planes                                  64.0          64          64
 RS_GRID|   Distribution                         Average         Max         Min
 RS_GRID|   Planes                                  59.6          60          59
 RS_GRID|   Distribution                         Average         Max         Min
 RS_GRID|   Planes                                  57.0          57          57

 RS_GRID| Information for grid number                                          3
 RS_GRID|   Bounds   1            -27      26                Points:          54
 RS_GRID|   Bounds   2            -27      26                Points:          54
 RS_GRID|   Bounds   3            -52      52                Points:         105
 RS_GRID| Real space fully replicated
 RS_GRID| Group size                                                           1

 RS_GRID| Information for grid number                                          4
 RS_GRID|   Bounds   1            -15      14                Points:          30
 RS_GRID|   Bounds   2            -15      14                Points:          30
 RS_GRID|   Bounds   3            -30      29                Points:          60
 RS_GRID| Real space fully replicated
 RS_GRID| Group size                                                           1

 KPOINTS| Number of kpoint groups                                              1
 KPOINTS| Size of each kpoint group                                          240
 KPOINTS| Number of kpoints per group                                          1

 Number of electrons:                                                       1822
 Number of occupied orbitals:                                                911
 Number of molecular orbitals:                                              1011

 Number of orbital functions:                                               1494
 Number of independent orbital functions:                                   1494

 Extrapolation method: initial_guess


 SCF WAVEFUNCTION OPTIMIZATION

  Step     Update method      Time    Convergence         Total energy    Change
  ------------------------------------------------------------------------------
 Using HartreeLeadsBottom   0.0000000000000000     
 v_hartree_z_average(0)   0.0000000000000000     
     1 NoMix/SMGL  0.30E+00  108.1     1.56446702     -5447.8546309731 -5.45E+03
 Using HartreeLeadsBottom   0.0000000000000000     
 v_hartree_z_average(0)   0.0000000000000000     
     2 Broy./SMGL  0.30E+00   19.4     1.16241270     -5462.1146390115 -1.43E+01
 Using HartreeLeadsBottom   0.0000000000000000     
 v_hartree_z_average(0)   0.0000000000000000     
     3 Broy./SMGL  0.30E+00   19.3     0.28079380     -5454.4315919126  7.68E+00
 Using HartreeLeadsBottom   0.0000000000000000     
 v_hartree_z_average(0)   0.0000000000000000     
     4 Broy./SMGL  0.30E+00   19.2     1.05930971     -5451.9927174434  2.44E+00
 Using HartreeLeadsBottom   0.0000000000000000     
 v_hartree_z_average(0)   0.0000000000000000     
     5 Broy./SMGL  0.30E+00   19.3     0.43219122     -5447.9531641877  4.04E+00
 Using HartreeLeadsBottom   0.0000000000000000     
 v_hartree_z_average(0)   0.0000000000000000     
     6 Broy./SMGL  0.30E+00   19.3     0.53354201     -5444.0822036493  3.87E+00
 Using HartreeLeadsBottom   0.0000000000000000     
 v_hartree_z_average(0)   0.0000000000000000     
     7 Broy./SMGL  0.30E+00   19.4     0.49034526     -5441.0183662824  3.06E+00
 Using HartreeLeadsBottom   0.0000000000000000     
 v_hartree_z_average(0)   0.0000000000000000     
     8 Broy./SMGL  0.30E+00   19.3     0.50912534     -5438.7449213839  2.27E+00
 Using HartreeLeadsBottom   0.0000000000000000     
 v_hartree_z_average(0)   0.0000000000000000     
     9 Broy./SMGL  0.30E+00   19.2     0.53163901     -5431.1717691590  7.57E+00
 Using HartreeLeadsBottom   0.0000000000000000     
 v_hartree_z_average(0)   0.0000000000000000     
    10 Broy./SMGL  0.30E+00   19.3     0.35057829     -5428.4920172228  2.68E+00
 Using HartreeLeadsBottom   0.0000000000000000     
 v_hartree_z_average(0)   0.0000000000000000     
    11 Broy./SMGL  0.30E+00   19.1     0.31987342     -5427.0156558707  1.48E+00
 Using HartreeLeadsBottom   0.0000000000000000     
 v_hartree_z_average(0)   0.0000000000000000     
    12 Broy./SMGL  0.30E+00   19.1     0.18441942     -5421.4041955271  5.61E+00
 Using HartreeLeadsBottom   0.0000000000000000     
 v_hartree_z_average(0)   0.0000000000000000     
    13 Broy./SMGL  0.30E+00   19.1     0.20015234     -5417.8429486054  3.56E+00
 Using HartreeLeadsBottom   0.0000000000000000     
 v_hartree_z_average(0)   0.0000000000000000     
    14 Broy./SMGL  0.30E+00   19.1     0.06757629     -5416.1320908108  1.71E+00
 Using HartreeLeadsBottom   0.0000000000000000     
 v_hartree_z_average(0)   0.0000000000000000     
    15 Broy./SMGL  0.30E+00   19.4     0.06200074     -5415.7409028838  3.91E-01
 Using HartreeLeadsBottom   0.0000000000000000     
 v_hartree_z_average(0)   0.0000000000000000     
    16 Broy./SMGL  0.30E+00   19.0     0.04450754     -5416.3548337155 -6.14E-01
 Using HartreeLeadsBottom   0.0000000000000000     
 v_hartree_z_average(0)   0.0000000000000000     
    17 Broy./SMGL  0.30E+00   19.1     0.06688272     -5416.5876543019 -2.33E-01
 Using HartreeLeadsBottom   0.0000000000000000     
 v_hartree_z_average(0)   0.0000000000000000     
    18 Broy./SMGL  0.30E+00   19.1     0.05349859     -5416.8513110186 -2.64E-01
 Using HartreeLeadsBottom   0.0000000000000000     
 v_hartree_z_average(0)   0.0000000000000000     
    19 Broy./SMGL  0.30E+00   19.0     0.02253020     -5416.3501434874  5.01E-01
 Using HartreeLeadsBottom   0.0000000000000000     
 v_hartree_z_average(0)   0.0000000000000000     
    20 Broy./SMGL  0.30E+00   19.0     0.01952440     -5416.5052504049 -1.55E-01
 Using HartreeLeadsBottom   0.0000000000000000     
 v_hartree_z_average(0)   0.0000000000000000     
    21 Broy./SMGL  0.30E+00   19.1     0.01230147     -5416.5231256578 -1.79E-02
 Using HartreeLeadsBottom   0.0000000000000000     
 v_hartree_z_average(0)   0.0000000000000000     
    22 Broy./SMGL  0.30E+00   19.2     0.02017486     -5416.6523536097 -1.29E-01
 Using HartreeLeadsBottom   0.0000000000000000     
 v_hartree_z_average(0)   0.0000000000000000     
    23 Broy./SMGL  0.30E+00   19.1     0.01169012     -5416.6937458975 -4.14E-02
 Using HartreeLeadsBottom   0.0000000000000000     
 v_hartree_z_average(0)   0.0000000000000000     
    24 Broy./SMGL  0.30E+00   19.0     0.00744857     -5416.5956679761  9.81E-02
 Using HartreeLeadsBottom   0.0000000000000000     
 v_hartree_z_average(0)   0.0000000000000000     
    25 Broy./SMGL  0.30E+00   19.0     0.00299446     -5416.5864518964  9.22E-03
 Using HartreeLeadsBottom   0.0000000000000000     
 v_hartree_z_average(0)   0.0000000000000000     
    26 Broy./SMGL  0.30E+00   19.1     0.00292969     -5416.5657120017  2.07E-02
 Using HartreeLeadsBottom   0.0000000000000000     
 v_hartree_z_average(0)   0.0000000000000000     
    27 Broy./SMGL  0.30E+00   19.1     0.00325493     -5416.5176133053  4.81E-02
 Using HartreeLeadsBottom   0.0000000000000000     
 v_hartree_z_average(0)   0.0000000000000000     
    28 Broy./SMGL  0.30E+00   19.1     0.00206380     -5416.4719845605  4.56E-02
 Using HartreeLeadsBottom   0.0000000000000000     
 v_hartree_z_average(0)   0.0000000000000000     
    29 Broy./SMGL  0.30E+00   19.0     0.00745702     -5416.4527159232  1.93E-02
 Using HartreeLeadsBottom   0.0000000000000000     
 v_hartree_z_average(0)   0.0000000000000000     
    30 Broy./SMGL  0.30E+00   19.1     0.00165604     -5416.4453186924  7.40E-03
 Using HartreeLeadsBottom   0.0000000000000000     
 v_hartree_z_average(0)   0.0000000000000000     
    31 Broy./SMGL  0.30E+00   18.7     0.00026296     -5416.4433569573  1.96E-03
 Using HartreeLeadsBottom   0.0000000000000000     
 v_hartree_z_average(0)   0.0000000000000000     
    32 Broy./SMGL  0.30E+00   19.0     0.00207150     -5416.4432269656  1.30E-04
 Using HartreeLeadsBottom   0.0000000000000000     
 v_hartree_z_average(0)   0.0000000000000000     
    33 Broy./SMGL  0.30E+00   19.0     0.00165483     -5416.4398672982  3.36E-03
 Using HartreeLeadsBottom   0.0000000000000000     
 v_hartree_z_average(0)   0.0000000000000000     
    34 Broy./SMGL  0.30E+00   18.9     0.00745809     -5416.4392217849  6.46E-04
 Using HartreeLeadsBottom   0.0000000000000000     
 v_hartree_z_average(0)   0.0000000000000000     
    35 Broy./SMGL  0.30E+00   19.0     0.00005856     -5416.4399516100 -7.30E-04
 Using HartreeLeadsBottom   0.0000000000000000     
 v_hartree_z_average(0)   0.0000000000000000     
    36 Broy./SMGL  0.30E+00   19.0     0.00007614     -5416.4398769154  7.47E-05
 Using HartreeLeadsBottom   0.0000000000000000     
 v_hartree_z_average(0)   0.0000000000000000     
    37 Broy./SMGL  0.30E+00   19.0     0.00004972     -5416.4400427840 -1.66E-04
 Using HartreeLeadsBottom   0.0000000000000000     
 v_hartree_z_average(0)   0.0000000000000000     
    38 Broy./SMGL  0.30E+00   18.9     0.00003898     -5416.4396909569  3.52E-04
 Using HartreeLeadsBottom   0.0000000000000000     
 v_hartree_z_average(0)   0.0000000000000000     
    39 Broy./SMGL  0.30E+00   18.8     0.00003186     -5416.4391156722  5.75E-04
 Using HartreeLeadsBottom   0.0000000000000000     
 v_hartree_z_average(0)   0.0000000000000000     
    40 Broy./SMGL  0.30E+00   18.9     0.00001151     -5416.4392551169 -1.39E-04
 Using HartreeLeadsBottom   0.0000000000000000     
 v_hartree_z_average(0)   0.0000000000000000     
    41 Broy./SMGL  0.30E+00   18.9     0.00001086     -5416.4394901515 -2.35E-04
 Using HartreeLeadsBottom   0.0000000000000000     
 v_hartree_z_average(0)   0.0000000000000000     
    42 Broy./SMGL  0.30E+00   19.0     0.00000536     -5416.4396652494 -1.75E-04
 Using HartreeLeadsBottom   0.0000000000000000     
 v_hartree_z_average(0)   0.0000000000000000     
    43 Broy./SMGL  0.30E+00   19.1     0.00000628     -5416.4396843371 -1.91E-05
 Using HartreeLeadsBottom   0.0000000000000000     
 v_hartree_z_average(0)   0.0000000000000000     
    44 Broy./SMGL  0.30E+00   19.0     0.00000429     -5416.4396013034  8.30E-05
 Using HartreeLeadsBottom   0.0000000000000000     
 v_hartree_z_average(0)   0.0000000000000000     
    45 Broy./SMGL  0.30E+00   19.0     0.00000201     -5416.4395875469  1.38E-05
 Using HartreeLeadsBottom   0.0000000000000000     
 v_hartree_z_average(0)   0.0000000000000000     
    46 Broy./SMGL  0.30E+00   18.9     0.00000350     -5416.4395682623  1.93E-05
 Using HartreeLeadsBottom   0.0000000000000000     
 v_hartree_z_average(0)   0.0000000000000000     
    47 Broy./SMGL  0.30E+00   27.9     0.00000237     -5416.4395406374  2.76E-05
 Using HartreeLeadsBottom   0.0000000000000000     
 v_hartree_z_average(0)   0.0000000000000000     
    48 Broy./SMGL  0.30E+00   19.3     0.00000169     -5416.4395378049  2.83E-06
 Using HartreeLeadsBottom   0.0000000000000000     
 v_hartree_z_average(0)   0.0000000000000000     
    49 Broy./SMGL  0.30E+00   28.3     0.00000103     -5416.4395282236  9.58E-06
 Using HartreeLeadsBottom   0.0000000000000000     
 v_hartree_z_average(0)   0.0000000000000000     
    50 Broy./SMGL  0.30E+00   18.8     0.00000098     -5416.4395091858  1.90E-05
 Using HartreeLeadsBottom   0.0000000000000000     
 v_hartree_z_average(0)   0.0000000000000000     
    51 Broy./SMGL  0.30E+00   18.9     0.00000065     -5416.4395003130  8.87E-06
 Using HartreeLeadsBottom   0.0000000000000000     
 v_hartree_z_average(0)   0.0000000000000000     
    52 Broy./SMGL  0.30E+00   19.0     0.00000033     -5416.4394954279  4.89E-06
 Using HartreeLeadsBottom   0.0000000000000000     
 v_hartree_z_average(0)   0.0000000000000000     
    53 Broy./SMGL  0.30E+00   18.9     0.00000035     -5416.4394893023  6.13E-06
 Using HartreeLeadsBottom   0.0000000000000000     
 v_hartree_z_average(0)   0.0000000000000000     
    54 Broy./SMGL  0.30E+00   18.9     0.00000015     -5416.4394886591  6.43E-07
 Using HartreeLeadsBottom   0.0000000000000000     
 v_hartree_z_average(0)   0.0000000000000000     
    55 Broy./SMGL  0.30E+00   18.8     0.00000014     -5416.4394868610  1.80E-06
 Using HartreeLeadsBottom   0.0000000000000000     
 v_hartree_z_average(0)   0.0000000000000000     
    56 Broy./SMGL  0.30E+00   19.1     0.00000013     -5416.4394857798  1.08E-06
 Using HartreeLeadsBottom   0.0000000000000000     
 v_hartree_z_average(0)   0.0000000000000000     
    57 Broy./SMGL  0.30E+00   18.9     0.00000015     -5416.4394865472 -7.67E-07
 Using HartreeLeadsBottom   0.0000000000000000     
 v_hartree_z_average(0)   0.0000000000000000     
    58 Broy./SMGL  0.30E+00   19.0     0.00000006     -5416.4394857756  7.72E-07

  *** SCF run converged in    58 steps ***


  Electronic density on regular grids:      -1781.7389098245       40.2610901755
  Core density on regular grids:             1821.9999997041       -0.0000002959
  Total charge density on r-space grids:       40.2610898796
  Total charge density g-space grids:          40.2610898796

  Overlap energy of the core charge distribution:               0.00001354940311
  Self energy of the core charge distribution:              -9503.87585559366380
  Core Hamiltonian energy:                                   3004.12856848449883
  Hartree energy:                                            1922.42342833224257
  Exchange-correlation energy:                               -839.11564054808719
  Electronic entropic energy:                                   0.00000000000000
  Fermi energy:                                                 0.00000000000000

  Total energy:                                             -5416.43948577560695

 The electron density is written in cube file format to the file:

 0V-ELECTRON_DENSITY-1_0.cube

 !-----------------------------------------------------------------------------!
                     Mulliken Population Analysis

 #  Atom  Element  Kind  Atomic population                           Net charge
       1     Au       1         10.637416                              0.362584
       2     Au       1         10.748574                              0.251426
       3     Au       1         10.763730                              0.236270
       4     Au       1         10.765242                              0.234758
       5     Au       1         10.713630                              0.286370
       6     Au       1         10.648674                              0.351326
       7     Au       1         10.681315                              0.318685
       8     Au       1         10.618025                              0.381975
       9     Au       1         10.655060                              0.344940
      10     Au       1         10.629091                              0.370909
      11     Au       1         10.620152                              0.379848
      12     Au       1         10.693301                              0.306699
      13     Au       1         10.638529                              0.361471
      14     Au       1         10.698968                              0.301032
      15     Au       1         10.676701                              0.323299
      16     Au       1         10.634655                              0.365345
      17     Au       1         10.614545                              0.385455
      18     Au       1         10.736189                              0.263811
      19     Au       1         10.515413                              0.484587
      20     Au       1         10.438163                              0.561837
      21     Au       1         10.362111                              0.637889
      22     Au       1         10.403103                              0.596897
      23     Au       1         10.410427                              0.589573
      24     Au       1         10.343976                              0.656024
      25     Au       1         10.344772                              0.655228
      26     Au       1         10.463425                              0.536575
      27     Au       1         10.369107                              0.630893
      28     Au       1         10.472829                              0.527171
      29     Au       1         10.371098                              0.628902
      30     Au       1         10.495636                              0.504364
      31     Au       1         10.389745                              0.610255
      32     Au       1         10.354727                              0.645273
      33     Au       1         10.453712                              0.546288
      34     Au       1         10.444332                              0.555668
      35     Au       1         10.457120                              0.542880
      36     Au       1         10.466998                              0.533002
      37     Au       1         10.406744                              0.593256
      38     Au       1         10.420554                              0.579446
      39     Au       1         10.372485                              0.627515
      40     Au       1         10.437438                              0.562562
      41     Au       1         10.442121                              0.557879
      42     Au       1         10.405371                              0.594629
      43     Au       1         10.428029                              0.571971
      44     Au       1         10.416660                              0.583340
      45     Au       1         10.423531                              0.576469
      46     Au       1         10.409256                              0.590744
      47     Au       1         10.483412                              0.516588
      48     Au       1         10.573518                              0.426482
      49     Au       1         10.460259                              0.539741
      50     Au       1         10.371828                              0.628172
      51     Au       1         10.327212                              0.672788
      52     Au       1         10.482694                              0.517306
      53     Au       1         10.442801                              0.557199
      54     Au       1         10.390982                              0.609018
      55     Au       1         10.701251                              0.298749
      56     Au       1         10.701178                              0.298822
      57     Au       1         10.640046                              0.359954
      58     Au       1         10.705029                              0.294971
      59     Au       1         10.647985                              0.352015
      60     Au       1         10.680385                              0.319615
      61     Au       1         10.808664                              0.191336
      62     Au       1         10.703410                              0.296590
      63     Au       1         10.663520                              0.336480
      64     Au       1         10.689056                              0.310944
      65     Au       1         10.637646                              0.362354
      66     Au       1         10.700582                              0.299418
      67     Au       1         10.699518                              0.300482
      68     Au       1         10.674686                              0.325314
      69     Au       1         10.654439                              0.345561
      70     Au       1         10.626897                              0.373103
      71     Au       1         10.675231                              0.324769
      72     Au       1         10.656902                              0.343098
      73     Au       1         10.914623                              0.085377
      74     Au       1         10.957469                              0.042531
      75     Au       1         10.918658                              0.081342
      76     Au       1         11.007433                             -0.007433
      77     Au       1         10.809678                              0.190322
      78     Au       1         10.852893                              0.147107
      79     Au       1         11.051198                             -0.051198
      80     Au       1         10.920811                              0.079189
      81     Au       1         11.209703                             -0.209703
      82     Au       1         11.100431                             -0.100431
      83     Au       1         10.954176                              0.045824
      84     Au       1         10.693285                              0.306715
      85     Au       1         11.383162                             -0.383162
      86     Au       1         10.842040                              0.157960
      87     Au       1         11.369244                             -0.369244
      88     Au       1         10.949626                              0.050374
      89     Au       1         10.949691                              0.050309
      90     Au       1         11.098360                             -0.098360
      91     S        2          5.337450                              0.662550
      92     S        2          3.678448                              2.321552
      93     C        3          3.767493                              0.232507
      94     C        3          3.597217                              0.402783
      95     C        3          3.593447                              0.406553
      96     C        3          3.831880                              0.168120
      97     C        3          3.673704                              0.326296
      98     C        3          3.667900                              0.332100
      99     H        4          0.529035                              0.470965
     100     H        4          0.532835                              0.467165
     101     H        4          0.618190                              0.381810
     102     H        4          0.616506                              0.383494
     103     Au       1         10.851194                              0.148806
     104     Au       1         10.852448                              0.147552
     105     Au       1         10.851440                              0.148560
     106     Au       1         10.852467                              0.147533
     107     Au       1         10.851439                              0.148561
     108     Au       1         10.852448                              0.147552
     109     Au       1         10.852450                              0.147550
     110     Au       1         10.851212                              0.148788
     111     Au       1         10.851446                              0.148554
     112     Au       1         11.007991                             -0.007991
     113     Au       1         10.851445                              0.148555
     114     Au       1         10.851215                              0.148785
     115     Au       1         10.852450                              0.147550
     116     Au       1         10.852423                              0.147577
     117     Au       1         10.851191                              0.148809
     118     Au       1         11.013466                             -0.013466
     119     Au       1         11.013295                             -0.013295
     120     Au       1         11.007964                             -0.007964
     121     Au       1         11.043663                             -0.043663
     122     Au       1         11.043653                             -0.043653
     123     Au       1         11.043663                             -0.043663
     124     Au       1         11.043504                             -0.043504
     125     Au       1         11.039064                             -0.039064
     126     Au       1         11.043781                             -0.043781
     127     Au       1         11.043782                             -0.043782
     128     Au       1         11.043473                             -0.043473
[...]
     82       Au     1      11.000         11.147                        -0.147
     83       Au     1      11.000         11.159                        -0.159
     84       Au     1      11.000         10.951                         0.049
     85       Au     1      11.000         11.175                        -0.175
     86       Au     1      11.000         11.075                        -0.075
     87       Au     1      11.000         11.148                        -0.148
     88       Au     1      11.000         11.019                        -0.019
     89       Au     1      11.000         10.994                         0.006
     90       Au     1      11.000         11.110                        -0.110
     91       S      2       6.000          5.900                         0.100
     92       S      2       6.000          4.661                         1.339
     93       C      3       4.000          3.592                         0.408
     94       C      3       4.000          3.463                         0.537
     95       C      3       4.000          3.461                         0.539
     96       C      3       4.000          3.740                         0.260
     97       C      3       4.000          3.563                         0.437
     98       C      3       4.000          3.558                         0.442
     99       H      4       1.000          0.743                         0.257
    100       H      4       1.000          0.746                         0.254
    101       H      4       1.000          0.838                         0.162
    102       H      4       1.000          0.842                         0.158
    103       Au     1      11.000         10.879                         0.121
    104       Au     1      11.000         10.884                         0.116
    105       Au     1      11.000         10.882                         0.118
    106       Au     1      11.000         10.884                         0.116
    107       Au     1      11.000         10.882                         0.118
    108       Au     1      11.000         10.884                         0.116
    109       Au     1      11.000         10.884                         0.116
    110       Au     1      11.000         10.879                         0.121
    111       Au     1      11.000         10.882                         0.118
    112       Au     1      11.000         10.808                         0.192
    113       Au     1      11.000         10.882                         0.118
    114       Au     1      11.000         10.879                         0.121
    115       Au     1      11.000         10.884                         0.116
    116       Au     1      11.000         10.882                         0.118
    117       Au     1      11.000         10.879                         0.121
    118       Au     1      11.000         10.792                         0.208
    119       Au     1      11.000         10.792                         0.208
    120       Au     1      11.000         10.809                         0.191
    121       Au     1      11.000         11.012                        -0.012
    122       Au     1      11.000         11.012                        -0.012
    123       Au     1      11.000         11.012                        -0.012
    124       Au     1      11.000         11.012                        -0.012
    125       Au     1      11.000         11.011                        -0.011
    126       Au     1      11.000         11.012                        -0.012
    127       Au     1      11.000         11.012                        -0.012
    128       Au     1      11.000         11.012                        -0.012
    129       Au     1      11.000         10.991                         0.009
    130       Au     1      11.000         11.011                        -0.011
    131       Au     1      11.000         11.012                        -0.012
    132       Au     1      11.000         11.012                        -0.012
    133       Au     1      11.000         11.011                        -0.011
    134       Au     1      11.000         11.012                        -0.012
    135       Au     1      11.000         11.012                        -0.012
    136       Au     1      11.000         11.012                        -0.012
    137       Au     1      11.000         11.012                        -0.012
    138       Au     1      11.000         11.011                        -0.011
    139       Au     1      11.000         11.001                        -0.001
    140       Au     1      11.000         11.001                        -0.001
    141       Au     1      11.000         11.000                        -0.000
    142       Au     1      11.000         11.001                        -0.001
    143       Au     1      11.000         11.000                        -0.000
    144       Au     1      11.000         11.001                        -0.001
    145       Au     1      11.000         10.999                         0.001
    146       Au     1      11.000         11.001                        -0.001
    147       Au     1      11.000         11.001                        -0.001
    148       Au     1      11.000         11.001                        -0.001
    149       Au     1      11.000         11.000                        -0.000
    150       Au     1      11.000         11.001                        -0.001
    151       Au     1      11.000         11.001                        -0.001
    152       Au     1      11.000         11.001                        -0.001
    153       Au     1      11.000         11.000                        -0.000
    154       Au     1      11.000         11.001                        -0.001
    155       Au     1      11.000         10.999                         0.001
    156       Au     1      11.000         11.001                        -0.001
    157       Au     1      11.000         10.985                         0.015
    158       Au     1      11.000         10.996                         0.004
    159       Au     1      11.000         10.978                         0.022
    160       Au     1      11.000         10.981                         0.019
    161       Au     1      11.000         10.973                         0.027
    162       Au     1      11.000         10.987                         0.013
    163       Au     1      11.000         10.980                         0.020
    164       Au     1      11.000         10.980                         0.020
    165       Au     1      11.000         10.978                         0.022
    166       Au     1      11.000         10.997                         0.003
    167       Au     1      11.000         10.999                         0.001
    168       Au     1      11.000         10.993                         0.007
    169       Au     1      11.000         10.992                         0.008
    170       Au     1      11.000         10.976                         0.024
    171       Au     1      11.000         10.996                         0.004
    172       Au     1      11.000         10.991                         0.009
    173       Au     1      11.000         10.991                         0.009
    174       Au     1      11.000         10.989                         0.011

  Total Charge                                                           40.261
 !-----------------------------------------------------------------------------!
 Calculating transmission coefficient

 ENERGY| Total FORCE_EVAL ( QS ) energy [a.u.]:            -5416.439485775606954

 -------------------------------------------------------------------------------
 -                                                                             -
 -                                DBCSR STATISTICS                             -
 -                                                                             -
 -------------------------------------------------------------------------------
 COUNTER                                    TOTAL       BLAS       SMM       ACC
 flops inhomo. stacks                           0       0.0%      0.0%      0.0%
 flops total                         0.000000E+00       0.0%      0.0%      0.0%
 flops max/rank                      0.000000E+00       0.0%      0.0%      0.0%
 matmuls inhomo. stacks                         0       0.0%      0.0%      0.0%
 matmuls total                                  0       0.0%      0.0%      0.0%
 number of processed stacks                     0       0.0%      0.0%      0.0%
 average stack size                                     0.0       0.0       0.0
 marketing flops                     0.000000E+00
 -------------------------------------------------------------------------------
 -                                                                             -
 -                      DBCSR MESSAGE PASSING PERFORMANCE                      -
 -                                                                             -
 -------------------------------------------------------------------------------
 ROUTINE             CALLS      AVE VOLUME [Bytes]
 MP_Bcast                1                     12.
 MP_Allreduce         3151                      8.
 MP_Alltoall          3133                 199209.
 -------------------------------------------------------------------------------

 -------------------------------------------------------------------------------
 -                                                                             -
 -                                DBM STATISTICS                               -
 -                                                                             -
 -------------------------------------------------------------------------------
    M  x    N  x    K                                          COUNT     PERCENT
 -------------------------------------------------------------------------------

 -------------------------------------------------------------------------------
 -                                                                             -
 -                                GRID STATISTICS                              -
 -                                                                             -
 -------------------------------------------------------------------------------
 LP    KERNEL             BACKEND                              COUNT     PERCENT
 4     collocate ortho    REF                                7769592      45.42%
 4     integrate ortho    REF                                7637904      44.65%
 0     collocate general  REF                                 375840       2.20%
 0     integrate general  REF                                 334080       1.95%
 3     collocate ortho    REF                                 268155       1.57%
 3     integrate ortho    REF                                 263610       1.54%
 2     collocate ortho    REF                                 184611       1.08%
 2     integrate ortho    REF                                 181482       1.06%
 1     collocate ortho    REF                                  34692       0.20%
 1     integrate ortho    REF                                  34104       0.20%
 0     collocate ortho    REF                                  11446       0.07%
 0     integrate ortho    REF                                  11252       0.07%
 -------------------------------------------------------------------------------

 MEMORY| Estimated peak process memory [MiB]                                1367

 -------------------------------------------------------------------------------
 ----                             MULTIGRID INFO                            ----
 -------------------------------------------------------------------------------
 count for grid        1:         404609          cutoff [a.u.]          200.00
 count for grid        2:         633711          cutoff [a.u.]           66.67
 count for grid        3:         355168          cutoff [a.u.]           22.22
 count for grid        4:         169376          cutoff [a.u.]            7.41
 total gridlevel count  :        1562864

 -------------------------------------------------------------------------------
 -                                                                             -
 -                         MESSAGE PASSING PERFORMANCE                         -
 -                                                                             -
 -------------------------------------------------------------------------------

 ROUTINE             CALLS      AVE VOLUME [Bytes]
 MP_Group                5
 MP_Bcast            58007                  20799.
 MP_Allreduce         3381                1851918.
 MP_Sync               706
 MP_Alltoall          1069
 MP_ISendRecv        55926                   7740.
 MP_Wait             62904
 MP_ISend            13341                  70101.
 MP_IRecv            13455                  69532.
 MP_Recv              3726                 382464.
 MP_Write_All            2                 431392.
 -------------------------------------------------------------------------------


 -------------------------------------------------------------------------------
 -                                                                             -
 -                           R E F E R E N C E S                               -
 -                                                                             -
 -------------------------------------------------------------------------------
 
 CP2K version 2022.1 (Development Version), the CP2K developers group (2022).
 CP2K is freely available from https://www.cp2k.org/ .

 Kuehne,Thomas D.; Iannuzzi,Marcella; Del Ben,Mauro;
 Rybkin,Vladimir V.; Seewald,Patrick; Stein,Frederick; Laino,Teodoro;
 Khaliullin,Rustam Z.; Schuett,Ole; Schiffmann,Florian; Golze,Dorothea;
 Wilhelm,Jan; Chulkov,Sergey; Bani-Hashemian,Mohammad Hossein;
 Weber,Valery; Borstnik,Urban; Taillefumier,Mathieu;
 Jakobovits,Alice Shoshana; Lazzaro,Alfio; Pabst,Hans; Mueller,Tiziano;
 Schade,Robert; Guidon,Manuel; Andermatt,Samuel; Holmberg,Nico;
 Schenter,Gregory K.; Hehn,Anna; Bussy,Augustin; Belleflamme,Fabian;
 Tabacchi,Gloria; Gloess,Andreas; Lass,Michael; Bethune,Iain;
 Mundy,Christopher J.; Plessl,Christian; Watkins,Matt;
 VandeVondele,Joost; Krack,Matthias; Hutter,Juerg. 
 The Journal of Chemical Physics, 152 (19), (2020). 
 CP2K: An electronic structure and molecular dynamics software package -
 Quickstep: Efficient and accurate electronic structure calculations.
 https://doi.org/10.1063/5.0007045

 Togo, Atsushi; Tanaka, Isao. arXiv, 1808.01590 (2018). 
 Spglib : a software library for crystal symmetry search.
 https://doi.org/xxx

 Schuett, Ole; Messmer, Peter; Hutter, Juerg; VandeVondele, Joost. 
 Electronic Structure Calculations on Graphics Processing Units, John
 Wiley & Sons, Ltd, 173-190 (2016). 
 GPU-Accelerated Sparse Matrix-Matrix Multiplication for
 Linear Scaling Density Functional Theory.
 https://doi.org/10.1002/9781118670712.ch8

 Heinecke, A; Henry, G; Hutchinson, M; Pabst, H. 
 Proceedings of Intl. Supercomputing Conference, 981-991 (2016). 
 LIBXSMM: Accelerating Small Matrix Multiplications
 by Runtime Code Generation.
 https://doi.org/10.1109/SC.2016.83

 Borstnik, U; VandeVondele, J; Weber, V; Hutter, J. 
 PARALLEL COMPUTING, 40 (5-6), 47-58 (2014). 
 Sparse matrix multiplication: The distributed block-compressed sparse
 row library.
 https://doi.org/10.1016/j.parco.2014.03.012

 Hutter, J; Iannuzzi, M; Schiffmann, F; VandeVondele, J. 
 WIREs Comput Mol Sci., 4 (1), 15-25 (2014). 
 CP2K: atomistic simulations of condensed matter systems.
 https://doi.org/10.1002/wcms.1159

 VandeVondele, J; Hutter, J. 
 JOURNAL OF CHEMICAL PHYSICS, 127 (11), 114105 (2007). 
 Gaussian basis sets for accurate calculations on molecular systems in
 gas and condensed phases.
 https://doi.org/10.1063/1.2770708

 Krack, M. 
 THEORETICAL CHEMISTRY ACCOUNTS, 114 (1-3), 145-152 (2005). 
 Pseudopotentials for H to Kr optimized for gradient-corrected
 exchange-correlation functionals.
 https://doi.org/10.1007/s00214-005-0655-y

 VandeVondele, J; Krack, M; Mohamed, F; Parrinello, M; Chassaing, T;
 Hutter, J. COMPUTER PHYSICS COMMUNICATIONS, 167 (2), 103-128 (2005). 
 QUICKSTEP: Fast and accurate density functional calculations using a
 mixed Gaussian and plane waves approach.
 https://doi.org/10.1016/j.cpc.2004.12.014

 Frigo, M; Johnson, SG. 
 PROCEEDINGS OF THE IEEE, 93 (2), 216-231 (2005). 
 The design and implementation of FFTW3.
 https://doi.org/10.1109/JPROC.2004.840301

 Hartwigsen, C; Goedecker, S; Hutter, J. 
 PHYSICAL REVIEW B, 58 (7), 3641-3662 (1998). 
 Relativistic separable dual-space Gaussian pseudopotentials from H to Rn.
 https://doi.org/10.1103/PhysRevB.58.3641

 Lippert, G; Hutter, J; Parrinello, M. 
 MOLECULAR PHYSICS, 92 (3), 477-487 (1997). 
 A hybrid Gaussian and plane wave density functional scheme.
 https://doi.org/10.1080/002689797170220

 Goedecker, S; Teter, M; Hutter, J. 
 PHYSICAL REVIEW B, 54 (3), 1703-1710 (1996). 
 Separable dual-space Gaussian pseudopotentials.
 https://doi.org/10.1103/PhysRevB.54.1703


 -------------------------------------------------------------------------------
 -                                                                             -
 -                                T I M I N G                                  -
 -                                                                             -
 -------------------------------------------------------------------------------
 SUBROUTINE                       CALLS  ASD         SELF TIME        TOTAL TIME
                                MAXIMUM       AVERAGE  MAXIMUM  AVERAGE  MAXIMUM
 CP2K                                 1  1.0    0.031    0.050 1509.465 1509.481
 qs_energies                          1  2.0    0.000    0.001 1509.205 1509.268
 run_smeagol_emtrans                 59  5.9 1204.362 1319.231 1480.798 1487.503
 scf_env_do_scf                       1  3.0    0.000    0.000 1215.019 1215.165
 scf_env_do_scf_inner_loop           58  4.0    0.018    3.667 1215.018 1215.165
 qs_scf_new_mos_kp                   58  5.0    0.001    0.001 1189.669 1196.313
 mp_sum_iv                          486  7.4  122.748  128.734  122.748  128.734
 dbcsr_replicate                   6345  8.0    1.066    1.421  107.591  109.210
 convert_dbcsr_to_replsiesta        176  7.0   11.341   13.488  104.892  107.486
 dbcsr_finalize                    7314  8.8    0.090    0.132   43.583   62.672
 dbcsr_merge_all                   6569 10.0    0.503    0.724   43.427   62.490
 dbcsr_sort_data                   6345 11.0   37.990   56.642   37.990   56.642
 mp_allgather_i12                  6345  9.0   24.935   43.583   24.935   43.583
 mp_allgatherv_dv                  6345  9.0   33.421   35.724   33.421   35.724
 replsiesta_struct_create            59  6.9    5.313    9.630   29.667   34.251
 -------------------------------------------------------------------------------

 The number of warnings for this run is : 0
 
 -------------------------------------------------------------------------------
  **** **** ******  **  PROGRAM ENDED AT                 2023-02-17 15:33:19.127
 ***** ** ***  *** **   PROGRAM RAN ON                     cn1140.scarf.rl.ac.uk
 **    ****   ******    PROGRAM RAN BY                                 scarf1157
 ***** **    ** ** **   PROGRAM PROCESS ID                                 42233
  **** **  *******  **  PROGRAM STOPPED IN /work4/scd/scarf1157/work/testing/cp2
                                           k-smeagol/bdt/cp2k/hollow-site/transp
                                           ort-cp2k/5-4/geometry-ordered/3x3-4/s
                                           z/kpoints_bulk-31_em-1-1-1_sz-all
