     113
 i =        1, E =     -3690.6220926903
 Au         1.7870000000        1.2810000000        0.0000000000
 Au         0.3090000000        2.7590000000        2.0900000000
 Au         1.7870000000        1.2810000000        4.1800000000
 Au         0.3090000000        2.7590000000        6.2700000000
 Au         4.7430000000        1.2810000000        0.0000000000
 Au         3.2650000000        2.7590000000        2.0900000000
 Au         4.7430000000        1.2810000000        4.1800000000
 Au         3.2650000000        2.7590000000        6.2700000000
 Au         7.6990000000        1.2810000000        0.0000000000
 Au         6.2210000000        2.7590000000        2.0900000000
 Au         7.6990000000        1.2810000000        4.1800000000
 Au         6.2210000000        2.7590000000        6.2700000000
 Au         1.7870000000        4.2360000000        0.0000000000
 Au         0.3090000000        5.7140000000        2.0900000000
 Au         1.7870000000        4.2360000000        4.1800000000
 Au         0.3090000000        5.7140000000        6.2700000000
 Au         4.7430000000        4.2360000000        0.0000000000
 Au         3.2650000000        5.7140000000        2.0900000000
 Au         4.7430000000        4.2360000000        4.1800000000
 Au         3.2650000000        5.7140000000        6.2700000000
 Au         7.6990000000        4.2360000000        0.0000000000
 Au         6.2210000000        5.7140000000        2.0900000000
 Au         7.6990000000        4.2360000000        4.1800000000
 Au         6.2210000000        5.7140000000        6.2700000000
 Au         1.7870000000        7.1920000000        0.0000000000
 Au         0.3090000000        8.6700000000        2.0900000000
 Au         1.7870000000        7.1920000000        4.1800000000
 Au         0.3090000000        8.6700000000        6.2700000000
 Au         4.7430000000        7.1920000000        0.0000000000
 Au         3.2650000000        8.6700000000        2.0900000000
 Au         4.7430000000        7.1920000000        4.1800000000
 Au         3.2650000000        8.6700000000        6.2700000000
 Au         7.6990000000        7.1920000000        0.0000000000
 Au         6.2210000000        8.6700000000        2.0900000000
 Au         7.6990000000        7.1920000000        4.1800000000
 Au         6.2210000000        8.6700000000        6.2700000000
 Au         1.7870000000        1.2810000000        8.3600000000
 Au         1.7870000000        4.2360000000        8.3600000000
 Au         1.7870000000        7.1920000000        8.3600000000
 Au         4.7430000000        1.2810000000        8.3600000000
 Au         4.7430000000        4.2360000000        8.3600000000
 Au         4.7430000000        7.1920000000        8.3600000000
 Au         7.6990000000        1.2810000000        8.3600000000
 Au         7.6990000000        4.2360000000        8.3600000000
 Au         7.6990000000        7.1920000000        8.3600000000
 Au         0.3090000000        2.7590000000       10.4500000000
 Au         0.3090000000        5.7140000000       10.4500000000
 Au         0.3090000000        8.6700000000       10.4500000000
 Au         3.2650000000        2.7590000000       10.4500000000
 Au         3.2650000000        5.7140000000       10.4500000000
 Au         3.2650000000        8.6700000000       10.4500000000
 Au         6.2210000000        2.7590000000       10.4500000000
 Au         6.2210000000        5.7140000000       10.4500000000
 Au         6.2210000000        8.6700000000       10.4500000000
 Au         1.7670000000        4.2150000000       12.4460000000
 Au         1.7660000000        7.2140000000       12.4460000000
 Au         4.7650000000        4.2130000000       12.4460000000
 Au         4.7670000000        7.2140000000       12.4450000000
 Au         3.2667901029        5.7149075240       14.4277291444
 Au         3.4972789625        5.9367723105       17.1420642661
  H         3.2087464439        5.6593182580       18.9246933795
  H         3.3213820248        5.7679827645       19.7970772692
 Au         3.0486565046        5.5047947319       21.5867733910
 Au         3.2557511615        5.7050567902       24.2567390137
 Au         1.7650000000        4.2130000000       26.2750000000
 Au         1.7650000000        7.2140000000       26.2740000000
 Au         4.7650000000        4.2140000000       26.2740000000
 Au         4.7650000000        7.2140000000       26.2750000000
 Au         0.3090000000        2.7590000000       28.2700000000
 Au         0.3090000000        5.7140000000       28.2700000000
 Au         0.3090000000        8.6700000000       28.2700000000
 Au         3.2650000000        2.7590000000       28.2700000000
 Au         3.2650000000        5.7140000000       28.2700000000
 Au         3.2650000000        8.6700000000       28.2700000000
 Au         6.2210000000        2.7590000000       28.2700000000
 Au         6.2210000000        5.7140000000       28.2700000000
 Au         6.2210000000        8.6700000000       28.2700000000
 Au         1.7870000000        1.2810000000       30.3600000000
 Au         0.3090000000        2.7590000000       32.4500000000
 Au         1.7870000000        1.2810000000       34.5400000000
 Au         0.3090000000        2.7590000000       36.6300000000
 Au         4.7430000000        1.2810000000       30.3600000000
 Au         3.2650000000        2.7590000000       32.4500000000
 Au         4.7430000000        1.2810000000       34.5400000000
 Au         3.2650000000        2.7590000000       36.6300000000
 Au         7.6990000000        1.2810000000       30.3600000000
 Au         6.2210000000        2.7590000000       32.4500000000
 Au         7.6990000000        1.2810000000       34.5400000000
 Au         6.2210000000        2.7590000000       36.6300000000
 Au         1.7870000000        4.2360000000       30.3600000000
 Au         0.3090000000        5.7140000000       32.4500000000
 Au         1.7870000000        4.2360000000       34.5400000000
 Au         0.3090000000        5.7140000000       36.6300000000
 Au         4.7430000000        4.2360000000       30.3600000000
 Au         3.2650000000        5.7140000000       32.4500000000
 Au         4.7430000000        4.2360000000       34.5400000000
 Au         3.2650000000        5.7140000000       36.6300000000
 Au         7.6990000000        4.2360000000       30.3600000000
 Au         6.2210000000        5.7140000000       32.4500000000
 Au         7.6990000000        4.2360000000       34.5400000000
 Au         6.2210000000        5.7140000000       36.6300000000
 Au         1.7870000000        7.1920000000       30.3600000000
 Au         0.3090000000        8.6700000000       32.4500000000
 Au         1.7870000000        7.1920000000       34.5400000000
 Au         0.3090000000        8.6700000000       36.6300000000
 Au         4.7430000000        7.1920000000       30.3600000000
 Au         3.2650000000        8.6700000000       32.4500000000
 Au         4.7430000000        7.1920000000       34.5400000000
 Au         3.2650000000        8.6700000000       36.6300000000
 Au         7.6990000000        7.1920000000       30.3600000000
 Au         6.2210000000        8.6700000000       32.4500000000
 Au         7.6990000000        7.1920000000       34.5400000000
 Au         6.2210000000        8.6700000000       36.6300000000
     113
 i =        2, E =     -3690.6219816695
 Au         1.7870000000        1.2810000000        0.0000000000
 Au         0.3090000000        2.7590000000        2.0900000000
 Au         1.7870000000        1.2810000000        4.1800000000
 Au         0.3090000000        2.7590000000        6.2700000000
 Au         4.7430000000        1.2810000000        0.0000000000
 Au         3.2650000000        2.7590000000        2.0900000000
 Au         4.7430000000        1.2810000000        4.1800000000
 Au         3.2650000000        2.7590000000        6.2700000000
 Au         7.6990000000        1.2810000000        0.0000000000
 Au         6.2210000000        2.7590000000        2.0900000000
 Au         7.6990000000        1.2810000000        4.1800000000
 Au         6.2210000000        2.7590000000        6.2700000000
 Au         1.7870000000        4.2360000000        0.0000000000
 Au         0.3090000000        5.7140000000        2.0900000000
 Au         1.7870000000        4.2360000000        4.1800000000
 Au         0.3090000000        5.7140000000        6.2700000000
 Au         4.7430000000        4.2360000000        0.0000000000
 Au         3.2650000000        5.7140000000        2.0900000000
 Au         4.7430000000        4.2360000000        4.1800000000
 Au         3.2650000000        5.7140000000        6.2700000000
 Au         7.6990000000        4.2360000000        0.0000000000
 Au         6.2210000000        5.7140000000        2.0900000000
 Au         7.6990000000        4.2360000000        4.1800000000
 Au         6.2210000000        5.7140000000        6.2700000000
 Au         1.7870000000        7.1920000000        0.0000000000
 Au         0.3090000000        8.6700000000        2.0900000000
 Au         1.7870000000        7.1920000000        4.1800000000
 Au         0.3090000000        8.6700000000        6.2700000000
 Au         4.7430000000        7.1920000000        0.0000000000
 Au         3.2650000000        8.6700000000        2.0900000000
 Au         4.7430000000        7.1920000000        4.1800000000
 Au         3.2650000000        8.6700000000        6.2700000000
 Au         7.6990000000        7.1920000000        0.0000000000
 Au         6.2210000000        8.6700000000        2.0900000000
 Au         7.6990000000        7.1920000000        4.1800000000
 Au         6.2210000000        8.6700000000        6.2700000000
 Au         1.7870000000        1.2810000000        8.3600000000
 Au         1.7870000000        4.2360000000        8.3600000000
 Au         1.7870000000        7.1920000000        8.3600000000
 Au         4.7430000000        1.2810000000        8.3600000000
 Au         4.7430000000        4.2360000000        8.3600000000
 Au         4.7430000000        7.1920000000        8.3600000000
 Au         7.6990000000        1.2810000000        8.3600000000
 Au         7.6990000000        4.2360000000        8.3600000000
 Au         7.6990000000        7.1920000000        8.3600000000
 Au         0.3090000000        2.7590000000       10.4500000000
 Au         0.3090000000        5.7140000000       10.4500000000
 Au         0.3090000000        8.6700000000       10.4500000000
 Au         3.2650000000        2.7590000000       10.4500000000
 Au         3.2650000000        5.7140000000       10.4500000000
 Au         3.2650000000        8.6700000000       10.4500000000
 Au         6.2210000000        2.7590000000       10.4500000000
 Au         6.2210000000        5.7140000000       10.4500000000
 Au         6.2210000000        8.6700000000       10.4500000000
 Au         1.7670000000        4.2150000000       12.4460000000
 Au         1.7660000000        7.2140000000       12.4460000000
 Au         4.7650000000        4.2130000000       12.4460000000
 Au         4.7670000000        7.2140000000       12.4450000000
 Au         3.2637362883        5.7119707594       14.4243428597
 Au         3.5005923531        5.9399700230       17.1372158727
  H         3.2088408730        5.6594031455       18.9210284645
  H         3.3167705788        5.7635315823       19.7979708291
 Au         3.0547731971        5.5107032260       21.5820057222
 Au         3.2507743382        5.7002664726       24.2569799942
 Au         1.7650000000        4.2130000000       26.2750000000
 Au         1.7650000000        7.2140000000       26.2740000000
 Au         4.7650000000        4.2140000000       26.2740000000
 Au         4.7650000000        7.2140000000       26.2750000000
 Au         0.3090000000        2.7590000000       28.2700000000
 Au         0.3090000000        5.7140000000       28.2700000000
 Au         0.3090000000        8.6700000000       28.2700000000
 Au         3.2650000000        2.7590000000       28.2700000000
 Au         3.2650000000        5.7140000000       28.2700000000
 Au         3.2650000000        8.6700000000       28.2700000000
 Au         6.2210000000        2.7590000000       28.2700000000
 Au         6.2210000000        5.7140000000       28.2700000000
 Au         6.2210000000        8.6700000000       28.2700000000
 Au         1.7870000000        1.2810000000       30.3600000000
 Au         0.3090000000        2.7590000000       32.4500000000
 Au         1.7870000000        1.2810000000       34.5400000000
 Au         0.3090000000        2.7590000000       36.6300000000
 Au         4.7430000000        1.2810000000       30.3600000000
 Au         3.2650000000        2.7590000000       32.4500000000
 Au         4.7430000000        1.2810000000       34.5400000000
 Au         3.2650000000        2.7590000000       36.6300000000
 Au         7.6990000000        1.2810000000       30.3600000000
 Au         6.2210000000        2.7590000000       32.4500000000
 Au         7.6990000000        1.2810000000       34.5400000000
 Au         6.2210000000        2.7590000000       36.6300000000
 Au         1.7870000000        4.2360000000       30.3600000000
 Au         0.3090000000        5.7140000000       32.4500000000
 Au         1.7870000000        4.2360000000       34.5400000000
 Au         0.3090000000        5.7140000000       36.6300000000
 Au         4.7430000000        4.2360000000       30.3600000000
 Au         3.2650000000        5.7140000000       32.4500000000
 Au         4.7430000000        4.2360000000       34.5400000000
 Au         3.2650000000        5.7140000000       36.6300000000
 Au         7.6990000000        4.2360000000       30.3600000000
 Au         6.2210000000        5.7140000000       32.4500000000
 Au         7.6990000000        4.2360000000       34.5400000000
 Au         6.2210000000        5.7140000000       36.6300000000
 Au         1.7870000000        7.1920000000       30.3600000000
 Au         0.3090000000        8.6700000000       32.4500000000
 Au         1.7870000000        7.1920000000       34.5400000000
 Au         0.3090000000        8.6700000000       36.6300000000
 Au         4.7430000000        7.1920000000       30.3600000000
 Au         3.2650000000        8.6700000000       32.4500000000
 Au         4.7430000000        7.1920000000       34.5400000000
 Au         3.2650000000        8.6700000000       36.6300000000
 Au         7.6990000000        7.1920000000       30.3600000000
 Au         6.2210000000        8.6700000000       32.4500000000
 Au         7.6990000000        7.1920000000       34.5400000000
 Au         6.2210000000        8.6700000000       36.6300000000
     113
 i =        3, E =     -3690.6216320992
 Au         1.7870000000        1.2810000000        0.0000000000
 Au         0.3090000000        2.7590000000        2.0900000000
 Au         1.7870000000        1.2810000000        4.1800000000
 Au         0.3090000000        2.7590000000        6.2700000000
 Au         4.7430000000        1.2810000000        0.0000000000
 Au         3.2650000000        2.7590000000        2.0900000000
 Au         4.7430000000        1.2810000000        4.1800000000
 Au         3.2650000000        2.7590000000        6.2700000000
 Au         7.6990000000        1.2810000000        0.0000000000
 Au         6.2210000000        2.7590000000        2.0900000000
 Au         7.6990000000        1.2810000000        4.1800000000
 Au         6.2210000000        2.7590000000        6.2700000000
 Au         1.7870000000        4.2360000000        0.0000000000
 Au         0.3090000000        5.7140000000        2.0900000000
 Au         1.7870000000        4.2360000000        4.1800000000
 Au         0.3090000000        5.7140000000        6.2700000000
 Au         4.7430000000        4.2360000000        0.0000000000
 Au         3.2650000000        5.7140000000        2.0900000000
 Au         4.7430000000        4.2360000000        4.1800000000
 Au         3.2650000000        5.7140000000        6.2700000000
 Au         7.6990000000        4.2360000000        0.0000000000
 Au         6.2210000000        5.7140000000        2.0900000000
 Au         7.6990000000        4.2360000000        4.1800000000
 Au         6.2210000000        5.7140000000        6.2700000000
 Au         1.7870000000        7.1920000000        0.0000000000
 Au         0.3090000000        8.6700000000        2.0900000000
 Au         1.7870000000        7.1920000000        4.1800000000
 Au         0.3090000000        8.6700000000        6.2700000000
 Au         4.7430000000        7.1920000000        0.0000000000
 Au         3.2650000000        8.6700000000        2.0900000000
 Au         4.7430000000        7.1920000000        4.1800000000
 Au         3.2650000000        8.6700000000        6.2700000000
 Au         7.6990000000        7.1920000000        0.0000000000
 Au         6.2210000000        8.6700000000        2.0900000000
 Au         7.6990000000        7.1920000000        4.1800000000
 Au         6.2210000000        8.6700000000        6.2700000000
 Au         1.7870000000        1.2810000000        8.3600000000
 Au         1.7870000000        4.2360000000        8.3600000000
 Au         1.7870000000        7.1920000000        8.3600000000
 Au         4.7430000000        1.2810000000        8.3600000000
 Au         4.7430000000        4.2360000000        8.3600000000
 Au         4.7430000000        7.1920000000        8.3600000000
 Au         7.6990000000        1.2810000000        8.3600000000
 Au         7.6990000000        4.2360000000        8.3600000000
 Au         7.6990000000        7.1920000000        8.3600000000
 Au         0.3090000000        2.7590000000       10.4500000000
 Au         0.3090000000        5.7140000000       10.4500000000
 Au         0.3090000000        8.6700000000       10.4500000000
 Au         3.2650000000        2.7590000000       10.4500000000
 Au         3.2650000000        5.7140000000       10.4500000000
 Au         3.2650000000        8.6700000000       10.4500000000
 Au         6.2210000000        2.7590000000       10.4500000000
 Au         6.2210000000        5.7140000000       10.4500000000
 Au         6.2210000000        8.6700000000       10.4500000000
 Au         1.7670000000        4.2150000000       12.4460000000
 Au         1.7660000000        7.2140000000       12.4460000000
 Au         4.7650000000        4.2130000000       12.4460000000
 Au         4.7670000000        7.2140000000       12.4450000000
 Au         3.2525396610        5.7011977173       14.4184695497
 Au         3.5135847030        5.9525087353       17.1221487786
  H         3.2106575353        5.6611247936       18.8998069666
  H         3.2985627024        5.7459581882       19.7920468948
 Au         3.0793428670        5.5344478288       21.5707878032
 Au         3.2324887897        5.6826562914       24.2558792412
 Au         1.7650000000        4.2130000000       26.2750000000
 Au         1.7650000000        7.2140000000       26.2740000000
 Au         4.7650000000        4.2140000000       26.2740000000
 Au         4.7650000000        7.2140000000       26.2750000000
 Au         0.3090000000        2.7590000000       28.2700000000
 Au         0.3090000000        5.7140000000       28.2700000000
 Au         0.3090000000        8.6700000000       28.2700000000
 Au         3.2650000000        2.7590000000       28.2700000000
 Au         3.2650000000        5.7140000000       28.2700000000
 Au         3.2650000000        8.6700000000       28.2700000000
 Au         6.2210000000        2.7590000000       28.2700000000
 Au         6.2210000000        5.7140000000       28.2700000000
 Au         6.2210000000        8.6700000000       28.2700000000
 Au         1.7870000000        1.2810000000       30.3600000000
 Au         0.3090000000        2.7590000000       32.4500000000
 Au         1.7870000000        1.2810000000       34.5400000000
 Au         0.3090000000        2.7590000000       36.6300000000
 Au         4.7430000000        1.2810000000       30.3600000000
 Au         3.2650000000        2.7590000000       32.4500000000
 Au         4.7430000000        1.2810000000       34.5400000000
 Au         3.2650000000        2.7590000000       36.6300000000
 Au         7.6990000000        1.2810000000       30.3600000000
 Au         6.2210000000        2.7590000000       32.4500000000
 Au         7.6990000000        1.2810000000       34.5400000000
 Au         6.2210000000        2.7590000000       36.6300000000
 Au         1.7870000000        4.2360000000       30.3600000000
 Au         0.3090000000        5.7140000000       32.4500000000
 Au         1.7870000000        4.2360000000       34.5400000000
 Au         0.3090000000        5.7140000000       36.6300000000
 Au         4.7430000000        4.2360000000       30.3600000000
 Au         3.2650000000        5.7140000000       32.4500000000
 Au         4.7430000000        4.2360000000       34.5400000000
 Au         3.2650000000        5.7140000000       36.6300000000
 Au         7.6990000000        4.2360000000       30.3600000000
 Au         6.2210000000        5.7140000000       32.4500000000
 Au         7.6990000000        4.2360000000       34.5400000000
 Au         6.2210000000        5.7140000000       36.6300000000
 Au         1.7870000000        7.1920000000       30.3600000000
 Au         0.3090000000        8.6700000000       32.4500000000
 Au         1.7870000000        7.1920000000       34.5400000000
 Au         0.3090000000        8.6700000000       36.6300000000
 Au         4.7430000000        7.1920000000       30.3600000000
 Au         3.2650000000        8.6700000000       32.4500000000
 Au         4.7430000000        7.1920000000       34.5400000000
 Au         3.2650000000        8.6700000000       36.6300000000
 Au         7.6990000000        7.1920000000       30.3600000000
 Au         6.2210000000        8.6700000000       32.4500000000
 Au         7.6990000000        7.1920000000       34.5400000000
 Au         6.2210000000        8.6700000000       36.6300000000
     113
 i =        4, E =     -3690.6214486843
 Au         1.7870000000        1.2810000000        0.0000000000
 Au         0.3090000000        2.7590000000        2.0900000000
 Au         1.7870000000        1.2810000000        4.1800000000
 Au         0.3090000000        2.7590000000        6.2700000000
 Au         4.7430000000        1.2810000000        0.0000000000
 Au         3.2650000000        2.7590000000        2.0900000000
 Au         4.7430000000        1.2810000000        4.1800000000
 Au         3.2650000000        2.7590000000        6.2700000000
 Au         7.6990000000        1.2810000000        0.0000000000
 Au         6.2210000000        2.7590000000        2.0900000000
 Au         7.6990000000        1.2810000000        4.1800000000
 Au         6.2210000000        2.7590000000        6.2700000000
 Au         1.7870000000        4.2360000000        0.0000000000
 Au         0.3090000000        5.7140000000        2.0900000000
 Au         1.7870000000        4.2360000000        4.1800000000
 Au         0.3090000000        5.7140000000        6.2700000000
 Au         4.7430000000        4.2360000000        0.0000000000
 Au         3.2650000000        5.7140000000        2.0900000000
 Au         4.7430000000        4.2360000000        4.1800000000
 Au         3.2650000000        5.7140000000        6.2700000000
 Au         7.6990000000        4.2360000000        0.0000000000
 Au         6.2210000000        5.7140000000        2.0900000000
 Au         7.6990000000        4.2360000000        4.1800000000
 Au         6.2210000000        5.7140000000        6.2700000000
 Au         1.7870000000        7.1920000000        0.0000000000
 Au         0.3090000000        8.6700000000        2.0900000000
 Au         1.7870000000        7.1920000000        4.1800000000
 Au         0.3090000000        8.6700000000        6.2700000000
 Au         4.7430000000        7.1920000000        0.0000000000
 Au         3.2650000000        8.6700000000        2.0900000000
 Au         4.7430000000        7.1920000000        4.1800000000
 Au         3.2650000000        8.6700000000        6.2700000000
 Au         7.6990000000        7.1920000000        0.0000000000
 Au         6.2210000000        8.6700000000        2.0900000000
 Au         7.6990000000        7.1920000000        4.1800000000
 Au         6.2210000000        8.6700000000        6.2700000000
 Au         1.7870000000        1.2810000000        8.3600000000
 Au         1.7870000000        4.2360000000        8.3600000000
 Au         1.7870000000        7.1920000000        8.3600000000
 Au         4.7430000000        1.2810000000        8.3600000000
 Au         4.7430000000        4.2360000000        8.3600000000
 Au         4.7430000000        7.1920000000        8.3600000000
 Au         7.6990000000        1.2810000000        8.3600000000
 Au         7.6990000000        4.2360000000        8.3600000000
 Au         7.6990000000        7.1920000000        8.3600000000
 Au         0.3090000000        2.7590000000       10.4500000000
 Au         0.3090000000        5.7140000000       10.4500000000
 Au         0.3090000000        8.6700000000       10.4500000000
 Au         3.2650000000        2.7590000000       10.4500000000
 Au         3.2650000000        5.7140000000       10.4500000000
 Au         3.2650000000        8.6700000000       10.4500000000
 Au         6.2210000000        2.7590000000       10.4500000000
 Au         6.2210000000        5.7140000000       10.4500000000
 Au         6.2210000000        8.6700000000       10.4500000000
 Au         1.7670000000        4.2150000000       12.4460000000
 Au         1.7660000000        7.2140000000       12.4460000000
 Au         4.7650000000        4.2130000000       12.4460000000
 Au         4.7670000000        7.2140000000       12.4450000000
 Au         3.2460686386        5.6949630293       14.4167605286
 Au         3.5237137427        5.9622788092       17.1162508675
  H         3.2125592983        5.6629346247       18.8820449708
  H         3.2855149556        5.7333614304       19.7799038033
 Au         3.0973221792        5.5518270179       21.5634922020
 Au         3.2228798482        5.6734044687       24.2569498218
 Au         1.7650000000        4.2130000000       26.2750000000
 Au         1.7650000000        7.2140000000       26.2740000000
 Au         4.7650000000        4.2140000000       26.2740000000
 Au         4.7650000000        7.2140000000       26.2750000000
 Au         0.3090000000        2.7590000000       28.2700000000
 Au         0.3090000000        5.7140000000       28.2700000000
 Au         0.3090000000        8.6700000000       28.2700000000
 Au         3.2650000000        2.7590000000       28.2700000000
 Au         3.2650000000        5.7140000000       28.2700000000
 Au         3.2650000000        8.6700000000       28.2700000000
 Au         6.2210000000        2.7590000000       28.2700000000
 Au         6.2210000000        5.7140000000       28.2700000000
 Au         6.2210000000        8.6700000000       28.2700000000
 Au         1.7870000000        1.2810000000       30.3600000000
 Au         0.3090000000        2.7590000000       32.4500000000
 Au         1.7870000000        1.2810000000       34.5400000000
 Au         0.3090000000        2.7590000000       36.6300000000
 Au         4.7430000000        1.2810000000       30.3600000000
 Au         3.2650000000        2.7590000000       32.4500000000
 Au         4.7430000000        1.2810000000       34.5400000000
 Au         3.2650000000        2.7590000000       36.6300000000
 Au         7.6990000000        1.2810000000       30.3600000000
 Au         6.2210000000        2.7590000000       32.4500000000
 Au         7.6990000000        1.2810000000       34.5400000000
 Au         6.2210000000        2.7590000000       36.6300000000
 Au         1.7870000000        4.2360000000       30.3600000000
 Au         0.3090000000        5.7140000000       32.4500000000
 Au         1.7870000000        4.2360000000       34.5400000000
 Au         0.3090000000        5.7140000000       36.6300000000
 Au         4.7430000000        4.2360000000       30.3600000000
 Au         3.2650000000        5.7140000000       32.4500000000
 Au         4.7430000000        4.2360000000       34.5400000000
 Au         3.2650000000        5.7140000000       36.6300000000
 Au         7.6990000000        4.2360000000       30.3600000000
 Au         6.2210000000        5.7140000000       32.4500000000
 Au         7.6990000000        4.2360000000       34.5400000000
 Au         6.2210000000        5.7140000000       36.6300000000
 Au         1.7870000000        7.1920000000       30.3600000000
 Au         0.3090000000        8.6700000000       32.4500000000
 Au         1.7870000000        7.1920000000       34.5400000000
 Au         0.3090000000        8.6700000000       36.6300000000
 Au         4.7430000000        7.1920000000       30.3600000000
 Au         3.2650000000        8.6700000000       32.4500000000
 Au         4.7430000000        7.1920000000       34.5400000000
 Au         3.2650000000        8.6700000000       36.6300000000
 Au         7.6990000000        7.1920000000       30.3600000000
 Au         6.2210000000        8.6700000000       32.4500000000
 Au         7.6990000000        7.1920000000       34.5400000000
 Au         6.2210000000        8.6700000000       36.6300000000
     113
 i =        5, E =     -3690.6213963983
 Au         1.7870000000        1.2810000000        0.0000000000
 Au         0.3090000000        2.7590000000        2.0900000000
 Au         1.7870000000        1.2810000000        4.1800000000
 Au         0.3090000000        2.7590000000        6.2700000000
 Au         4.7430000000        1.2810000000        0.0000000000