 DBCSR| CPU Multiplication driver                                           XSMM
 DBCSR| Multrec recursion limit                                              512
 DBCSR| Multiplication stack size                                           1000
 DBCSR| Maximum elements for images                                    UNLIMITED
 DBCSR| Multiplicative factor virtual images                                   1
 DBCSR| Use multiplication densification                                       T
 DBCSR| Multiplication size stacks                                             3
 DBCSR| Use memory pool for CPU allocation                                     F
 DBCSR| Number of 3D layers                                               SINGLE
 DBCSR| Use MPI memory allocation                                              F
 DBCSR| Use RMA algorithm                                                      F
 DBCSR| Use Communication thread                                               T
 DBCSR| Communication thread load                                             87
 DBCSR| MPI: My node id                                                        0
 DBCSR| MPI: Number of nodes                                                 240
 DBCSR| OMP: Current number of threads                                         1
 DBCSR| OMP: Max number of threads                                             1
 DBCSR| Split modifier for TAS multiplication algorithm                  1.0E+00


  **** **** ******  **  PROGRAM STARTED AT               2023-03-22 11:47:33.656
 ***** ** ***  *** **   PROGRAM STARTED ON                 cn1144.scarf.rl.ac.uk
 **    ****   ******    PROGRAM STARTED BY                             scarf1157
 ***** **    ** ** **   PROGRAM PROCESS ID                                 21583
  **** **  *******  **  PROGRAM STARTED IN /work4/scd/scarf1157/work/testing/cp2
                                           k-smeagol/bdt/cp2k/hollow-site/transp
                                           ort-cp2k/5-4/geometry-ordered/3x3-4/s
                                           z/bulk_layers-4/transmission/exp/capa
                                           citor/sergey-equal/auto/kpoints-20_te
                                           st/chris_kpoints_bulk-1-1-20_em-1-1-1
                                           _hlb-auto2

 CP2K| version string:                 CP2K version 2022.1 (Development Version)
 CP2K| source code revision number:                                  git:c53e391
 CP2K| cp2kflags: omp fftw3 libxc parallel mpi3 scalapack xsmm spglib           
 CP2K| is freely available from                            https://www.cp2k.org/
 CP2K| Program compiled at                          Thu  9 Mar 18:17:55 GMT 2023
 CP2K| Program compiled on                                 cn1108.scarf.rl.ac.uk
 CP2K| Program compiled for                                                local
 CP2K| Data directory path    /home/vol07/scarf1157/code/smeagol/cp2k-smeagol/sc
 CP2K| Input file name                                                   4_V.inp

 GLOBAL| Force Environment number                                              1
 GLOBAL| Basis set file name                                        BASIS_MOLOPT
 GLOBAL| Potential file name                                      GTH_POTENTIALS
 GLOBAL| MM Potential file name                                     MM_POTENTIAL
 GLOBAL| Coordinate file name                                             em.xyz
 GLOBAL| Method name                                                        CP2K
 GLOBAL| Project name                                                          V
 GLOBAL| Run type                                                         ENERGY
 GLOBAL| FFT library                                                       FFTW3
 GLOBAL| Diagonalization library                                       ScaLAPACK
 GLOBAL| Orthonormality check for eigenvectors                          DISABLED
 GLOBAL| Matrix multiplication library                                 ScaLAPACK
 GLOBAL| All-to-all communication in single precision                          F
 GLOBAL| FFTs using library dependent lengths                                  T
 GLOBAL| Grid backend                                                       AUTO
 GLOBAL| Global print level                                               MEDIUM
 GLOBAL| MPI I/O enabled                                                       T
 GLOBAL| Total number of message passing processes                           240
 GLOBAL| Number of threads for this process                                    1
 GLOBAL| This output is from process                                           0
 GLOBAL| Stack size for threads created by OpenMP (OMP_STACKSIZE)        default
 GLOBAL| CPU model name                         AMD EPYC 7502P 32-Core Processor
 GLOBAL| CPUID                                                              1002

 MEMORY| system memory details [Kb]
 MEMORY|                        rank 0           min           max       average
 MEMORY| MemTotal            263896984     263896980     263896984     263896983
 MEMORY| MemFree             170877504     111236788     246569640     198219243
 MEMORY| Buffers                  2568          2424          2568          2547
 MEMORY| Cached               73684212       1995468     136534100      49579933
 MEMORY| Slab                  1380288        798892       1504484       1171832
 MEMORY| SReclaimable           843148        354492        967684        664649
 MEMORY| MemLikelyFree       245407432     245407432     249047012     248466372


 *** Fundamental physical constants (SI units) ***

 *** Literature: B. J. Mohr and B. N. Taylor,
 ***             CODATA recommended values of the fundamental physical
 ***             constants: 2006, Web Version 5.1
 ***             http://physics.nist.gov/constants

 Speed of light in vacuum [m/s]                             2.99792458000000E+08
 Magnetic constant or permeability of vacuum [N/A**2]       1.25663706143592E-06
 Electric constant or permittivity of vacuum [F/m]          8.85418781762039E-12
 Planck constant (h) [J*s]                                  6.62606896000000E-34
 Planck constant (h-bar) [J*s]                              1.05457162825177E-34
 Elementary charge [C]                                      1.60217648700000E-19
 Electron mass [kg]                                         9.10938215000000E-31
 Electron g factor [ ]                                     -2.00231930436220E+00
 Proton mass [kg]                                           1.67262163700000E-27
 Fine-structure constant                                    7.29735253760000E-03
 Rydberg constant [1/m]                                     1.09737315685270E+07
 Avogadro constant [1/mol]                                  6.02214179000000E+23
 Boltzmann constant [J/K]                                   1.38065040000000E-23
 Atomic mass unit [kg]                                      1.66053878200000E-27
 Bohr radius [m]                                            5.29177208590000E-11

 *** Conversion factors ***

 [u] -> [a.u.]                                              1.82288848426455E+03
 [Angstrom] -> [Bohr] = [a.u.]                              1.88972613288564E+00
 [a.u.] = [Bohr] -> [Angstrom]                              5.29177208590000E-01
 [a.u.] -> [s]                                              2.41888432650478E-17
 [a.u.] -> [fs]                                             2.41888432650478E-02
 [a.u.] -> [J]                                              4.35974393937059E-18
 [a.u.] -> [N]                                              8.23872205491840E-08
 [a.u.] -> [K]                                              3.15774647902944E+05
 [a.u.] -> [kJ/mol]                                         2.62549961709828E+03
 [a.u.] -> [kcal/mol]                                       6.27509468713739E+02
 [a.u.] -> [Pa]                                             2.94210107994716E+13
 [a.u.] -> [bar]                                            2.94210107994716E+08
 [a.u.] -> [atm]                                            2.90362800883016E+08
 [a.u.] -> [eV]                                             2.72113838565563E+01
 [a.u.] -> [Hz]                                             6.57968392072181E+15
 [a.u.] -> [1/cm] (wave numbers)                            2.19474631370540E+05
 [a.u./Bohr**2] -> [1/cm]                                   5.14048714338585E+03
 

 CELL_TOP| Volume [angstrom^3]:                                      2357.480286
 CELL_TOP| Vector a [angstrom     8.336     0.000     0.000   |a| =     8.336000
 CELL_TOP| Vector b [angstrom     0.000     8.336     0.000   |b| =     8.336000
 CELL_TOP| Vector c [angstrom     0.000     0.000    33.926   |c| =    33.926000
 CELL_TOP| Angle (b,c), alpha [degree]:                                90.000000
 CELL_TOP| Angle (a,c), beta  [degree]:                                90.000000
 CELL_TOP| Angle (a,b), gamma [degree]:                                90.000000
 CELL_TOP| Numerically orthorhombic:                                         YES
 CELL_TOP| Periodicity                                                       XYZ

 GENERATE|  Preliminary Number of Bonds generated:                             0
 GENERATE|  Achieved consistency in connectivity generation.

 CELL| Volume [angstrom^3]:                                          2357.480286
 CELL| Vector a [angstrom]:       8.336     0.000     0.000   |a| =     8.336000
 CELL| Vector b [angstrom]:       0.000     8.336     0.000   |b| =     8.336000
 CELL| Vector c [angstrom]:       0.000     0.000    33.926   |c| =    33.926000
 CELL| Angle (b,c), alpha [degree]:                                    90.000000
 CELL| Angle (a,c), beta  [degree]:                                    90.000000
 CELL| Angle (a,b), gamma [degree]:                                    90.000000
 CELL| Numerically orthorhombic:                                             YES
 CELL| Periodicity                                                           XYZ

 CELL_REF| Volume [angstrom^3]:                                      2357.480286
 CELL_REF| Vector a [angstrom     8.336     0.000     0.000   |a| =     8.336000
 CELL_REF| Vector b [angstrom     0.000     8.336     0.000   |b| =     8.336000
 CELL_REF| Vector c [angstrom     0.000     0.000    33.926   |c| =    33.926000
 CELL_REF| Angle (b,c), alpha [degree]:                                90.000000
 CELL_REF| Angle (a,c), beta  [degree]:                                90.000000
 CELL_REF| Angle (a,b), gamma [degree]:                                90.000000
 CELL_REF| Numerically orthorhombic:                                         YES
 CELL_REF| Periodicity                                                       XYZ

 *******************************************************************************
                                    Kpoints
 *******************************************************************************
 BRILLOUIN| K-point scheme                                        Monkhorst-Pack
 BRILLOUIN| K-Point grid                                             1    1    1
 BRILLOUIN| Accuracy in Symmetry determination                      0.100000E-07
 BRILLOUIN| K-Point point group symmetrization                               OFF
 BRILLOUIN| Wavefunction type                                            COMPLEX
 BRILLOUIN| Use full k-point grid     
 BRILLOUIN| List of Kpoints [2 Pi/Bohr]                                        1
 BRILLOUIN| Number           Weight            X              Y              Z
 BRILLOUIN|     1           1.00000        0.00000        0.00000        0.00000
 *******************************************************************************

 *******************************************************************************
 *******************************************************************************
 **                                                                           **
 **     #####                         ##              ##                      **
 **    ##   ##            ##          ##              ##                      **
 **   ##     ##                       ##            ######                    **
 **   ##     ##  ##   ##  ##   #####  ##  ##   ####   ##    #####    #####    **
 **   ##     ##  ##   ##  ##  ##      ## ##   ##      ##   ##   ##  ##   ##   **
 **   ##  ## ##  ##   ##  ##  ##      ####     ###    ##   ######   ######    **
 **    ##  ###   ##   ##  ##  ##      ## ##      ##   ##   ##       ##        **
 **     #######   #####   ##   #####  ##  ##  ####    ##    #####   ##        **
 **           ##                                                    ##        **
 **                                                                           **
 **                                                ... make the atoms dance   **
 **                                                                           **
 **            Copyright (C) by CP2K developers group (2000-2022)             **
 **                      J. Chem. Phys. 152, 194103 (2020)                    **
 **                                                                           **
 *******************************************************************************

 DFT| Spin restricted Kohn-Sham (RKS) calculation                            RKS
 DFT| Multiplicity                                                             1
 DFT| Number of spin states                                                    1
 DFT| Charge                                                                   0
 DFT| Self-interaction correction (SIC)                                       NO
 DFT| Cutoffs: density                                              1.000000E-10
 DFT|          gradient                                             1.000000E-10
 DFT|          tau                                                  1.000000E-10
 DFT|          cutoff_smoothing_range                               0.000000E+00
 DFT| XC density smoothing                                                  NONE
 DFT| XC derivatives                                                          PW

 FUNCTIONAL| PADE:
 FUNCTIONAL| S. Goedecker, M. Teter and J. Hutter, Phys. Rev. B 54, 1703 (1996) 


 QS| Method:                                                                 GPW
 QS| Density plane wave grid type                        NON-SPHERICAL FULLSPACE
 QS| Number of grid levels:                                                    4
 QS| Density cutoff [a.u.]:                                                200.0
 QS| Multi grid cutoff [a.u.]: 1) grid level                               200.0
 QS|                           2) grid level                                66.7
 QS|                           3) grid level                                22.2
 QS|                           4) grid level                                 7.4
 QS| Grid level progression factor:                                          3.0
 QS| Relative density cutoff [a.u.]:                                        20.0
 QS| Interaction thresholds: eps_pgf_orb:                                1.0E-05
 QS|                         eps_filter_matrix:                          0.0E+00
 QS|                         eps_core_charge:                            1.0E-12
 QS|                         eps_rho_gspace:                             1.0E-10
 QS|                         eps_rho_rspace:                             1.0E-10
 QS|                         eps_gvg_rspace:                             1.0E-05
 QS|                         eps_ppl:                                    1.0E-02
 QS|                         eps_ppnl:                                   1.0E-07


 ATOMIC KIND INFORMATION

  1. Atomic kind: Au                                    Number of atoms:      96

     Orbital Basis Set                                         SZV-MOLOPT-SR-GTH

       Number of orbital shell sets:                                           1
       Number of orbital shells:                                               3
       Number of primitive Cartesian functions:                                5
       Number of Cartesian basis functions:                                   10
       Number of spherical basis functions:                                    9
       Norm type:                                                              2

       Normalised Cartesian orbitals:

                        Set   Shell   Orbital            Exponent    Coefficient

                          1       1    2s                2.950008       0.074626
                                                         1.563057      -0.007898
                                                         0.666664      -0.297688
                                                         0.251083       0.136809
                                                         0.081714       0.088198

                          1       2    3px               2.950008       0.148824
                                                         1.563057       0.025430
                                                         0.666664      -0.123003
                                                         0.251083       0.033648
                                                         0.081714       0.059008
                          1       2    3py               2.950008       0.148824
                                                         1.563057       0.025430
                                                         0.666664      -0.123003
                                                         0.251083       0.033648
                                                         0.081714       0.059008
                          1       2    3pz               2.950008       0.148824
                                                         1.563057       0.025430
                                                         0.666664      -0.123003
                                                         0.251083       0.033648
                                                         0.081714       0.059008

                          1       3    4dx2              2.950008      -0.139595
                                                         1.563057       1.319655
                                                         0.666664       0.377081
                                                         0.251083       0.046872
                                                         0.081714       0.001393
                          1       3    4dxy              2.950008      -0.241786
                                                         1.563057       2.285709
                                                         0.666664       0.653124
                                                         0.251083       0.081185
                                                         0.081714       0.002412
                          1       3    4dxz              2.950008      -0.241786
                                                         1.563057       2.285709
                                                         0.666664       0.653124
                                                         0.251083       0.081185
                                                         0.081714       0.002412
                          1       3    4dy2              2.950008      -0.139595
                                                         1.563057       1.319655
                                                         0.666664       0.377081
                                                         0.251083       0.046872
                                                         0.081714       0.001393
                          1       3    4dyz              2.950008      -0.241786
                                                         1.563057       2.285709
                                                         0.666664       0.653124
                                                         0.251083       0.081185
                                                         0.081714       0.002412
                          1       3    4dz2              2.950008      -0.139595
                                                         1.563057       1.319655
                                                         0.666664       0.377081
                                                         0.251083       0.046872
                                                         0.081714       0.001393

       Atomic covalent radius [Angstrom]:                                  1.340

       Atomic van der Waals radius [Angstrom]:                             1.660

     GTH Potential information for                                  GTH-PADE-q11

       Description:                       Goedecker-Teter-Hutter pseudopotential
                                           Goedecker et al., PRB 54, 1703 (1996)
                                          Hartwigsen et al., PRB 58, 3641 (1998)
                                                      Krack, TCA 114, 145 (2005)

       Gaussian exponent of the core charge distribution:               1.436369
       Electronic configuration (s p d ...):                           1   0  10

       Parameters of the local part of the GTH pseudopotential:

                          rloc        C1          C2          C3          C4
                        0.590000   11.604428

       Parameters of the non-local part of the GTH pseudopotential:

                   l      r(l)      h(i,j,l)

                   0    0.521180    2.538614   -1.046137
                                   -1.046137    2.701113
                   1    0.630613    0.394853   -0.869592
                                   -0.869592    2.057831
                   2    0.440706   -4.719070    0.727771
                                    0.727771   -1.650429


 MOLECULE KIND INFORMATION


 All atoms are their own molecule, skipping detailed information


 TOTAL NUMBERS AND MAXIMUM NUMBERS

  Total number of            - Atomic kinds:                                   1
                             - Atoms:                                         96
                             - Shell sets:                                    96
                             - Shells:                                       288
                             - Primitive Cartesian functions:                480
                             - Cartesian basis functions:                    960
                             - Spherical basis functions:                    864

  Maximum angular momentum of- Orbital basis functions:                        2
                             - Local part of the GTH pseudopotential:          0
                             - Non-local part of the GTH pseudopotential:      4


 MODULE QUICKSTEP: ATOMIC COORDINATES IN ANGSTROM

   Atom Kind Element         X             Y             Z       Z(eff)     Mass
      1    1 Au   79      0.000000      0.000000      0.000000  11.0000 196.9666
      2    1 Au   79      0.000000      4.168000      0.000000  11.0000 196.9666
      3    1 Au   79      2.084000      2.084000      0.000000  11.0000 196.9666
      4    1 Au   79      2.084000      6.252000      0.000000  11.0000 196.9666
      5    1 Au   79      4.168000      0.000000      0.000000  11.0000 196.9666
      6    1 Au   79      4.168000      4.168000      0.000000  11.0000 196.9666
      7    1 Au   79      6.252000      2.084000      0.000000  11.0000 196.9666
      8    1 Au   79      6.252000      6.252000      0.000000  11.0000 196.9666
      9    1 Au   79      0.000000      2.084000      2.084000  11.0000 196.9666
     10    1 Au   79      0.000000      6.252000      2.084000  11.0000 196.9666
     11    1 Au   79      2.084000      0.000000      2.084000  11.0000 196.9666
     12    1 Au   79      2.084000      4.168000      2.084000  11.0000 196.9666
     13    1 Au   79      4.168000      2.084000      2.084000  11.0000 196.9666
     14    1 Au   79      4.168000      6.252000      2.084000  11.0000 196.9666
     15    1 Au   79      6.252000      0.000000      2.084000  11.0000 196.9666
     16    1 Au   79      6.252000      4.168000      2.084000  11.0000 196.9666
     17    1 Au   79      0.000000      0.000000      4.168000  11.0000 196.9666
     18    1 Au   79      0.000000      4.168000      4.168000  11.0000 196.9666
     19    1 Au   79      2.084000      2.084000      4.168000  11.0000 196.9666
     20    1 Au   79      2.084000      6.252000      4.168000  11.0000 196.9666
     21    1 Au   79      4.168000      0.000000      4.168000  11.0000 196.9666
     22    1 Au   79      4.168000      4.168000      4.168000  11.0000 196.9666
     23    1 Au   79      6.252000      2.084000      4.168000  11.0000 196.9666
     24    1 Au   79      6.252000      6.252000      4.168000  11.0000 196.9666
     25    1 Au   79      0.000000      2.084000      6.252000  11.0000 196.9666
     26    1 Au   79      0.000000      6.252000      6.252000  11.0000 196.9666
     27    1 Au   79      2.084000      0.000000      6.252000  11.0000 196.9666
     28    1 Au   79      2.084000      4.168000      6.252000  11.0000 196.9666
     29    1 Au   79      4.168000      2.084000      6.252000  11.0000 196.9666
     30    1 Au   79      4.168000      6.252000      6.252000  11.0000 196.9666
     31    1 Au   79      6.252000      0.000000      6.252000  11.0000 196.9666
     32    1 Au   79      6.252000      4.168000      6.252000  11.0000 196.9666
     33    1 Au   79      0.000000      0.000000      8.336000  11.0000 196.9666
     34    1 Au   79      0.000000      4.168000      8.336000  11.0000 196.9666
     35    1 Au   79      2.084000      2.084000      8.336000  11.0000 196.9666
     36    1 Au   79      2.084000      6.252000      8.336000  11.0000 196.9666
     37    1 Au   79      4.168000      0.000000      8.336000  11.0000 196.9666
     38    1 Au   79      4.168000      4.168000      8.336000  11.0000 196.9666
     39    1 Au   79      6.252000      2.084000      8.336000  11.0000 196.9666
     40    1 Au   79      6.252000      6.252000      8.336000  11.0000 196.9666
     41    1 Au   79      0.000000      2.084000     10.420000  11.0000 196.9666
     42    1 Au   79      0.000000      6.252000     10.420000  11.0000 196.9666
     43    1 Au   79      2.084000      0.000000     10.420000  11.0000 196.9666
     44    1 Au   79      2.084000      4.168000     10.420000  11.0000 196.9666
     45    1 Au   79      4.168000      2.084000     10.420000  11.0000 196.9666
     46    1 Au   79      4.168000      6.252000     10.420000  11.0000 196.9666
     47    1 Au   79      6.252000      0.000000     10.420000  11.0000 196.9666
     48    1 Au   79      6.252000      4.168000     10.420000  11.0000 196.9666
     49    1 Au   79      0.000000      0.000000     21.422000  11.0000 196.9666
     50    1 Au   79      0.000000      4.168000     21.422000  11.0000 196.9666
     51    1 Au   79      2.084000      2.084000     21.422000  11.0000 196.9666
     52    1 Au   79      2.084000      6.252000     21.422000  11.0000 196.9666
     53    1 Au   79      4.168000      0.000000     21.422000  11.0000 196.9666
     54    1 Au   79      4.168000      4.168000     21.422000  11.0000 196.9666
     55    1 Au   79      6.252000      2.084000     21.422000  11.0000 196.9666
     56    1 Au   79      6.252000      6.252000     21.422000  11.0000 196.9666
     57    1 Au   79      0.000000      2.084000     23.506000  11.0000 196.9666
     58    1 Au   79      0.000000      6.252000     23.506000  11.0000 196.9666
     59    1 Au   79      2.084000      0.000000     23.506000  11.0000 196.9666
     60    1 Au   79      2.084000      4.168000     23.506000  11.0000 196.9666
     61    1 Au   79      4.168000      2.084000     23.506000  11.0000 196.9666
     62    1 Au   79      4.168000      6.252000     23.506000  11.0000 196.9666
     63    1 Au   79      6.252000      0.000000     23.506000  11.0000 196.9666
     64    1 Au   79      6.252000      4.168000     23.506000  11.0000 196.9666
     65    1 Au   79      0.000000      0.000000     25.590000  11.0000 196.9666
     66    1 Au   79      0.000000      4.168000     25.590000  11.0000 196.9666
     67    1 Au   79      2.084000      2.084000     25.590000  11.0000 196.9666
     68    1 Au   79      2.084000      6.252000     25.590000  11.0000 196.9666
     69    1 Au   79      4.168000      0.000000     25.590000  11.0000 196.9666
     70    1 Au   79      4.168000      4.168000     25.590000  11.0000 196.9666
     71    1 Au   79      6.252000      2.084000     25.590000  11.0000 196.9666
     72    1 Au   79      6.252000      6.252000     25.590000  11.0000 196.9666
     73    1 Au   79      0.000000      2.084000     27.674000  11.0000 196.9666
     74    1 Au   79      0.000000      6.252000     27.674000  11.0000 196.9666
     75    1 Au   79      2.084000      0.000000     27.674000  11.0000 196.9666
     76    1 Au   79      2.084000      4.168000     27.674000  11.0000 196.9666
     77    1 Au   79      4.168000      2.084000     27.674000  11.0000 196.9666
     78    1 Au   79      4.168000      6.252000     27.674000  11.0000 196.9666
     79    1 Au   79      6.252000      0.000000     27.674000  11.0000 196.9666
     80    1 Au   79      6.252000      4.168000     27.674000  11.0000 196.9666
     81    1 Au   79      0.000000      0.000000     29.758000  11.0000 196.9666
     82    1 Au   79      0.000000      4.168000     29.758000  11.0000 196.9666
     83    1 Au   79      2.084000      2.084000     29.758000  11.0000 196.9666
     84    1 Au   79      2.084000      6.252000     29.758000  11.0000 196.9666
     85    1 Au   79      4.168000      0.000000     29.758000  11.0000 196.9666
     86    1 Au   79      4.168000      4.168000     29.758000  11.0000 196.9666
     87    1 Au   79      6.252000      2.084000     29.758000  11.0000 196.9666
     88    1 Au   79      6.252000      6.252000     29.758000  11.0000 196.9666
     89    1 Au   79      0.000000      2.084000     31.842000  11.0000 196.9666
     90    1 Au   79      0.000000      6.252000     31.842000  11.0000 196.9666
     91    1 Au   79      2.084000      0.000000     31.842000  11.0000 196.9666
     92    1 Au   79      2.084000      4.168000     31.842000  11.0000 196.9666
     93    1 Au   79      4.168000      2.084000     31.842000  11.0000 196.9666
     94    1 Au   79      4.168000      6.252000     31.842000  11.0000 196.9666
     95    1 Au   79      6.252000      0.000000     31.842000  11.0000 196.9666
     96    1 Au   79      6.252000      4.168000     31.842000  11.0000 196.9666



 SCF PARAMETERS         Density guess:                                   RESTART
                        --------------------------------------------------------
                        max_scf:                                             500
                        max_scf_history:                                       0
                        max_diis:                                              4
                        --------------------------------------------------------
                        eps_scf:                                        1.00E-07
                        eps_scf_history:                                0.00E+00
                        eps_diis:                                       1.00E-01
                        eps_eigval:                                     1.00E-05
                        --------------------------------------------------------
                        level_shift [a.u.]:                             0.000000
                        added MOs                                       100    0
                        --------------------------------------------------------
                        Mixing method:                            BROYDEN_MIXING
                                                charge density mixing in g-space
                        --------------------------------------------------------
                        Smear method:                                FERMI_DIRAC
                        Electronic temperature [K]:                        293.0
                        Electronic temperature [a.u.]:                  9.28E-04
                        Accuracy threshold:                             1.00E-10
                        --------------------------------------------------------
                        No outer SCF

 PW_GRID| Information for grid number                                          1
 PW_GRID| Grid distributed over                                   240 processors
 PW_GRID| Real space group dimensions                                    12   20
 PW_GRID| the grid is blocked:                                               YES
 PW_GRID| Cutoff [a.u.]                                                    200.0
 PW_GRID| spherical cutoff:                                                   NO
 PW_GRID|   Bounds   1            -52      52                Points:         105
 PW_GRID|   Bounds   2            -52      52                Points:         105
 PW_GRID|   Bounds   3           -210     209                Points:         420
 PW_GRID| Volume element (a.u.^3)  0.3436E-02     Volume (a.u.^3)     15909.0657
 PW_GRID| Grid span                                                    FULLSPACE
 PW_GRID|   Distribution                         Average         Max         Min
 PW_GRID|   G-Vectors                            19293.8       19845       17640
 PW_GRID|   G-Rays                                 183.8         189         168
 PW_GRID|   Real Space Points                    19293.8       19845       17640

 PW_GRID| Information for grid number                                          2
 PW_GRID| Number of the reference grid                                         1
 PW_GRID| Grid distributed over                                   240 processors
 PW_GRID| Real space group dimensions                                    12   20
 PW_GRID| the grid is blocked:                                                NO
 PW_GRID| Cutoff [a.u.]                                                     66.7
 PW_GRID| spherical cutoff:                                                   NO
 PW_GRID|   Bounds   1            -30      29                Points:          60
 PW_GRID|   Bounds   2            -30      29                Points:          60
 PW_GRID|   Bounds   3           -120     119                Points:         240
 PW_GRID| Volume element (a.u.^3)  0.1841E-01     Volume (a.u.^3)     15909.0657
 PW_GRID| Grid span                                                    FULLSPACE
 PW_GRID|   Distribution                         Average         Max         Min
 PW_GRID|   G-Vectors                             3600.0       11340           0
 PW_GRID|   G-Rays                                  60.0         189           0
 PW_GRID|   Real Space Points                     3600.0        3600        3600

 PW_GRID| Information for grid number                                          3
 PW_GRID| Number of the reference grid                                         1
 PW_GRID| Grid distributed over                                   240 processors
 PW_GRID| Real space group dimensions                                    12   20
 PW_GRID| the grid is blocked:                                                NO
 PW_GRID| Cutoff [a.u.]                                                     22.2
 PW_GRID| spherical cutoff:                                                   NO
 PW_GRID|   Bounds   1            -16      16                Points:          33
 PW_GRID|   Bounds   2            -16      16                Points:          33
 PW_GRID|   Bounds   3            -70      69                Points:         140
 PW_GRID| Volume element (a.u.^3)  0.1043         Volume (a.u.^3)     15909.0657
 PW_GRID| Grid span                                                    FULLSPACE
 PW_GRID|   Distribution                         Average         Max         Min
 PW_GRID|   G-Vectors                              635.2        6237           0
 PW_GRID|   G-Rays                                  19.2         189           0
 PW_GRID|   Real Space Points                      635.2         840         280

 PW_GRID| Information for grid number                                          4
 PW_GRID| Number of the reference grid                                         1
 PW_GRID| Grid distributed over                                   240 processors
 PW_GRID| Real space group dimensions                                    12   20
 PW_GRID| the grid is blocked:                                                NO
 PW_GRID| Cutoff [a.u.]                                                      7.4
 PW_GRID| spherical cutoff:                                                   NO
 PW_GRID|   Bounds   1            -10       9                Points:          20
 PW_GRID|   Bounds   2            -10       9                Points:          20
 PW_GRID|   Bounds   3            -40      39                Points:          80
 PW_GRID| Volume element (a.u.^3)  0.4972         Volume (a.u.^3)     15909.0657
 PW_GRID| Grid span                                                    FULLSPACE
 PW_GRID|   Distribution                         Average         Max         Min
 PW_GRID|   G-Vectors                              133.3        3780           0
 PW_GRID|   G-Rays                                   6.7         189           0
 PW_GRID|   Real Space Points                      133.3         160          80

 POISSON| Solver                                                        PERIODIC
 POISSON| Periodicity                                                        XYZ

 RS_GRID| Information for grid number                                          1
 RS_GRID|   Bounds   1            -52      52                Points:         105
 RS_GRID|   Bounds   2            -52      52                Points:         105
 RS_GRID|   Bounds   3           -210     209                Points:         420
 RS_GRID| Real space distribution over                                  8 groups
 RS_GRID| Real space distribution along direction                              2
 RS_GRID| Border size                                                         30
 RS_GRID| Real space distribution over                                 30 groups
 RS_GRID| Real space distribution along direction                              3
 RS_GRID| Border size                                                         30
 RS_GRID|   Distribution                         Average         Max         Min
 RS_GRID|   Planes                                  73.1          74          73
 RS_GRID|   Distribution                         Average         Max         Min
 RS_GRID|   Planes                                  74.0          74          74

 RS_GRID| Information for grid number                                          2
 RS_GRID|   Bounds   1            -30      29                Points:          60
 RS_GRID|   Bounds   2            -30      29                Points:          60
 RS_GRID|   Bounds   3           -120     119                Points:         240
 RS_GRID| Real space distribution over                                  8 groups
 RS_GRID| Real space distribution along direction                              2
 RS_GRID| Border size                                                         20
 RS_GRID| Real space distribution over                                 30 groups
 RS_GRID| Real space distribution along direction                              3
 RS_GRID| Border size                                                         20
 RS_GRID|   Distribution                         Average         Max         Min
 RS_GRID|   Planes                                  47.5          48          47
 RS_GRID|   Distribution                         Average         Max         Min
 RS_GRID|   Planes                                  48.0          48          48

 RS_GRID| Information for grid number                                          3
 RS_GRID|   Bounds   1            -16      16                Points:          33
 RS_GRID|   Bounds   2            -16      16                Points:          33
 RS_GRID|   Bounds   3            -70      69                Points:         140
 RS_GRID| Real space fully replicated
 RS_GRID| Group size                                                           1

 RS_GRID| Information for grid number                                          4
 RS_GRID|   Bounds   1            -10       9                Points:          20
 RS_GRID|   Bounds   2            -10       9                Points:          20
 RS_GRID|   Bounds   3            -40      39                Points:          80
 RS_GRID| Real space fully replicated
 RS_GRID| Group size                                                           1

 KPOINTS| Number of kpoint groups                                              1
 KPOINTS| Size of each kpoint group                                          240
 KPOINTS| Number of kpoints per group                                          1

 Number of electrons:                                                       1056
 Number of occupied orbitals:                                                528
 Number of molecular orbitals:                                               628

 Number of orbital functions:                                                864
 Number of independent orbital functions:                                    864

 Extrapolation method: initial_guess


 SCF WAVEFUNCTION OPTIMIZATION

  Step     Update method      Time    Convergence         Total energy    Change
  ------------------------------------------------------------------------------
 Using HartreeLeadsBottom  -11.035206681000000     
 v_hartree_z_average(0)   4.6636451418822757E-004
     1 NoMix/SMGL  0.30E+00   27.5     0.10945282     -3194.7794303156 -3.19E+03
 Using HartreeLeadsBottom  -11.035206681000000     
 v_hartree_z_average(0)   4.5222875674375262E-004
     2 Broy./SMGL  0.30E+00    9.4    10.34958786     -3194.3380278033  4.41E-01
 Using HartreeLeadsBottom  -11.035206681000000     
 v_hartree_z_average(0)   4.4536729431248970E-004
     3 Broy./SMGL  0.30E+00    9.3    10.32030081     -3352.3350329601 -1.58E+02
 Using HartreeLeadsBottom  -11.035206681000000     
 v_hartree_z_average(0)   4.7126277358301288E-004
     4 Broy./SMGL  0.30E+00    9.2     0.39333115     -3190.5728518384  1.62E+02
 Using HartreeLeadsBottom  -11.035206681000000     
 v_hartree_z_average(0)   4.4769048842708176E-004
     5 Broy./SMGL  0.30E+00    9.5     0.14178443     -3199.9078499023 -9.33E+00
 Using HartreeLeadsBottom  -11.035206681000000     
 v_hartree_z_average(0)   4.5688253041492605E-004
     6 Broy./SMGL  0.30E+00    9.3     0.09559258     -3185.0999886716  1.48E+01
 Using HartreeLeadsBottom  -11.035206681000000     
 v_hartree_z_average(0)   4.5562602054434448E-004
     7 Broy./SMGL  0.30E+00    9.5     0.02561744     -3191.1546790894 -6.05E+00
 Using HartreeLeadsBottom  -11.035206681000000     
 v_hartree_z_average(0)   4.5522753489000983E-004
     8 Broy./SMGL  0.30E+00    9.3     0.01597043     -3191.0203132855  1.34E-01
 Using HartreeLeadsBottom  -11.035206681000000     
 v_hartree_z_average(0)   4.5548676153157045E-004
     9 Broy./SMGL  0.30E+00    9.6     0.03051023     -3191.3589462958 -3.39E-01
 Using HartreeLeadsBottom  -11.035206681000000     
 v_hartree_z_average(0)   4.5627849861445366E-004
    10 Broy./SMGL  0.30E+00    9.2     0.01726679     -3191.9867677503 -6.28E-01
 Using HartreeLeadsBottom  -11.035206681000000     
 v_hartree_z_average(0)   4.5655937341611757E-004
    11 Broy./SMGL  0.30E+00    9.3     0.03134152     -3191.9928170393 -6.05E-03
 Using HartreeLeadsBottom  -11.035206681000000     
 v_hartree_z_average(0)   4.4870916985969542E-004
    12 Broy./SMGL  0.30E+00    9.3     0.07894611     -3191.5407357029  4.52E-01
 Using HartreeLeadsBottom  -11.035206681000000     
 v_hartree_z_average(0)   4.5291434854042944E-004
    13 Broy./SMGL  0.30E+00    9.7     0.16824628     -3194.2344751581 -2.69E+00
 Using HartreeLeadsBottom  -11.035206681000000     
 v_hartree_z_average(0)   4.5600004313047497E-004
    14 Broy./SMGL  0.30E+00    9.2     0.03365457     -3190.5469899346  3.69E+00
 Using HartreeLeadsBottom  -11.035206681000000     
 v_hartree_z_average(0)   4.5622954703286898E-004
    15 Broy./SMGL  0.30E+00    9.4     0.04137684     -3191.6380704638 -1.09E+00
 Using HartreeLeadsBottom  -11.035206681000000     
 v_hartree_z_average(0)   4.5494231409671599E-004
    16 Broy./SMGL  0.30E+00    9.2     0.04069968     -3192.2038892888 -5.66E-01
 Using HartreeLeadsBottom  -11.035206681000000     
 v_hartree_z_average(0)   4.5538155661826123E-004
    17 Broy./SMGL  0.30E+00    9.4     0.01153646     -3190.5384257088  1.67E+00
 Using HartreeLeadsBottom  -11.035206681000000     
 v_hartree_z_average(0)   4.5620065831083139E-004
    18 Broy./SMGL  0.30E+00    9.2     0.01912871     -3190.8390925920 -3.01E-01
 Using HartreeLeadsBottom  -11.035206681000000     
 v_hartree_z_average(0)   4.5623073979469405E-004
    19 Broy./SMGL  0.30E+00    9.2     0.00359139     -3191.9805950024 -1.14E+00
 Using HartreeLeadsBottom  -11.035206681000000     
 v_hartree_z_average(0)   4.5741425573746637E-004
    20 Broy./SMGL  0.30E+00    9.2     0.06500645     -3192.4660920600 -4.85E-01
 Using HartreeLeadsBottom  -11.035206681000000     
 v_hartree_z_average(0)   4.5785202520048208E-004
    21 Broy./SMGL  0.30E+00    9.2     0.02918608     -3193.2055120515 -7.39E-01
 Using HartreeLeadsBottom  -11.035206681000000     
 v_hartree_z_average(0)   4.6013108415200499E-004
    22 Broy./SMGL  0.30E+00    9.5     0.44282239     -3193.1107056605  9.48E-02
 Using HartreeLeadsBottom  -11.035206681000000     
 v_hartree_z_average(0)   4.5928631140445842E-004
    23 Broy./SMGL  0.30E+00    9.4     0.38638066     -3201.8310751929 -8.72E+00
 Using HartreeLeadsBottom  -11.035206681000000     
 v_hartree_z_average(0)   4.5895201654371794E-004
    24 Broy./SMGL  0.30E+00    9.2     0.07417838     -3194.3127725557  7.52E+00
 Using HartreeLeadsBottom  -11.035206681000000     
 v_hartree_z_average(0)   4.6003004921972573E-004
    25 Broy./SMGL  0.30E+00    9.1     0.17385238     -3192.5890954195  1.72E+00
 Using HartreeLeadsBottom  -11.035206681000000     
 v_hartree_z_average(0)   4.5977361783938487E-004
    26 Broy./SMGL  0.30E+00    9.4     0.14434289     -3196.1322409828 -3.54E+00
 Using HartreeLeadsBottom  -11.035206681000000     
 v_hartree_z_average(0)   4.5988870706793148E-004
    27 Broy./SMGL  0.30E+00    9.3     0.00589962     -3193.2819520262  2.85E+00
 Using HartreeLeadsBottom  -11.035206681000000     
 v_hartree_z_average(0)   4.6026499100262176E-004
    28 Broy./SMGL  0.30E+00    9.2     0.02350788     -3193.1367363876  1.45E-01
 Using HartreeLeadsBottom  -11.035206681000000     
 v_hartree_z_average(0)   4.6021326856393060E-004
    29 Broy./SMGL  0.30E+00    9.2     0.03522497     -3193.7544216391 -6.18E-01
 Using HartreeLeadsBottom  -11.035206681000000     
 v_hartree_z_average(0)   4.6211927807302970E-004
    30 Broy./SMGL  0.30E+00    9.5     0.04837048     -3192.8595209194  8.95E-01
 Using HartreeLeadsBottom  -11.035206681000000     
 v_hartree_z_average(0)   4.6212136778747914E-004
    31 Broy./SMGL  0.30E+00    9.5     0.00222206     -3194.5487885668 -1.69E+00
 Using HartreeLeadsBottom  -11.035206681000000     
 v_hartree_z_average(0)   4.6218761869326353E-004
    32 Broy./SMGL  0.30E+00    9.3     0.00381966     -3194.4593988677  8.94E-02
 Using HartreeLeadsBottom  -11.035206681000000     
 v_hartree_z_average(0)   4.6208474195992842E-004
    33 Broy./SMGL  0.30E+00    9.2     0.00210667     -3194.5453916811 -8.60E-02
 Using HartreeLeadsBottom  -11.035206681000000     
 v_hartree_z_average(0)   4.6213028418560983E-004
    34 Broy./SMGL  0.30E+00    9.2     0.00147786     -3194.4834650341  6.19E-02
 Using HartreeLeadsBottom  -11.035206681000000     
 v_hartree_z_average(0)   4.6225778115507188E-004
    35 Broy./SMGL  0.30E+00    9.1     0.01794546     -3194.5566653738 -7.32E-02
 Using HartreeLeadsBottom  -11.035206681000000     
 v_hartree_z_average(0)   4.6221798672123647E-004
    36 Broy./SMGL  0.30E+00    9.2     0.01192924     -3194.8637105421 -3.07E-01
 Using HartreeLeadsBottom  -11.035206681000000     
 v_hartree_z_average(0)   4.6226025715896663E-004
    37 Broy./SMGL  0.30E+00    9.3     0.00466096     -3194.6796219895  1.84E-01
 Using HartreeLeadsBottom  -11.035206681000000     
 v_hartree_z_average(0)   4.6226693236561773E-004
    38 Broy./SMGL  0.30E+00    9.2     0.00070056     -3194.7689707364 -8.93E-02
 Using HartreeLeadsBottom  -11.035206681000000     
 v_hartree_z_average(0)   4.6229124031576288E-004
    39 Broy./SMGL  0.30E+00    9.8     0.00055362     -3194.7609474803  8.02E-03
 Using HartreeLeadsBottom  -11.035206681000000     
 v_hartree_z_average(0)   4.6230304803615460E-004
    40 Broy./SMGL  0.30E+00    9.2     0.00006073     -3194.7732236285 -1.23E-02
 Using HartreeLeadsBottom  -11.035206681000000     
 v_hartree_z_average(0)   4.6231609417877589E-004
    41 Broy./SMGL  0.30E+00    9.1     0.00015656     -3194.7735824824 -3.59E-04
 Using HartreeLeadsBottom  -11.035206681000000     
 v_hartree_z_average(0)   4.6233099307511953E-004
    42 Broy./SMGL  0.30E+00    9.3     0.00001459     -3194.7702364180  3.35E-03
 Using HartreeLeadsBottom  -11.035206681000000     
 v_hartree_z_average(0)   4.6234500392564314E-004
    43 Broy./SMGL  0.30E+00    9.4     0.00006460     -3194.7690033584  1.23E-03
 Using HartreeLeadsBottom  -11.035206681000000     
 v_hartree_z_average(0)   4.6235251516165370E-004
    44 Broy./SMGL  0.30E+00    9.1     0.00002238     -3194.7710792391 -2.08E-03
 Using HartreeLeadsBottom  -11.035206681000000     
 v_hartree_z_average(0)   4.6235743112681122E-004
    45 Broy./SMGL  0.30E+00    9.2     0.00001295     -3194.7698373599  1.24E-03
 Using HartreeLeadsBottom  -11.035206681000000     
 v_hartree_z_average(0)   4.6236133513149975E-004
    46 Broy./SMGL  0.30E+00    9.1     0.00000814     -3194.7694834262  3.54E-04
 Using HartreeLeadsBottom  -11.035206681000000     
 v_hartree_z_average(0)   4.6236900787511469E-004
    47 Broy./SMGL  0.30E+00    9.7     0.00001129     -3194.7699261625 -4.43E-04
 Using HartreeLeadsBottom  -11.035206681000000     
 v_hartree_z_average(0)   4.6237536227888501E-004
    48 Broy./SMGL  0.30E+00    9.2     0.00000228     -3194.7694518941  4.74E-04
 Using HartreeLeadsBottom  -11.035206681000000     
 v_hartree_z_average(0)   4.6238028881877676E-004
    49 Broy./SMGL  0.30E+00    9.3     0.00000193     -3194.7694185406  3.34E-05
 Using HartreeLeadsBottom  -11.035206681000000     
 v_hartree_z_average(0)   4.6238035227781188E-004
    50 Broy./SMGL  0.30E+00    9.3     0.00000074     -3194.7693838485  3.47E-05
 Using HartreeLeadsBottom  -11.035206681000000     
 v_hartree_z_average(0)   4.6238047160929255E-004
    51 Broy./SMGL  0.30E+00    9.3     0.00000015     -3194.7693793699  4.48E-06
 Using HartreeLeadsBottom  -11.035206681000000     
 v_hartree_z_average(0)   4.6238033401234114E-004
    52 Broy./SMGL  0.30E+00    9.3     0.00000038     -3194.7693690793  1.03E-05
 Using HartreeLeadsBottom  -11.035206681000000     
 v_hartree_z_average(0)   4.6238036421816358E-004
    53 Broy./SMGL  0.30E+00    9.2     0.00000058     -3194.7693589586  1.01E-05
 Using HartreeLeadsBottom  -11.035206681000000     
 v_hartree_z_average(0)   4.6238033644255473E-004
    54 Broy./SMGL  0.30E+00    9.2     0.00000017     -3194.7693732149 -1.43E-05
 Using HartreeLeadsBottom  -11.035206681000000     
 v_hartree_z_average(0)   4.6238026863040538E-004
    55 Broy./SMGL  0.30E+00   10.0     0.00000009     -3194.7693722230  9.92E-07

  *** SCF run converged in    55 steps ***


  Electronic density on regular grids:      -1056.0391244238       -0.0391244238
  Core density on regular grids:             1055.9999998266       -0.0000001734
  Total charge density on r-space grids:       -0.0391245972
  Total charge density g-space grids:          -0.0391245972

  Overlap energy of the core charge distribution:               0.00000029240347
  Self energy of the core charge distribution:              -5553.92051058537163
  Core Hamiltonian energy:                                   1756.48720488320623
  Hartree energy:                                            1099.60820866380436
  Exchange-correlation energy:                               -496.94427547702958
  Electronic entropic energy:                                   0.00000000000000
  Fermi energy:                                                 0.00000000000000

  Total energy:                                             -3194.76937222298693

 The electron density is written in cube file format to the file:

 V-ELECTRON_DENSITY-1_0.cube

 !-----------------------------------------------------------------------------!
                     Mulliken Population Analysis

 #  Atom  Element  Kind  Atomic population                           Net charge
       1     Au       1         10.999985                              0.000015
       2     Au       1         10.999986                              0.000014
       3     Au       1         10.999986                              0.000014
       4     Au       1         10.999986                              0.000014
       5     Au       1         10.999986                              0.000014
       6     Au       1         10.999987                              0.000013
       7     Au       1         10.999986                              0.000014
       8     Au       1         10.999986                              0.000014
       9     Au       1         11.000133                             -0.000133
      10     Au       1         11.000133                             -0.000133
      11     Au       1         11.000133                             -0.000133
      12     Au       1         11.000134                             -0.000134
      13     Au       1         11.000134                             -0.000134
      14     Au       1         11.000134                             -0.000134
      15     Au       1         11.000133                             -0.000133
      16     Au       1         11.000134                             -0.000134
      17     Au       1         10.999445                              0.000555
      18     Au       1         10.999445                              0.000555
      19     Au       1         10.999445                              0.000555
      20     Au       1         10.999445                              0.000555
      21     Au       1         10.999445                              0.000555
      22     Au       1         10.999446                              0.000554
      23     Au       1         10.999445                              0.000555
      24     Au       1         10.999445                              0.000555
      25     Au       1         10.986316                              0.013684
      26     Au       1         10.986316                              0.013684
      27     Au       1         10.986316                              0.013684
      28     Au       1         10.986316                              0.013684
      29     Au       1         10.986316                              0.013684
      30     Au       1         10.986316                              0.013684
      31     Au       1         10.986316                              0.013684
      32     Au       1         10.986316                              0.013684
      33     Au       1         10.954931                              0.045069
      34     Au       1         10.954931                              0.045069
      35     Au       1         10.954931                              0.045069
      36     Au       1         10.954931                              0.045069
      37     Au       1         10.954931                              0.045069
      38     Au       1         10.954932                              0.045068
      39     Au       1         10.954931                              0.045069
      40     Au       1         10.954931                              0.045069
      41     Au       1         11.067232                             -0.067232
      42     Au       1         11.067232                             -0.067232
      43     Au       1         11.067232                             -0.067232
      44     Au       1         11.067232                             -0.067232
      45     Au       1         11.067232                             -0.067232
      46     Au       1         11.067232                             -0.067232
      47     Au       1         11.067232                             -0.067232
      48     Au       1         11.067232                             -0.067232
      49     Au       1         11.058363                             -0.058363
      50     Au       1         11.058363                             -0.058363
      51     Au       1         11.058363                             -0.058363
      52     Au       1         11.058363                             -0.058363
      53     Au       1         11.058363                             -0.058363
      54     Au       1         11.058363                             -0.058363
      55     Au       1         11.058363                             -0.058363
      56     Au       1         11.058363                             -0.058363
      57     Au       1         10.952176                              0.047824
      58     Au       1         10.952176                              0.047824
      59     Au       1         10.952176                              0.047824
      60     Au       1         10.952177                              0.047823
      61     Au       1         10.952177                              0.047823
      62     Au       1         10.952177                              0.047823
      63     Au       1         10.952176                              0.047824
      64     Au       1         10.952177                              0.047823
      65     Au       1         10.986591                              0.013409
      66     Au       1         10.986592                              0.013408
      67     Au       1         10.986592                              0.013408
      68     Au       1         10.986592                              0.013408
      69     Au       1         10.986592                              0.013408
      70     Au       1         10.986592                              0.013408
      71     Au       1         10.986592                              0.013408
      72     Au       1         10.986592                              0.013408
      73     Au       1         10.999585                              0.000415
      74     Au       1         10.999585                              0.000415
      75     Au       1         10.999585                              0.000415
      76     Au       1         10.999585                              0.000415
      77     Au       1         10.999585                              0.000415
      78     Au       1         10.999585                              0.000415
      79     Au       1         10.999585                              0.000415
      80     Au       1         10.999585                              0.000415
      81     Au       1         11.000144                             -0.000144
      82     Au       1         11.000144                             -0.000144
      83     Au       1         11.000144                             -0.000144
      84     Au       1         11.000144                             -0.000144
      85     Au       1         11.000144                             -0.000144
      86     Au       1         11.000145                             -0.000145
      87     Au       1         11.000144                             -0.000144
      88     Au       1         11.000144                             -0.000144
      89     Au       1         10.999986                              0.000014
      90     Au       1         10.999986                              0.000014
      91     Au       1         10.999986                              0.000014
      92     Au       1         10.999987                              0.000013
      93     Au       1         10.999987                              0.000013
      94     Au       1         10.999987                              0.000013
      95     Au       1         10.999986                              0.000014
      96     Au       1         10.999987                              0.000013
 # Total charge                           1056.039123                 -0.039123

 !-----------------------------------------------------------------------------!

 !-----------------------------------------------------------------------------!
                           Hirshfeld Charges

  #Atom  Element  Kind  Ref Charge     Population                    Net charge
      1       Au     1      11.000         11.000                         0.000
      2       Au     1      11.000         11.000                         0.000
      3       Au     1      11.000         11.000                         0.000
      4       Au     1      11.000         11.000                         0.000
      5       Au     1      11.000         11.000                         0.000
      6       Au     1      11.000         11.000                        -0.000
      7       Au     1      11.000         11.000                         0.000
      8       Au     1      11.000         11.000                         0.000
      9       Au     1      11.000         11.000                        -0.000
     10       Au     1      11.000         11.000                        -0.000
     11       Au     1      11.000         11.000                        -0.000
     12       Au     1      11.000         11.000                        -0.000
     13       Au     1      11.000         11.000                        -0.000
     14       Au     1      11.000         11.000                        -0.000
     15       Au     1      11.000         11.000                        -0.000
     16       Au     1      11.000         11.000                        -0.000
     17       Au     1      11.000         11.002                        -0.002
     18       Au     1      11.000         11.002                        -0.002
     19       Au     1      11.000         11.002                        -0.002
     20       Au     1      11.000         11.002                        -0.002
     21       Au     1      11.000         11.002                        -0.002
     22       Au     1      11.000         11.002                        -0.002
     23       Au     1      11.000         11.002                        -0.002
     24       Au     1      11.000         11.002                        -0.002
     25       Au     1      11.000         11.005                        -0.005
     26       Au     1      11.000         11.005                        -0.005
     27       Au     1      11.000         11.005                        -0.005
     28       Au     1      11.000         11.005                        -0.005
     29       Au     1      11.000         11.005                        -0.005
     30       Au     1      11.000         11.005                        -0.005
     31       Au     1      11.000         11.005                        -0.005
     32       Au     1      11.000         11.005                        -0.005
     33       Au     1      11.000         10.981                         0.019
     34       Au     1      11.000         10.981                         0.019
     35       Au     1      11.000         10.981                         0.019
     36       Au     1      11.000         10.981                         0.019
     37       Au     1      11.000         10.981                         0.019
     38       Au     1      11.000         10.981                         0.019
     39       Au     1      11.000         10.981                         0.019
     40       Au     1      11.000         10.981                         0.019
     41       Au     1      11.000         11.021                        -0.021
     42       Au     1      11.000         11.021                        -0.021
     43       Au     1      11.000         11.021                        -0.021
     44       Au     1      11.000         11.021                        -0.021
     45       Au     1      11.000         11.021                        -0.021
     46       Au     1      11.000         11.021                        -0.021
     47       Au     1      11.000         11.021                        -0.021
     48       Au     1      11.000         11.021                        -0.021
     49       Au     1      11.000         11.011                        -0.011
     50       Au     1      11.000         11.011                        -0.011
     51       Au     1      11.000         11.011                        -0.011
     52       Au     1      11.000         11.011                        -0.011
     53       Au     1      11.000         11.011                        -0.011
     54       Au     1      11.000         11.011                        -0.011
     55       Au     1      11.000         11.011                        -0.011
     56       Au     1      11.000         11.011                        -0.011
     57       Au     1      11.000         10.980                         0.020
     58       Au     1      11.000         10.980                         0.020
     59       Au     1      11.000         10.980                         0.020
     60       Au     1      11.000         10.980                         0.020
     61       Au     1      11.000         10.980                         0.020
     62       Au     1      11.000         10.980                         0.020
     63       Au     1      11.000         10.980                         0.020
     64       Au     1      11.000         10.980                         0.020
     65       Au     1      11.000         11.004                        -0.004
     66       Au     1      11.000         11.004                        -0.004
     67       Au     1      11.000         11.004                        -0.004
     68       Au     1      11.000         11.004                        -0.004
     69       Au     1      11.000         11.004                        -0.004
     70       Au     1      11.000         11.004                        -0.004
     71       Au     1      11.000         11.004                        -0.004
     72       Au     1      11.000         11.004                        -0.004
     73       Au     1      11.000         11.002                        -0.002
     74       Au     1      11.000         11.002                        -0.002
     75       Au     1      11.000         11.002                        -0.002
     76       Au     1      11.000         11.002                        -0.002
     77       Au     1      11.000         11.002                        -0.002
     78       Au     1      11.000         11.002                        -0.002
     79       Au     1      11.000         11.002                        -0.002
     80       Au     1      11.000         11.002                        -0.002
     81       Au     1      11.000         11.000                        -0.000
     82       Au     1      11.000         11.000                        -0.000
     83       Au     1      11.000         11.000                        -0.000
     84       Au     1      11.000         11.000                        -0.000
     85       Au     1      11.000         11.000                        -0.000
     86       Au     1      11.000         11.000                        -0.000
     87       Au     1      11.000         11.000                        -0.000
     88       Au     1      11.000         11.000                        -0.000
     89       Au     1      11.000         11.000                         0.000
     90       Au     1      11.000         11.000                         0.000
     91       Au     1      11.000         11.000                         0.000
     92       Au     1      11.000         11.000                        -0.000
     93       Au     1      11.000         11.000                        -0.000
     94       Au     1      11.000         11.000                        -0.000
     95       Au     1      11.000         11.000                         0.000
     96       Au     1      11.000         11.000                        -0.000

  Total Charge                                                           -0.039
 !-----------------------------------------------------------------------------!
 Calculating transmission coefficient

 ENERGY| Total FORCE_EVAL ( QS ) energy [a.u.]:            -3194.769372222986931

 -------------------------------------------------------------------------------
 -                                                                             -
 -                                DBCSR STATISTICS                             -
 -                                                                             -
 -------------------------------------------------------------------------------
 COUNTER                                    TOTAL       BLAS       SMM       ACC
 flops inhomo. stacks                           0       0.0%      0.0%      0.0%
 flops total                         0.000000E+00       0.0%      0.0%      0.0%
 flops max/rank                      0.000000E+00       0.0%      0.0%      0.0%
 matmuls inhomo. stacks                         0       0.0%      0.0%      0.0%
 matmuls total                                  0       0.0%      0.0%      0.0%
 number of processed stacks                     0       0.0%      0.0%      0.0%
 average stack size                                     0.0       0.0       0.0
 marketing flops                     0.000000E+00
 -------------------------------------------------------------------------------
 -                                                                             -
 -                      DBCSR MESSAGE PASSING PERFORMANCE                      -
 -                                                                             -
 -------------------------------------------------------------------------------
 ROUTINE             CALLS      AVE VOLUME [Bytes]
 MP_Bcast                1                     12.
 MP_Allreduce         3649                      8.
 MP_Alltoall          3289                 170672.
 -------------------------------------------------------------------------------

 -------------------------------------------------------------------------------
 -                                                                             -
 -                                DBM STATISTICS                               -
 -                                                                             -
 -------------------------------------------------------------------------------
    M  x    N  x    K                                          COUNT     PERCENT
 -------------------------------------------------------------------------------

 -------------------------------------------------------------------------------
 -                                                                             -
 -                                GRID STATISTICS                              -
 -                                                                             -
 -------------------------------------------------------------------------------
 LP    KERNEL             BACKEND                              COUNT     PERCENT
 4     collocate ortho    REF                                4837504      48.47%
 4     integrate ortho    REF                                4751120      47.60%
 0     collocate general  REF                                 207360       2.08%
 0     integrate general  REF                                 184320       1.85%
 -------------------------------------------------------------------------------

 MEMORY| Estimated peak process memory [MiB]                                 799

 -------------------------------------------------------------------------------
 ----                             MULTIGRID INFO                            ----
 -------------------------------------------------------------------------------
 count for grid        1:          44768          cutoff [a.u.]          200.00
 count for grid        2:         136976          cutoff [a.u.]           66.67
 count for grid        3:          67088          cutoff [a.u.]           22.22
 count for grid        4:          67952          cutoff [a.u.]            7.41
 total gridlevel count  :         316784

 -------------------------------------------------------------------------------
 -                                                                             -
 -                         MESSAGE PASSING PERFORMANCE                         -
 -                                                                             -
 -------------------------------------------------------------------------------

 ROUTINE             CALLS      AVE VOLUME [Bytes]
 MP_Group                5
 MP_Bcast            41386                  11861.
 MP_Allreduce         3775                 814008.
 MP_Sync               670
 MP_Alltoall          1015              450237691.
 MP_ISendRecv        53058                   4000.
 MP_Wait             65415
 MP_ISend            17957                  36846.
 MP_IRecv            18055                  36661.
 MP_Recv              2574                 221184.
 MP_Write_All            2                 248850.
 -------------------------------------------------------------------------------


 -------------------------------------------------------------------------------
 -                                                                             -
 -                           R E F E R E N C E S                               -
 -                                                                             -
 -------------------------------------------------------------------------------
 
 CP2K version 2022.1 (Development Version), the CP2K developers group (2022).
 CP2K is freely available from https://www.cp2k.org/ .

 Kuehne,Thomas D.; Iannuzzi,Marcella; Del Ben,Mauro;
 Rybkin,Vladimir V.; Seewald,Patrick; Stein,Frederick; Laino,Teodoro;
 Khaliullin,Rustam Z.; Schuett,Ole; Schiffmann,Florian; Golze,Dorothea;
 Wilhelm,Jan; Chulkov,Sergey; Bani-Hashemian,Mohammad Hossein;
 Weber,Valery; Borstnik,Urban; Taillefumier,Mathieu;
 Jakobovits,Alice Shoshana; Lazzaro,Alfio; Pabst,Hans; Mueller,Tiziano;
 Schade,Robert; Guidon,Manuel; Andermatt,Samuel; Holmberg,Nico;
 Schenter,Gregory K.; Hehn,Anna; Bussy,Augustin; Belleflamme,Fabian;
 Tabacchi,Gloria; Gloess,Andreas; Lass,Michael; Bethune,Iain;
 Mundy,Christopher J.; Plessl,Christian; Watkins,Matt;
 VandeVondele,Joost; Krack,Matthias; Hutter,Juerg. 
 The Journal of Chemical Physics, 152 (19), (2020). 
 CP2K: An electronic structure and molecular dynamics software package -
 Quickstep: Efficient and accurate electronic structure calculations.
 https://doi.org/10.1063/5.0007045

 Togo, Atsushi; Tanaka, Isao. arXiv, 1808.01590 (2018). 
 Spglib : a software library for crystal symmetry search.
 https://doi.org/xxx

 Schuett, Ole; Messmer, Peter; Hutter, Juerg; VandeVondele, Joost. 
 Electronic Structure Calculations on Graphics Processing Units, John
 Wiley & Sons, Ltd, 173-190 (2016). 
 GPU-Accelerated Sparse Matrix-Matrix Multiplication for
 Linear Scaling Density Functional Theory.
 https://doi.org/10.1002/9781118670712.ch8

 Heinecke, A; Henry, G; Hutchinson, M; Pabst, H. 
 Proceedings of Intl. Supercomputing Conference, 981-991 (2016). 
 LIBXSMM: Accelerating Small Matrix Multiplications
 by Runtime Code Generation.
 https://doi.org/10.1109/SC.2016.83

 Borstnik, U; VandeVondele, J; Weber, V; Hutter, J. 
 PARALLEL COMPUTING, 40 (5-6), 47-58 (2014). 
 Sparse matrix multiplication: The distributed block-compressed sparse
 row library.
 https://doi.org/10.1016/j.parco.2014.03.012

 Hutter, J; Iannuzzi, M; Schiffmann, F; VandeVondele, J. 
 WIREs Comput Mol Sci., 4 (1), 15-25 (2014). 
 CP2K: atomistic simulations of condensed matter systems.
 https://doi.org/10.1002/wcms.1159

 VandeVondele, J; Hutter, J. 
 JOURNAL OF CHEMICAL PHYSICS, 127 (11), 114105 (2007). 
 Gaussian basis sets for accurate calculations on molecular systems in
 gas and condensed phases.
 https://doi.org/10.1063/1.2770708

 Krack, M. 
 THEORETICAL CHEMISTRY ACCOUNTS, 114 (1-3), 145-152 (2005). 
 Pseudopotentials for H to Kr optimized for gradient-corrected
 exchange-correlation functionals.
 https://doi.org/10.1007/s00214-005-0655-y

 VandeVondele, J; Krack, M; Mohamed, F; Parrinello, M; Chassaing, T;
 Hutter, J. COMPUTER PHYSICS COMMUNICATIONS, 167 (2), 103-128 (2005). 
 QUICKSTEP: Fast and accurate density functional calculations using a
 mixed Gaussian and plane waves approach.
 https://doi.org/10.1016/j.cpc.2004.12.014

 Frigo, M; Johnson, SG. 
 PROCEEDINGS OF THE IEEE, 93 (2), 216-231 (2005). 
 The design and implementation of FFTW3.
 https://doi.org/10.1109/JPROC.2004.840301

 Hartwigsen, C; Goedecker, S; Hutter, J. 
 PHYSICAL REVIEW B, 58 (7), 3641-3662 (1998). 
 Relativistic separable dual-space Gaussian pseudopotentials from H to Rn.
 https://doi.org/10.1103/PhysRevB.58.3641

 Lippert, G; Hutter, J; Parrinello, M. 
 MOLECULAR PHYSICS, 92 (3), 477-487 (1997). 
 A hybrid Gaussian and plane wave density functional scheme.
 https://doi.org/10.1080/002689797170220

 Goedecker, S; Teter, M; Hutter, J. 
 PHYSICAL REVIEW B, 54 (3), 1703-1710 (1996). 
 Separable dual-space Gaussian pseudopotentials.
 https://doi.org/10.1103/PhysRevB.54.1703


 -------------------------------------------------------------------------------
 -                                                                             -
 -                                T I M I N G                                  -
 -                                                                             -
 -------------------------------------------------------------------------------
 SUBROUTINE                       CALLS  ASD         SELF TIME        TOTAL TIME
                                MAXIMUM       AVERAGE  MAXIMUM  AVERAGE  MAXIMUM
 CP2K                                 1  1.0    0.030    0.054  548.343  548.348
 qs_energies                          1  2.0    0.000    0.001  548.144  548.182
 run_smeagol_emtrans                 56  5.9  441.686  479.032  530.837  533.942
 scf_env_do_scf                       1  3.0    0.000    0.000  532.598  532.647
 scf_env_do_scf_inner_loop           55  4.0    0.004    0.324  532.597  532.647
 qs_scf_new_mos_kp                   55  5.0    0.001    0.002  517.636  520.701
 mp_sum_iv                          407  7.3   36.492   36.730   36.492   36.730
 convert_dbcsr_to_replsiesta        112  6.9    3.881    4.770   19.659   22.927
 dbcsr_replicate                   5544  7.9    0.240    0.276   19.155   19.273
 mp_sum_dv                          384  7.6   13.715   14.457   13.715   14.457
 -------------------------------------------------------------------------------

 The number of warnings for this run is : 0
 
 -------------------------------------------------------------------------------
  **** **** ******  **  PROGRAM ENDED AT                 2023-03-22 11:56:43.264
 ***** ** ***  *** **   PROGRAM RAN ON                     cn1144.scarf.rl.ac.uk
 **    ****   ******    PROGRAM RAN BY                                 scarf1157
 ***** **    ** ** **   PROGRAM PROCESS ID                                 21583
  **** **  *******  **  PROGRAM STOPPED IN /work4/scd/scarf1157/work/testing/cp2
                                           k-smeagol/bdt/cp2k/hollow-site/transp
                                           ort-cp2k/5-4/geometry-ordered/3x3-4/s
                                           z/bulk_layers-4/transmission/exp/capa
                                           citor/sergey-equal/auto/kpoints-20_te
                                           st/chris_kpoints_bulk-1-1-20_em-1-1-1
                                           _hlb-auto2
