 DBCSR| CPU Multiplication driver                                           BLAS
 DBCSR| Multrec recursion limit                                              512
 DBCSR| Multiplication stack size                                           1000
 DBCSR| Maximum elements for images                                    UNLIMITED
 DBCSR| Multiplicative factor virtual images                                   1
 DBCSR| Use multiplication densification                                       T
 DBCSR| Multiplication size stacks                                             3
 DBCSR| Use memory pool for CPU allocation                                     F
 DBCSR| Number of 3D layers                                               SINGLE
 DBCSR| Use MPI memory allocation                                              F
 DBCSR| Use RMA algorithm                                                      F
 DBCSR| Use Communication thread                                               T
 DBCSR| Communication thread load                                             87
 DBCSR| MPI: My node id                                                        0
 DBCSR| MPI: Number of nodes                                                 128
 DBCSR| OMP: Current number of threads                                         1
 DBCSR| OMP: Max number of threads                                             1
 DBCSR| Split modifier for TAS multiplication algorithm                  1.0E+00


  **** **** ******  **  PROGRAM STARTED AT               2023-11-22 15:14:43.832
 ***** ** ***  *** **   PROGRAM STARTED ON                             nid001027
 **    ****   ******    PROGRAM STARTED BY                                cahart
 ***** **    ** ** **   PROGRAM PROCESS ID                                184035
  **** **  *******  **  PROGRAM STARTED IN /mnt/lustre/a2fs-work2/work/e05/e05/c
                                           ahart/postdoc/transport/cp2k-smeagol-
                                           examples/benchmarking/cp2k-smeagol/au
                                           -bdt/NEnergReal-64_kpoints-1-1-20/ato
                                           ms-662/bulk

 CP2K| version string:                 CP2K version 2022.1 (Development Version)
 CP2K| source code revision number:                                  git:215a478
 CP2K| cp2kflags: omp libint fftw3 libxc elpa parallel mpi3 scalapack mkl       
 CP2K| is freely available from                            https://www.cp2k.org/
 CP2K| Program compiled at                          Mon 30 Oct 16:32:24 GMT 2023
 CP2K| Program compiled on                                                  ln03
 CP2K| Program compiled for                                                local
 CP2K| Data directory path    /work/e05/e05/cahart/smeagol/smgl/cp2k-private-ser
 CP2K| Input file name                                              1_bulkLR.inp

 GLOBAL| Force Environment number                                              1
 GLOBAL| Basis set file name                                        BASIS_MOLOPT
 GLOBAL| Potential file name                                      GTH_POTENTIALS
 GLOBAL| MM Potential file name                                     MM_POTENTIAL
 GLOBAL| Coordinate file name                                           bulk.xyz
 GLOBAL| Method name                                                        CP2K
 GLOBAL| Project name                                                       bulk
 GLOBAL| Run type                                                         ENERGY
 GLOBAL| FFT library                                                       FFTW3
 GLOBAL| Diagonalization library                                            ELPA
 GLOBAL| Minimum number of eigenvectors for ELPA usage                        16
 GLOBAL| Orthonormality check for eigenvectors                          DISABLED
 GLOBAL| Matrix multiplication library                                 ScaLAPACK
 GLOBAL| All-to-all communication in single precision                          F
 GLOBAL| FFTs using library dependent lengths                                  T
 GLOBAL| Grid backend                                                       AUTO
 GLOBAL| Global print level                                               MEDIUM
 GLOBAL| MPI I/O enabled                                                       T
 GLOBAL| Total number of message passing processes                           128
 GLOBAL| Number of threads for this process                                    1
 GLOBAL| This output is from process                                           0
 GLOBAL| Stack size for threads created by OpenMP (OMP_STACKSIZE)        default
 GLOBAL| CPU model name                          AMD EPYC 7742 64-Core Processor
 GLOBAL| CPUID                                                              1002

 MEMORY| system memory details [Kb]
 MEMORY|                        rank 0           min           max       average
 MEMORY| MemTotal            263341712     263341712     263341712     263341712
 MEMORY| MemFree             238892568     238892568     238894332     238893255
 MEMORY| Buffers                     0             0             0             0
 MEMORY| Cached                1518016       1515520       1518016       1517042
 MEMORY| Slab                  2913148       2912992       2913148       2913076
 MEMORY| SReclaimable           115688        115644        115688        115671
 MEMORY| MemLikelyFree       240526272     240525496     240526524     240525968


 *** Fundamental physical constants (SI units) ***

 *** Literature: B. J. Mohr and B. N. Taylor,
 ***             CODATA recommended values of the fundamental physical
 ***             constants: 2006, Web Version 5.1
 ***             http://physics.nist.gov/constants

 Speed of light in vacuum [m/s]                             2.99792458000000E+08
 Magnetic constant or permeability of vacuum [N/A**2]       1.25663706143592E-06
 Electric constant or permittivity of vacuum [F/m]          8.85418781762039E-12
 Planck constant (h) [J*s]                                  6.62606896000000E-34
 Planck constant (h-bar) [J*s]                              1.05457162825177E-34
 Elementary charge [C]                                      1.60217648700000E-19
 Electron mass [kg]                                         9.10938215000000E-31
 Electron g factor [ ]                                     -2.00231930436220E+00
 Proton mass [kg]                                           1.67262163700000E-27
 Fine-structure constant                                    7.29735253760000E-03
 Rydberg constant [1/m]                                     1.09737315685270E+07
 Avogadro constant [1/mol]                                  6.02214179000000E+23
 Boltzmann constant [J/K]                                   1.38065040000000E-23
 Atomic mass unit [kg]                                      1.66053878200000E-27
 Bohr radius [m]                                            5.29177208590000E-11

 *** Conversion factors ***

 [u] -> [a.u.]                                              1.82288848426455E+03
 [Angstrom] -> [Bohr] = [a.u.]                              1.88972613288564E+00
 [a.u.] = [Bohr] -> [Angstrom]                              5.29177208590000E-01
 [a.u.] -> [s]                                              2.41888432650478E-17
 [a.u.] -> [fs]                                             2.41888432650478E-02
 [a.u.] -> [J]                                              4.35974393937059E-18
 [a.u.] -> [N]                                              8.23872205491840E-08
 [a.u.] -> [K]                                              3.15774647902944E+05
 [a.u.] -> [kJ/mol]                                         2.62549961709828E+03
 [a.u.] -> [kcal/mol]                                       6.27509468713739E+02
 [a.u.] -> [Pa]                                             2.94210107994716E+13
 [a.u.] -> [bar]                                            2.94210107994716E+08
 [a.u.] -> [atm]                                            2.90362800883016E+08
 [a.u.] -> [eV]                                             2.72113838565563E+01
 [a.u.] -> [Hz]                                             6.57968392072181E+15
 [a.u.] -> [1/cm] (wave numbers)                            2.19474631370540E+05
 [a.u./Bohr**2] -> [1/cm]                                   5.14048714338585E+03
 

 CELL_TOP| Volume [angstrom^3]:                                      3563.345207
 CELL_TOP| Vector a [angstrom    20.730     0.000     0.000   |a| =    20.730000
 CELL_TOP| Vector b [angstrom     0.000    20.730     0.000   |b| =    20.730000
 CELL_TOP| Vector c [angstrom     0.000     0.000     8.292   |c| =     8.292000
 CELL_TOP| Angle (b,c), alpha [degree]:                                90.000000
 CELL_TOP| Angle (a,c), beta  [degree]:                                90.000000
 CELL_TOP| Angle (a,b), gamma [degree]:                                90.000000
 CELL_TOP| Numerically orthorhombic:                                         YES
 CELL_TOP| Periodicity                                                       XYZ

 GENERATE|  Preliminary Number of Bonds generated:                             0
 GENERATE|  Achieved consistency in connectivity generation.

 CELL| Volume [angstrom^3]:                                          3563.345207
 CELL| Vector a [angstrom]:      20.730     0.000     0.000   |a| =    20.730000
 CELL| Vector b [angstrom]:       0.000    20.730     0.000   |b| =    20.730000
 CELL| Vector c [angstrom]:       0.000     0.000     8.292   |c| =     8.292000
 CELL| Angle (b,c), alpha [degree]:                                    90.000000
 CELL| Angle (a,c), beta  [degree]:                                    90.000000
 CELL| Angle (a,b), gamma [degree]:                                    90.000000
 CELL| Numerically orthorhombic:                                             YES
 CELL| Periodicity                                                           XYZ

 CELL_REF| Volume [angstrom^3]:                                      3563.345207
 CELL_REF| Vector a [angstrom    20.730     0.000     0.000   |a| =    20.730000
 CELL_REF| Vector b [angstrom     0.000    20.730     0.000   |b| =    20.730000
 CELL_REF| Vector c [angstrom     0.000     0.000     8.292   |c| =     8.292000
 CELL_REF| Angle (b,c), alpha [degree]:                                90.000000
 CELL_REF| Angle (a,c), beta  [degree]:                                90.000000
 CELL_REF| Angle (a,b), gamma [degree]:                                90.000000
 CELL_REF| Numerically orthorhombic:                                         YES
 CELL_REF| Periodicity                                                       XYZ

 *** WARNING in cryssym.F:165 :: Symmetry library SPGLIB not available ***


 *******************************************************************************
                                    Kpoints
 *******************************************************************************
 BRILLOUIN| K-point scheme                                        Monkhorst-Pack
 BRILLOUIN| K-Point grid                                             1    1   20
 BRILLOUIN| Accuracy in Symmetry determination                      0.100000E-07
 BRILLOUIN| K-Point point group symmetrization                               OFF
 BRILLOUIN| Wavefunction type                                            COMPLEX
 BRILLOUIN| Use full k-point grid     
 BRILLOUIN| List of Kpoints [2 Pi/Bohr]                                       20
 BRILLOUIN| Number           Weight            X              Y              Z
 BRILLOUIN|     1           0.05000        0.00000        0.00000       -0.47500
 BRILLOUIN|     2           0.05000        0.00000        0.00000       -0.42500
 BRILLOUIN|     3           0.05000        0.00000        0.00000       -0.37500
 BRILLOUIN|     4           0.05000        0.00000        0.00000       -0.32500
 BRILLOUIN|     5           0.05000        0.00000        0.00000       -0.27500
 BRILLOUIN|     6           0.05000        0.00000        0.00000       -0.22500
 BRILLOUIN|     7           0.05000        0.00000        0.00000       -0.17500
 BRILLOUIN|     8           0.05000        0.00000        0.00000       -0.12500
 BRILLOUIN|     9           0.05000        0.00000        0.00000       -0.07500
 BRILLOUIN|    10           0.05000        0.00000        0.00000       -0.02500
 BRILLOUIN|    11           0.05000        0.00000        0.00000        0.02500
 BRILLOUIN|    12           0.05000        0.00000        0.00000        0.07500
 BRILLOUIN|    13           0.05000        0.00000        0.00000        0.12500
 BRILLOUIN|    14           0.05000        0.00000        0.00000        0.17500
 BRILLOUIN|    15           0.05000        0.00000        0.00000        0.22500
 BRILLOUIN|    16           0.05000        0.00000        0.00000        0.27500
 BRILLOUIN|    17           0.05000        0.00000        0.00000        0.32500
 BRILLOUIN|    18           0.05000        0.00000        0.00000        0.37500
 BRILLOUIN|    19           0.05000        0.00000        0.00000        0.42500
 BRILLOUIN|    20           0.05000        0.00000        0.00000        0.47500
 *******************************************************************************

 *******************************************************************************
 *******************************************************************************
 **                                                                           **
 **     #####                         ##              ##                      **
 **    ##   ##            ##          ##              ##                      **
 **   ##     ##                       ##            ######                    **
 **   ##     ##  ##   ##  ##   #####  ##  ##   ####   ##    #####    #####    **
 **   ##     ##  ##   ##  ##  ##      ## ##   ##      ##   ##   ##  ##   ##   **
 **   ##  ## ##  ##   ##  ##  ##      ####     ###    ##   ######   ######    **
 **    ##  ###   ##   ##  ##  ##      ## ##      ##   ##   ##       ##        **
 **     #######   #####   ##   #####  ##  ##  ####    ##    #####   ##        **
 **           ##                                                    ##        **
 **                                                                           **
 **                                                ... make the atoms dance   **
 **                                                                           **
 **            Copyright (C) by CP2K developers group (2000-2022)             **
 **                      J. Chem. Phys. 152, 194103 (2020)                    **
 **                                                                           **
 *******************************************************************************

 DFT| Spin restricted Kohn-Sham (RKS) calculation                            RKS
 DFT| Multiplicity                                                             1
 DFT| Number of spin states                                                    1
 DFT| Charge                                                                   0
 DFT| Self-interaction correction (SIC)                                       NO
 DFT| Cutoffs: density                                              1.000000E-10
 DFT|          gradient                                             1.000000E-10
 DFT|          tau                                                  1.000000E-10
 DFT|          cutoff_smoothing_range                               0.000000E+00
 DFT| XC density smoothing                                                  NONE
 DFT| XC derivatives                                                          PW

 FUNCTIONAL| PADE:
 FUNCTIONAL| S. Goedecker, M. Teter and J. Hutter, Phys. Rev. B 54, 1703 (1996) 


 QS| Method:                                                                 GPW
 QS| Density plane wave grid type                        NON-SPHERICAL FULLSPACE
 QS| Number of grid levels:                                                    4
 QS| Density cutoff [a.u.]:                                                200.0
 QS| Multi grid cutoff [a.u.]: 1) grid level                               200.0
 QS|                           2) grid level                                66.7
 QS|                           3) grid level                                22.2
 QS|                           4) grid level                                 7.4
 QS| Grid level progression factor:                                          3.0
 QS| Relative density cutoff [a.u.]:                                        20.0
 QS| Interaction thresholds: eps_pgf_orb:                                1.0E-05
 QS|                         eps_filter_matrix:                          0.0E+00
 QS|                         eps_core_charge:                            1.0E-12
 QS|                         eps_rho_gspace:                             1.0E-10
 QS|                         eps_rho_rspace:                             1.0E-10
 QS|                         eps_gvg_rspace:                             1.0E-05
 QS|                         eps_ppl:                                    1.0E-02
 QS|                         eps_ppnl:                                   1.0E-07


 ATOMIC KIND INFORMATION

  1. Atomic kind: Au                                    Number of atoms:     200

     Orbital Basis Set                                         SZV-MOLOPT-SR-GTH

       Number of orbital shell sets:                                           1
       Number of orbital shells:                                               3
       Number of primitive Cartesian functions:                                5
       Number of Cartesian basis functions:                                   10
       Number of spherical basis functions:                                    9
       Norm type:                                                              2

       Normalised Cartesian orbitals:

                        Set   Shell   Orbital            Exponent    Coefficient

                          1       1    2s                2.950008       0.074626
                                                         1.563057      -0.007898
                                                         0.666664      -0.297688
                                                         0.251083       0.136809
                                                         0.081714       0.088198

                          1       2    3px               2.950008       0.148824
                                                         1.563057       0.025430
                                                         0.666664      -0.123003
                                                         0.251083       0.033648
                                                         0.081714       0.059008
                          1       2    3py               2.950008       0.148824
                                                         1.563057       0.025430
                                                         0.666664      -0.123003
                                                         0.251083       0.033648
                                                         0.081714       0.059008
                          1       2    3pz               2.950008       0.148824
                                                         1.563057       0.025430
                                                         0.666664      -0.123003
                                                         0.251083       0.033648
                                                         0.081714       0.059008

                          1       3    4dx2              2.950008      -0.139595
                                                         1.563057       1.319655
                                                         0.666664       0.377081
                                                         0.251083       0.046872
                                                         0.081714       0.001393
                          1       3    4dxy              2.950008      -0.241786
                                                         1.563057       2.285709
                                                         0.666664       0.653124
                                                         0.251083       0.081185
                                                         0.081714       0.002412
                          1       3    4dxz              2.950008      -0.241786
                                                         1.563057       2.285709
                                                         0.666664       0.653124
                                                         0.251083       0.081185
                                                         0.081714       0.002412
                          1       3    4dy2              2.950008      -0.139595
                                                         1.563057       1.319655
                                                         0.666664       0.377081
                                                         0.251083       0.046872
                                                         0.081714       0.001393
                          1       3    4dyz              2.950008      -0.241786
                                                         1.563057       2.285709
                                                         0.666664       0.653124
                                                         0.251083       0.081185
                                                         0.081714       0.002412
                          1       3    4dz2              2.950008      -0.139595
                                                         1.563057       1.319655
                                                         0.666664       0.377081
                                                         0.251083       0.046872
                                                         0.081714       0.001393

       Atomic covalent radius [Angstrom]:                                  1.340

       Atomic van der Waals radius [Angstrom]:                             1.660

     GTH Potential information for                                  GTH-PADE-q11

       Description:                       Goedecker-Teter-Hutter pseudopotential
                                           Goedecker et al., PRB 54, 1703 (1996)
                                          Hartwigsen et al., PRB 58, 3641 (1998)
                                                      Krack, TCA 114, 145 (2005)

       Gaussian exponent of the core charge distribution:               1.436369
       Electronic configuration (s p d ...):                           1   0  10

       Parameters of the local part of the GTH pseudopotential:

                          rloc        C1          C2          C3          C4
                        0.590000   11.604428

       Parameters of the non-local part of the GTH pseudopotential:

                   l      r(l)      h(i,j,l)

                   0    0.521180    2.538614   -1.046137
                                   -1.046137    2.701113
                   1    0.630613    0.394853   -0.869592
                                   -0.869592    2.057831
                   2    0.440706   -4.719070    0.727771
                                    0.727771   -1.650429


 MOLECULE KIND INFORMATION


 All atoms are their own molecule, skipping detailed information


 TOTAL NUMBERS AND MAXIMUM NUMBERS

  Total number of            - Atomic kinds:                                   1
                             - Atoms:                                        200
                             - Shell sets:                                   200
                             - Shells:                                       600
                             - Primitive Cartesian functions:               1000
                             - Cartesian basis functions:                   2000
                             - Spherical basis functions:                   1800

  Maximum angular momentum of- Orbital basis functions:                        2
                             - Local part of the GTH pseudopotential:          0
                             - Non-local part of the GTH pseudopotential:      4


 MODULE QUICKSTEP: ATOMIC COORDINATES IN ANGSTROM

   Atom Kind Element         X             Y             Z       Z(eff)     Mass
      1    1 Au   79      0.000000      0.000000      0.000000  11.0000 196.9666
      2    1 Au   79      2.073000      2.073000      0.000000  11.0000 196.9666
      3    1 Au   79      2.073000      0.000000      2.073000  11.0000 196.9666
      4    1 Au   79      0.000000      2.073000      2.073000  11.0000 196.9666
      5    1 Au   79      0.000000      4.146000      0.000000  11.0000 196.9666
      6    1 Au   79      2.073000      6.219000      0.000000  11.0000 196.9666
      7    1 Au   79      2.073000      4.146000      2.073000  11.0000 196.9666
      8    1 Au   79      0.000000      6.219000      2.073000  11.0000 196.9666
      9    1 Au   79      0.000000      8.292000      0.000000  11.0000 196.9666
     10    1 Au   79      2.073000     10.365000      0.000000  11.0000 196.9666
     11    1 Au   79      2.073000      8.292000      2.073000  11.0000 196.9666
     12    1 Au   79      0.000000     10.365000      2.073000  11.0000 196.9666
     13    1 Au   79      0.000000     12.438000      0.000000  11.0000 196.9666
     14    1 Au   79      2.073000     14.511000      0.000000  11.0000 196.9666
     15    1 Au   79      2.073000     12.438000      2.073000  11.0000 196.9666
     16    1 Au   79      0.000000     14.511000      2.073000  11.0000 196.9666
     17    1 Au   79      0.000000     16.584000      0.000000  11.0000 196.9666
     18    1 Au   79      2.073000     18.657000      0.000000  11.0000 196.9666
     19    1 Au   79      2.073000     16.584000      2.073000  11.0000 196.9666
     20    1 Au   79      0.000000     18.657000      2.073000  11.0000 196.9666
     21    1 Au   79      4.146000      0.000000      0.000000  11.0000 196.9666
     22    1 Au   79      6.219000      2.073000      0.000000  11.0000 196.9666
     23    1 Au   79      6.219000      0.000000      2.073000  11.0000 196.9666
     24    1 Au   79      4.146000      2.073000      2.073000  11.0000 196.9666
     25    1 Au   79      4.146000      4.146000      0.000000  11.0000 196.9666
     26    1 Au   79      6.219000      6.219000      0.000000  11.0000 196.9666
     27    1 Au   79      6.219000      4.146000      2.073000  11.0000 196.9666
     28    1 Au   79      4.146000      6.219000      2.073000  11.0000 196.9666
     29    1 Au   79      4.146000      8.292000      0.000000  11.0000 196.9666
     30    1 Au   79      6.219000     10.365000      0.000000  11.0000 196.9666
     31    1 Au   79      6.219000      8.292000      2.073000  11.0000 196.9666
     32    1 Au   79      4.146000     10.365000      2.073000  11.0000 196.9666
     33    1 Au   79      4.146000     12.438000      0.000000  11.0000 196.9666
     34    1 Au   79      6.219000     14.511000      0.000000  11.0000 196.9666
     35    1 Au   79      6.219000     12.438000      2.073000  11.0000 196.9666
     36    1 Au   79      4.146000     14.511000      2.073000  11.0000 196.9666
     37    1 Au   79      4.146000     16.584000      0.000000  11.0000 196.9666
     38    1 Au   79      6.219000     18.657000      0.000000  11.0000 196.9666
     39    1 Au   79      6.219000     16.584000      2.073000  11.0000 196.9666
     40    1 Au   79      4.146000     18.657000      2.073000  11.0000 196.9666
     41    1 Au   79      8.292000      0.000000      0.000000  11.0000 196.9666
     42    1 Au   79     10.365000      2.073000      0.000000  11.0000 196.9666
     43    1 Au   79     10.365000      0.000000      2.073000  11.0000 196.9666
     44    1 Au   79      8.292000      2.073000      2.073000  11.0000 196.9666
     45    1 Au   79      8.292000      4.146000      0.000000  11.0000 196.9666
     46    1 Au   79     10.365000      6.219000      0.000000  11.0000 196.9666
     47    1 Au   79     10.365000      4.146000      2.073000  11.0000 196.9666
     48    1 Au   79      8.292000      6.219000      2.073000  11.0000 196.9666
     49    1 Au   79      8.292000      8.292000      0.000000  11.0000 196.9666
     50    1 Au   79     10.365000     10.365000      0.000000  11.0000 196.9666
     51    1 Au   79     10.365000      8.292000      2.073000  11.0000 196.9666
     52    1 Au   79      8.292000     10.365000      2.073000  11.0000 196.9666
     53    1 Au   79      8.292000     12.438000      0.000000  11.0000 196.9666
     54    1 Au   79     10.365000     14.511000      0.000000  11.0000 196.9666
     55    1 Au   79     10.365000     12.438000      2.073000  11.0000 196.9666
     56    1 Au   79      8.292000     14.511000      2.073000  11.0000 196.9666
     57    1 Au   79      8.292000     16.584000      0.000000  11.0000 196.9666
     58    1 Au   79     10.365000     18.657000      0.000000  11.0000 196.9666
     59    1 Au   79     10.365000     16.584000      2.073000  11.0000 196.9666
     60    1 Au   79      8.292000     18.657000      2.073000  11.0000 196.9666
     61    1 Au   79     12.438000      0.000000      0.000000  11.0000 196.9666
     62    1 Au   79     14.511000      2.073000      0.000000  11.0000 196.9666
     63    1 Au   79     14.511000      0.000000      2.073000  11.0000 196.9666
     64    1 Au   79     12.438000      2.073000      2.073000  11.0000 196.9666
     65    1 Au   79     12.438000      4.146000      0.000000  11.0000 196.9666
     66    1 Au   79     14.511000      6.219000      0.000000  11.0000 196.9666
     67    1 Au   79     14.511000      4.146000      2.073000  11.0000 196.9666
     68    1 Au   79     12.438000      6.219000      2.073000  11.0000 196.9666
     69    1 Au   79     12.438000      8.292000      0.000000  11.0000 196.9666
     70    1 Au   79     14.511000     10.365000      0.000000  11.0000 196.9666
     71    1 Au   79     14.511000      8.292000      2.073000  11.0000 196.9666
     72    1 Au   79     12.438000     10.365000      2.073000  11.0000 196.9666
     73    1 Au   79     12.438000     12.438000      0.000000  11.0000 196.9666
     74    1 Au   79     14.511000     14.511000      0.000000  11.0000 196.9666
     75    1 Au   79     14.511000     12.438000      2.073000  11.0000 196.9666
     76    1 Au   79     12.438000     14.511000      2.073000  11.0000 196.9666
     77    1 Au   79     12.438000     16.584000      0.000000  11.0000 196.9666
     78    1 Au   79     14.511000     18.657000      0.000000  11.0000 196.9666
     79    1 Au   79     14.511000     16.584000      2.073000  11.0000 196.9666
     80    1 Au   79     12.438000     18.657000      2.073000  11.0000 196.9666
     81    1 Au   79     16.584000      0.000000      0.000000  11.0000 196.9666
     82    1 Au   79     18.657000      2.073000      0.000000  11.0000 196.9666
     83    1 Au   79     18.657000      0.000000      2.073000  11.0000 196.9666
     84    1 Au   79     16.584000      2.073000      2.073000  11.0000 196.9666
     85    1 Au   79     16.584000      4.146000      0.000000  11.0000 196.9666
     86    1 Au   79     18.657000      6.219000      0.000000  11.0000 196.9666
     87    1 Au   79     18.657000      4.146000      2.073000  11.0000 196.9666
     88    1 Au   79     16.584000      6.219000      2.073000  11.0000 196.9666
     89    1 Au   79     16.584000      8.292000      0.000000  11.0000 196.9666
     90    1 Au   79     18.657000     10.365000      0.000000  11.0000 196.9666
     91    1 Au   79     18.657000      8.292000      2.073000  11.0000 196.9666
     92    1 Au   79     16.584000     10.365000      2.073000  11.0000 196.9666
     93    1 Au   79     16.584000     12.438000      0.000000  11.0000 196.9666
     94    1 Au   79     18.657000     14.511000      0.000000  11.0000 196.9666
     95    1 Au   79     18.657000     12.438000      2.073000  11.0000 196.9666
     96    1 Au   79     16.584000     14.511000      2.073000  11.0000 196.9666
     97    1 Au   79     16.584000     16.584000      0.000000  11.0000 196.9666
     98    1 Au   79     18.657000     18.657000      0.000000  11.0000 196.9666
     99    1 Au   79     18.657000     16.584000      2.073000  11.0000 196.9666
    100    1 Au   79     16.584000     18.657000      2.073000  11.0000 196.9666
    101    1 Au   79      0.000000      0.000000      4.146000  11.0000 196.9666
    102    1 Au   79      2.073000      2.073000      4.146000  11.0000 196.9666
    103    1 Au   79      2.073000      0.000000      6.219000  11.0000 196.9666
    104    1 Au   79      0.000000      2.073000      6.219000  11.0000 196.9666
    105    1 Au   79      0.000000      4.146000      4.146000  11.0000 196.9666
    106    1 Au   79      2.073000      6.219000      4.146000  11.0000 196.9666
    107    1 Au   79      2.073000      4.146000      6.219000  11.0000 196.9666
    108    1 Au   79      0.000000      6.219000      6.219000  11.0000 196.9666
    109    1 Au   79      0.000000      8.292000      4.146000  11.0000 196.9666
    110    1 Au   79      2.073000     10.365000      4.146000  11.0000 196.9666
    111    1 Au   79      2.073000      8.292000      6.219000  11.0000 196.9666
    112    1 Au   79      0.000000     10.365000      6.219000  11.0000 196.9666
    113    1 Au   79      0.000000     12.438000      4.146000  11.0000 196.9666
    114    1 Au   79      2.073000     14.511000      4.146000  11.0000 196.9666
    115    1 Au   79      2.073000     12.438000      6.219000  11.0000 196.9666
    116    1 Au   79      0.000000     14.511000      6.219000  11.0000 196.9666
    117    1 Au   79      0.000000     16.584000      4.146000  11.0000 196.9666
    118    1 Au   79      2.073000     18.657000      4.146000  11.0000 196.9666
    119    1 Au   79      2.073000     16.584000      6.219000  11.0000 196.9666
    120    1 Au   79      0.000000     18.657000      6.219000  11.0000 196.9666
    121    1 Au   79      4.146000      0.000000      4.146000  11.0000 196.9666
    122    1 Au   79      6.219000      2.073000      4.146000  11.0000 196.9666
    123    1 Au   79      6.219000      0.000000      6.219000  11.0000 196.9666
    124    1 Au   79      4.146000      2.073000      6.219000  11.0000 196.9666
    125    1 Au   79      4.146000      4.146000      4.146000  11.0000 196.9666
    126    1 Au   79      6.219000      6.219000      4.146000  11.0000 196.9666
    127    1 Au   79      6.219000      4.146000      6.219000  11.0000 196.9666
    128    1 Au   79      4.146000      6.219000      6.219000  11.0000 196.9666
    129    1 Au   79      4.146000      8.292000      4.146000  11.0000 196.9666
    130    1 Au   79      6.219000     10.365000      4.146000  11.0000 196.9666
    131    1 Au   79      6.219000      8.292000      6.219000  11.0000 196.9666
    132    1 Au   79      4.146000     10.365000      6.219000  11.0000 196.9666
    133    1 Au   79      4.146000     12.438000      4.146000  11.0000 196.9666
    134    1 Au   79      6.219000     14.511000      4.146000  11.0000 196.9666
    135    1 Au   79      6.219000     12.438000      6.219000  11.0000 196.9666
    136    1 Au   79      4.146000     14.511000      6.219000  11.0000 196.9666
    137    1 Au   79      4.146000     16.584000      4.146000  11.0000 196.9666
    138    1 Au   79      6.219000     18.657000      4.146000  11.0000 196.9666
    139    1 Au   79      6.219000     16.584000      6.219000  11.0000 196.9666
    140    1 Au   79      4.146000     18.657000      6.219000  11.0000 196.9666
    141    1 Au   79      8.292000      0.000000      4.146000  11.0000 196.9666
    142    1 Au   79     10.365000      2.073000      4.146000  11.0000 196.9666
    143    1 Au   79     10.365000      0.000000      6.219000  11.0000 196.9666
    144    1 Au   79      8.292000      2.073000      6.219000  11.0000 196.9666
    145    1 Au   79      8.292000      4.146000      4.146000  11.0000 196.9666
    146    1 Au   79     10.365000      6.219000      4.146000  11.0000 196.9666
    147    1 Au   79     10.365000      4.146000      6.219000  11.0000 196.9666
    148    1 Au   79      8.292000      6.219000      6.219000  11.0000 196.9666
    149    1 Au   79      8.292000      8.292000      4.146000  11.0000 196.9666
    150    1 Au   79     10.365000     10.365000      4.146000  11.0000 196.9666
    151    1 Au   79     10.365000      8.292000      6.219000  11.0000 196.9666
    152    1 Au   79      8.292000     10.365000      6.219000  11.0000 196.9666
    153    1 Au   79      8.292000     12.438000      4.146000  11.0000 196.9666
    154    1 Au   79     10.365000     14.511000      4.146000  11.0000 196.9666
    155    1 Au   79     10.365000     12.438000      6.219000  11.0000 196.9666
    156    1 Au   79      8.292000     14.511000      6.219000  11.0000 196.9666
    157    1 Au   79      8.292000     16.584000      4.146000  11.0000 196.9666
    158    1 Au   79     10.365000     18.657000      4.146000  11.0000 196.9666
    159    1 Au   79     10.365000     16.584000      6.219000  11.0000 196.9666
    160    1 Au   79      8.292000     18.657000      6.219000  11.0000 196.9666
    161    1 Au   79     12.438000      0.000000      4.146000  11.0000 196.9666
    162    1 Au   79     14.511000      2.073000      4.146000  11.0000 196.9666
    163    1 Au   79     14.511000      0.000000      6.219000  11.0000 196.9666
    164    1 Au   79     12.438000      2.073000      6.219000  11.0000 196.9666
    165    1 Au   79     12.438000      4.146000      4.146000  11.0000 196.9666
    166    1 Au   79     14.511000      6.219000      4.146000  11.0000 196.9666
    167    1 Au   79     14.511000      4.146000      6.219000  11.0000 196.9666
    168    1 Au   79     12.438000      6.219000      6.219000  11.0000 196.9666
    169    1 Au   79     12.438000      8.292000      4.146000  11.0000 196.9666
    170    1 Au   79     14.511000     10.365000      4.146000  11.0000 196.9666
    171    1 Au   79     14.511000      8.292000      6.219000  11.0000 196.9666
    172    1 Au   79     12.438000     10.365000      6.219000  11.0000 196.9666
    173    1 Au   79     12.438000     12.438000      4.146000  11.0000 196.9666
    174    1 Au   79     14.511000     14.511000      4.146000  11.0000 196.9666
    175    1 Au   79     14.511000     12.438000      6.219000  11.0000 196.9666
    176    1 Au   79     12.438000     14.511000      6.219000  11.0000 196.9666
    177    1 Au   79     12.438000     16.584000      4.146000  11.0000 196.9666
    178    1 Au   79     14.511000     18.657000      4.146000  11.0000 196.9666
    179    1 Au   79     14.511000     16.584000      6.219000  11.0000 196.9666
    180    1 Au   79     12.438000     18.657000      6.219000  11.0000 196.9666
    181    1 Au   79     16.584000      0.000000      4.146000  11.0000 196.9666
    182    1 Au   79     18.657000      2.073000      4.146000  11.0000 196.9666
    183    1 Au   79     18.657000      0.000000      6.219000  11.0000 196.9666
    184    1 Au   79     16.584000      2.073000      6.219000  11.0000 196.9666
    185    1 Au   79     16.584000      4.146000      4.146000  11.0000 196.9666
    186    1 Au   79     18.657000      6.219000      4.146000  11.0000 196.9666
    187    1 Au   79     18.657000      4.146000      6.219000  11.0000 196.9666
    188    1 Au   79     16.584000      6.219000      6.219000  11.0000 196.9666
    189    1 Au   79     16.584000      8.292000      4.146000  11.0000 196.9666
    190    1 Au   79     18.657000     10.365000      4.146000  11.0000 196.9666
    191    1 Au   79     18.657000      8.292000      6.219000  11.0000 196.9666
    192    1 Au   79     16.584000     10.365000      6.219000  11.0000 196.9666
    193    1 Au   79     16.584000     12.438000      4.146000  11.0000 196.9666
    194    1 Au   79     18.657000     14.511000      4.146000  11.0000 196.9666
    195    1 Au   79     18.657000     12.438000      6.219000  11.0000 196.9666
    196    1 Au   79     16.584000     14.511000      6.219000  11.0000 196.9666
    197    1 Au   79     16.584000     16.584000      4.146000  11.0000 196.9666
    198    1 Au   79     18.657000     18.657000      4.146000  11.0000 196.9666
    199    1 Au   79     18.657000     16.584000      6.219000  11.0000 196.9666
    200    1 Au   79     16.584000     18.657000      6.219000  11.0000 196.9666



 SCF PARAMETERS         Density guess:                                    ATOMIC
                        --------------------------------------------------------
                        max_scf:                                             100
                        max_scf_history:                                       0
                        max_diis:                                              4
                        --------------------------------------------------------
                        eps_scf:                                        1.00E-07
                        eps_scf_history:                                0.00E+00
                        eps_diis:                                       1.00E-01
                        eps_eigval:                                     1.00E-05
                        --------------------------------------------------------
                        level_shift [a.u.]:                             0.000000
                        added MOs                                       100    0
                        --------------------------------------------------------
                        Mixing method:                            BROYDEN_MIXING
                                                charge density mixing in g-space
                        --------------------------------------------------------
                        Smear method:                                FERMI_DIRAC
                        Electronic temperature [K]:                        300.0
                        Electronic temperature [a.u.]:                  9.50E-04
                        Accuracy threshold:                             1.00E-10
                        --------------------------------------------------------
                        No outer SCF

 PW_GRID| Information for grid number                                          1
 PW_GRID| Grid distributed over                                   128 processors
 PW_GRID| Real space group dimensions                                   128    1
 PW_GRID| the grid is blocked:                                                NO
 PW_GRID| Cutoff [a.u.]                                                    200.0
 PW_GRID| spherical cutoff:                                                   NO
 PW_GRID|   Bounds   1           -126     125                Points:         252
 PW_GRID|   Bounds   2           -126     125                Points:         252
 PW_GRID|   Bounds   3            -49      49                Points:          99
 PW_GRID| Volume element (a.u.^3)  0.3825E-02     Volume (a.u.^3)     24046.6457
 PW_GRID| Grid span                                                    FULLSPACE
 PW_GRID|   Distribution                         Average         Max         Min
 PW_GRID|   G-Vectors                            49116.4       49140       48888
 PW_GRID|   G-Rays                                 194.9         195         194
 PW_GRID|   Real Space Points                    49116.4       49896       24948

 PW_GRID| Information for grid number                                          2
 PW_GRID| Number of the reference grid                                         1
 PW_GRID| Grid distributed over                                   128 processors
 PW_GRID| Real space group dimensions                                   128    1
 PW_GRID| the grid is blocked:                                                NO
 PW_GRID| Cutoff [a.u.]                                                     66.7
 PW_GRID| spherical cutoff:                                                   NO
 PW_GRID|   Bounds   1            -72      71                Points:         144
 PW_GRID|   Bounds   2            -72      71                Points:         144
 PW_GRID|   Bounds   3            -30      29                Points:          60
 PW_GRID| Volume element (a.u.^3)  0.1933E-01     Volume (a.u.^3)     24046.6457
 PW_GRID| Grid span                                                    FULLSPACE
 PW_GRID|   Distribution                         Average         Max         Min
 PW_GRID|   G-Vectors                             9720.0       11088        8640
 PW_GRID|   G-Rays                                  67.5          77          60
 PW_GRID|   Real Space Points                     9720.0       17280        8640

 PW_GRID| Information for grid number                                          3
 PW_GRID| Number of the reference grid                                         1
 PW_GRID| Grid distributed over                                   128 processors
 PW_GRID| Real space group dimensions                                     8   16
 PW_GRID| the grid is blocked:                                                NO
 PW_GRID| Cutoff [a.u.]                                                     22.2
 PW_GRID| spherical cutoff:                                                   NO
 PW_GRID|   Bounds   1            -42      41                Points:          84
 PW_GRID|   Bounds   2            -42      41                Points:          84
 PW_GRID|   Bounds   3            -16      16                Points:          33
 PW_GRID| Volume element (a.u.^3)  0.1033         Volume (a.u.^3)     24046.6457
 PW_GRID| Grid span                                                    FULLSPACE
 PW_GRID|   Distribution                         Average         Max         Min
 PW_GRID|   G-Vectors                             1819.1        2184        1428
 PW_GRID|   G-Rays                                  21.7          26          17
 PW_GRID|   Real Space Points                     1819.1        2178        1650

 PW_GRID| Information for grid number                                          4
 PW_GRID| Number of the reference grid                                         1
 PW_GRID| Grid distributed over                                   128 processors
 PW_GRID| Real space group dimensions                                     8   16
 PW_GRID| the grid is blocked:                                                NO
 PW_GRID| Cutoff [a.u.]                                                      7.4
 PW_GRID| spherical cutoff:                                                   NO
 PW_GRID|   Bounds   1            -24      23                Points:          48
 PW_GRID|   Bounds   2            -24      23                Points:          48
 PW_GRID|   Bounds   3            -10       9                Points:          20
 PW_GRID| Volume element (a.u.^3)  0.5218         Volume (a.u.^3)     24046.6457
 PW_GRID| Grid span                                                    FULLSPACE
 PW_GRID|   Distribution                         Average         Max         Min
 PW_GRID|   G-Vectors                              360.0         576         144
 PW_GRID|   G-Rays                                   7.5          12           3
 PW_GRID|   Real Space Points                      360.0         360         360

 POISSON| Solver                                                        PERIODIC
 POISSON| Periodicity                                                        XYZ

 RS_GRID| Information for grid number                                          1
 RS_GRID|   Bounds   1           -126     125                Points:         252
 RS_GRID|   Bounds   2           -126     125                Points:         252
 RS_GRID|   Bounds   3            -49      49                Points:          99
 RS_GRID| Real space distribution over                                  8 groups
 RS_GRID| Real space distribution along direction                              1
 RS_GRID| Border size                                                         29
 RS_GRID| Real space distribution over                                 16 groups
 RS_GRID| Real space distribution along direction                              2
 RS_GRID| Border size                                                         29
 RS_GRID|   Distribution                         Average         Max         Min
 RS_GRID|   Planes                                  89.5          90          89
 RS_GRID|   Distribution                         Average         Max         Min
 RS_GRID|   Planes                                  73.8          74          73

 RS_GRID| Information for grid number                                          2
 RS_GRID|   Bounds   1            -72      71                Points:         144
 RS_GRID|   Bounds   2            -72      71                Points:         144
 RS_GRID|   Bounds   3            -30      29                Points:          60
 RS_GRID| Real space distribution over                                  8 groups
 RS_GRID| Real space distribution along direction                              1
 RS_GRID| Border size                                                         20
 RS_GRID| Real space distribution over                                 16 groups
 RS_GRID| Real space distribution along direction                              2
 RS_GRID| Border size                                                         20
 RS_GRID|   Distribution                         Average         Max         Min
 RS_GRID|   Planes                                  58.0          58          58
 RS_GRID|   Distribution                         Average         Max         Min
 RS_GRID|   Planes                                  49.0          49          49

 RS_GRID| Information for grid number                                          3
 RS_GRID|   Bounds   1            -42      41                Points:          84
 RS_GRID|   Bounds   2            -42      41                Points:          84
 RS_GRID|   Bounds   3            -16      16                Points:          33
 RS_GRID| Real space fully replicated
 RS_GRID| Group size                                                           1

 RS_GRID| Information for grid number                                          4
 RS_GRID|   Bounds   1            -24      23                Points:          48
 RS_GRID|   Bounds   2            -24      23                Points:          48
 RS_GRID|   Bounds   3            -10       9                Points:          20
 RS_GRID| Real space fully replicated
 RS_GRID| Group size                                                           1

 KPOINTS| Number of kpoint groups                                              1
 KPOINTS| Size of each kpoint group                                          128
 KPOINTS| Number of kpoints per group                                         20

 Number of electrons:                                                       2200
 Number of occupied orbitals:                                               1100
 Number of molecular orbitals:                                              1200

 Number of orbital functions:                                               1800
 Number of independent orbital functions:                                   1800

 Extrapolation method: initial_guess

 Atomic guess: The first density matrix is obtained in terms of atomic orbitals
               and electronic configurations assigned to each atomic kind

 Guess for atomic kind: Au

 Electronic structure
    Total number of core electrons                                         68.00
    Total number of valence electrons                                      11.00
    Total number of electrons                                              79.00
    Multiplicity                                                   not specified
    S   [  2.00  2.00  2.00  2.00  2.00] 1.00
    P   [  6.00  6.00  6.00  6.00]
    D   [ 10.00 10.00]10.00
    F   [ 14.00]


 *******************************************************************************
                  Iteration          Convergence                     Energy [au]
 *******************************************************************************
                          1         0.00000                     -33.033218197848

 Energy components [Hartree]           Total Energy ::          -33.033218197848
                                        Band Energy ::           -1.147505983145
                                     Kinetic Energy ::           24.744064437587
                                   Potential Energy ::          -57.777282635435
                                      Virial (-V/T) ::            2.334995642336
                                        Core Energy ::          -60.197309615488
                                          XC Energy ::           -5.116883226844
                                     Coulomb Energy ::           32.280974644483
                       Total Pseudopotential Energy ::          -85.042885173964
                       Local Pseudopotential Energy ::          -66.341694915099
                    Nonlocal Pseudopotential Energy ::          -18.701190258865
                                        Confinement ::            1.015111208892

 Orbital energies  State     L     Occupation   Energy[a.u.]          Energy[eV]

                       1     0          1.000      -0.213792           -5.817572

                       1     2         10.000      -0.093371           -2.540765


 Total Electron Density at R=0:                                         0.000035
 Re-scaling the density matrix to get the right number of electrons
                  # Electrons              Trace(P)               Scaling factor
                         2200              2200.000                        1.000


 SCF WAVEFUNCTION OPTIMIZATION

  Step     Update method      Time    Convergence         Total energy    Change
  ------------------------------------------------------------------------------
     1 NoMix/Diag. 0.30E+00   17.6     0.24409039     -6661.1519282575 -6.66E+03
     2 Broy./Diag. 0.30E+00   16.8     0.04285965     -6806.2078675238 -1.45E+02
     3 Broy./Diag. 0.30E+00   16.8     0.03809953     -6703.2634125384  1.03E+02
     4 Broy./Diag. 0.30E+00   16.7     0.00129667     -6659.2203780158  4.40E+01
     5 Broy./Diag. 0.30E+00   16.7     0.00027437     -6657.3169631153  1.90E+00
     6 Broy./Diag. 0.30E+00   16.8     0.00006203     -6657.1276892630  1.89E-01
     7 Broy./Diag. 0.30E+00   16.7     0.00000406     -6657.2079757938 -8.03E-02
     8 Broy./Diag. 0.30E+00   16.7     0.00000238     -6657.2143570688 -6.38E-03
     9 Broy./Diag. 0.30E+00   16.7     0.00000017     -6657.2121779671  2.18E-03
    10 Broy./Diag. 0.30E+00   16.7     0.00000032     -6657.2118737612  3.04E-04
    11 Broy./Diag. 0.30E+00   16.7     8.9137E-09     -6657.2118292472  4.45E-05

  *** SCF run converged in    11 steps ***


  Electronic density on regular grids:      -2199.9999999737        0.0000000263
  Core density on regular grids:             2199.9999996384       -0.0000003616
  Total charge density on r-space grids:       -0.0000003353
  Total charge density g-space grids:          -0.0000003353

  Overlap energy of the core charge distribution:               0.00000082400920
  Self energy of the core charge distribution:             -11570.66773038619067
  Core Hamiltonian energy:                                   3667.92139206924639
  Hartree energy:                                            2285.01943711321428
  Exchange-correlation energy:                              -1039.47808926826292
  Electronic entropic energy:                                  -0.00683959967170
  Fermi energy:                                                 0.34686050541236

  Total energy:                                             -6657.21182924719596

 The electron density is written in cube file format to the file:

 bulk-ELECTRON_DENSITY-1_0.cube

 !-----------------------------------------------------------------------------!
                     Mulliken Population Analysis

 #  Atom  Element  Kind  Atomic population                           Net charge
       1     Au       1         10.999998                              0.000002
       2     Au       1         11.000003                             -0.000003
       3     Au       1         11.000001                             -0.000001
       4     Au       1         11.000001                             -0.000001
       5     Au       1         10.999998                              0.000002
       6     Au       1         11.000000                             -0.000000
       7     Au       1         11.000000                             -0.000000
       8     Au       1         10.999998                              0.000002
       9     Au       1         11.000000                             -0.000000
      10     Au       1         11.000000                             -0.000000
      11     Au       1         11.000003                             -0.000003
      12     Au       1         10.999999                              0.000001
      13     Au       1         11.000000                             -0.000000
      14     Au       1         11.000000                             -0.000000
      15     Au       1         11.000003                             -0.000003
      16     Au       1         10.999998                              0.000002
      17     Au       1         10.999998                              0.000002
      18     Au       1         11.000003                             -0.000003
      19     Au       1         11.000000                             -0.000000
      20     Au       1         11.000001                             -0.000001
      21     Au       1         10.999998                              0.000002
      22     Au       1         11.000000                             -0.000000
      23     Au       1         10.999998                              0.000002
      24     Au       1         11.000000                             -0.000000
      25     Au       1         10.999998                              0.000002
      26     Au       1         10.999998                              0.000002
      27     Au       1         10.999998                              0.000002
      28     Au       1         10.999998                              0.000002
      29     Au       1         11.000000                             -0.000000
      30     Au       1         10.999998                              0.000002
      31     Au       1         11.000000                             -0.000000
      32     Au       1         10.999998                              0.000002
      33     Au       1         11.000000                             -0.000000
      34     Au       1         10.999998                              0.000002
      35     Au       1         11.000000                             -0.000000
      36     Au       1         10.999998                              0.000002
      37     Au       1         10.999998                              0.000002
      38     Au       1         11.000000                             -0.000000
      39     Au       1         10.999998                              0.000002
      40     Au       1         11.000000                             -0.000000
      41     Au       1         11.000000                             -0.000000
      42     Au       1         11.000000                             -0.000000
      43     Au       1         10.999999                              0.000001
      44     Au       1         11.000003                             -0.000003
      45     Au       1         11.000000                             -0.000000
      46     Au       1         10.999998                              0.000002
      47     Au       1         10.999998                              0.000002
      48     Au       1         11.000000                             -0.000000
      49     Au       1         11.000003                             -0.000003
      50     Au       1         10.999998                              0.000002
      51     Au       1         11.000001                             -0.000001
      52     Au       1         11.000001                             -0.000001
      53     Au       1         11.000003                             -0.000003
      54     Au       1         10.999998                              0.000002
      55     Au       1         11.000001                             -0.000001
      56     Au       1         11.000000                             -0.000000
      57     Au       1         11.000000                             -0.000000
      58     Au       1         11.000000                             -0.000000
      59     Au       1         10.999998                              0.000002
      60     Au       1         11.000003                             -0.000003
      61     Au       1         11.000000                             -0.000000
      62     Au       1         11.000000                             -0.000000
      63     Au       1         10.999998                              0.000002
      64     Au       1         11.000003                             -0.000003
      65     Au       1         11.000000                             -0.000000
      66     Au       1         10.999998                              0.000002
      67     Au       1         10.999998                              0.000002
      68     Au       1         11.000000                             -0.000000
      69     Au       1         11.000003                             -0.000003
      70     Au       1         10.999998                              0.000002
      71     Au       1         11.000000                             -0.000000
      72     Au       1         11.000001                             -0.000001
      73     Au       1         11.000003                             -0.000003
      74     Au       1         10.999998                              0.000002
      75     Au       1         11.000000                             -0.000000
      76     Au       1         11.000000                             -0.000000
      77     Au       1         11.000000                             -0.000000
      78     Au       1         11.000000                             -0.000000
      79     Au       1         10.999998                              0.000002
      80     Au       1         11.000003                             -0.000003
      81     Au       1         10.999998                              0.000002
      82     Au       1         11.000003                             -0.000003
      83     Au       1         11.000001                             -0.000001
      84     Au       1         11.000000                             -0.000000
      85     Au       1         10.999998                              0.000002
      86     Au       1         11.000000                             -0.000000
      87     Au       1         11.000000                             -0.000000
      88     Au       1         10.999998                              0.000002
      89     Au       1         11.000000                             -0.000000
      90     Au       1         11.000000                             -0.000000
      91     Au       1         11.000003                             -0.000003
      92     Au       1         10.999998                              0.000002
      93     Au       1         11.000000                             -0.000000
      94     Au       1         11.000000                             -0.000000
      95     Au       1         11.000003                             -0.000003
      96     Au       1         10.999998                              0.000002
      97     Au       1         10.999998                              0.000002
      98     Au       1         11.000003                             -0.000003
      99     Au       1         11.000000                             -0.000000
     100     Au       1         11.000000                             -0.000000
     101     Au       1         10.999999                              0.000001
     102     Au       1         11.000003                             -0.000003
     103     Au       1         11.000001                             -0.000001
     104     Au       1         11.000001                             -0.000001
     105     Au       1         10.999999                              0.000001
     106     Au       1         11.000000                             -0.000000
     107     Au       1         11.000000                             -0.000000
     108     Au       1         10.999998                              0.000002
     109     Au       1         11.000001                             -0.000001
     110     Au       1         11.000001                             -0.000001
     111     Au       1         11.000003                             -0.000003
     112     Au       1         10.999999                              0.000001
     113     Au       1         11.000001                             -0.000001
     114     Au       1         11.000000                             -0.000000
     115     Au       1         11.000003                             -0.000003
     116     Au       1         10.999998                              0.000002
     117     Au       1         10.999999                              0.000001
     118     Au       1         11.000003                             -0.000003
     119     Au       1         11.000000                             -0.000000
     120     Au       1         11.000001                             -0.000001
     121     Au       1         10.999999                              0.000001
     122     Au       1         11.000000                             -0.000000
     123     Au       1         10.999998                              0.000002
     124     Au       1         11.000000                             -0.000000
     125     Au       1         10.999998                              0.000002
     126     Au       1         10.999998                              0.000002
     127     Au       1         10.999998                              0.000002
     128     Au       1         10.999998                              0.000002
     129     Au       1         11.000000                             -0.000000
     130     Au       1         10.999999                              0.000001
     131     Au       1         11.000000                             -0.000000
     132     Au       1         10.999998                              0.000002
     133     Au       1         11.000000                             -0.000000
     134     Au       1         10.999998                              0.000002
     135     Au       1         11.000000                             -0.000000
     136     Au       1         10.999998                              0.000002
     137     Au       1         10.999998                              0.000002
     138     Au       1         11.000000                             -0.000000
     139     Au       1         10.999998                              0.000002
     140     Au       1         11.000000                             -0.000000
     141     Au       1         11.000001                             -0.000001
     142     Au       1         11.000001                             -0.000001
     143     Au       1         10.999999                              0.000001
     144     Au       1         11.000003                             -0.000003
     145     Au       1         11.000000                             -0.000000
     146     Au       1         10.999999                              0.000001
     147     Au       1         10.999998                              0.000002
     148     Au       1         11.000000                             -0.000000
     149     Au       1         11.000003                             -0.000003
     150     Au       1         10.999999                              0.000001
     151     Au       1         11.000001                             -0.000001
     152     Au       1         11.000001                             -0.000001
     153     Au       1         11.000003                             -0.000003
     154     Au       1         10.999999                              0.000001
     155     Au       1         11.000001                             -0.000001
     156     Au       1         11.000000                             -0.000000
     157     Au       1         11.000000                             -0.000000
     158     Au       1         11.000001                             -0.000001
     159     Au       1         10.999998                              0.000002
     160     Au       1         11.000003                             -0.000003
     161     Au       1         11.000001                             -0.000001
     162     Au       1         11.000000                             -0.000000
     163     Au       1         10.999998                              0.000002
     164     Au       1         11.000003                             -0.000003
     165     Au       1         11.000000                             -0.000000
     166     Au       1         10.999998                              0.000002
     167     Au       1         10.999998                              0.000002
     168     Au       1         11.000000                             -0.000000
     169     Au       1         11.000003                             -0.000003
     170     Au       1         10.999999                              0.000001
     171     Au       1         11.000000                             -0.000000
     172     Au       1         11.000001                             -0.000001
     173     Au       1         11.000003                             -0.000003
     174     Au       1         10.999998                              0.000002
     175     Au       1         11.000000                             -0.000000
     176     Au       1         11.000000                             -0.000000
     177     Au       1         11.000000                             -0.000000
     178     Au       1         11.000000                             -0.000000
     179     Au       1         10.999998                              0.000002
     180     Au       1         11.000003                             -0.000003
     181     Au       1         10.999999                              0.000001
     182     Au       1         11.000003                             -0.000003
     183     Au       1         11.000001                             -0.000001
     184     Au       1         11.000000                             -0.000000
     185     Au       1         10.999998                              0.000002
     186     Au       1         11.000000                             -0.000000
     187     Au       1         11.000000                             -0.000000
     188     Au       1         10.999998                              0.000002
     189     Au       1         11.000000                             -0.000000
     190     Au       1         11.000001                             -0.000001
     191     Au       1         11.000003                             -0.000003
     192     Au       1         10.999998                              0.000002
     193     Au       1         11.000000                             -0.000000
     194     Au       1         11.000000                             -0.000000
     195     Au       1         11.000003                             -0.000003
     196     Au       1         10.999998                              0.000002
     197     Au       1         10.999998                              0.000002
     198     Au       1         11.000003                             -0.000003
     199     Au       1         11.000000                             -0.000000
     200     Au       1         11.000000                             -0.000000
 # Total charge                           2200.000000                 -0.000000

 !-----------------------------------------------------------------------------!

 !-----------------------------------------------------------------------------!
                           Hirshfeld Charges

  #Atom  Element  Kind  Ref Charge     Population                    Net charge
      1       Au     1      11.000         11.000                         0.000
      2       Au     1      11.000         11.000                        -0.000
      3       Au     1      11.000         11.000                         0.000
      4       Au     1      11.000         11.000                         0.000
      5       Au     1      11.000         11.000                         0.000
      6       Au     1      11.000         11.000                         0.000
      7       Au     1      11.000         11.000                        -0.000
      8       Au     1      11.000         11.000                         0.000
      9       Au     1      11.000         11.000                         0.000
     10       Au     1      11.000         11.000                         0.000
     11       Au     1      11.000         11.000                        -0.000
     12       Au     1      11.000         11.000                         0.000
     13       Au     1      11.000         11.000                         0.000
     14       Au     1      11.000         11.000                         0.000
     15       Au     1      11.000         11.000                        -0.000
     16       Au     1      11.000         11.000                         0.000
     17       Au     1      11.000         11.000                         0.000
     18       Au     1      11.000         11.000                        -0.000
     19       Au     1      11.000         11.000                        -0.000
     20       Au     1      11.000         11.000                         0.000
     21       Au     1      11.000         11.000                         0.000
     22       Au     1      11.000         11.000                         0.000
     23       Au     1      11.000         11.000                         0.000
     24       Au     1      11.000         11.000                        -0.000
     25       Au     1      11.000         11.000                         0.000
     26       Au     1      11.000         11.000                         0.000
     27       Au     1      11.000         11.000                        -0.000
     28       Au     1      11.000         11.000                        -0.000
     29       Au     1      11.000         11.000                         0.000
     30       Au     1      11.000         11.000                         0.000
     31       Au     1      11.000         11.000                        -0.000
     32       Au     1      11.000         11.000                         0.000
     33       Au     1      11.000         11.000                         0.000
     34       Au     1      11.000         11.000                         0.000
     35       Au     1      11.000         11.000                        -0.000
     36       Au     1      11.000         11.000                        -0.000
     37       Au     1      11.000         11.000                         0.000
     38       Au     1      11.000         11.000                         0.000
     39       Au     1      11.000         11.000                        -0.000
     40       Au     1      11.000         11.000                        -0.000
     41       Au     1      11.000         11.000                         0.000
     42       Au     1      11.000         11.000                         0.000
     43       Au     1      11.000         11.000                         0.000
     44       Au     1      11.000         11.000                        -0.000
     45       Au     1      11.000         11.000                         0.000
     46       Au     1      11.000         11.000                         0.000
     47       Au     1      11.000         11.000                         0.000
     48       Au     1      11.000         11.000                        -0.000
     49       Au     1      11.000         11.000                        -0.000
     50       Au     1      11.000         11.000                         0.000
     51       Au     1      11.000         11.000                         0.000
     52       Au     1      11.000         11.000                         0.000
     53       Au     1      11.000         11.000                        -0.000
     54       Au     1      11.000         11.000                         0.000
     55       Au     1      11.000         11.000                         0.000
     56       Au     1      11.000         11.000                        -0.000
     57       Au     1      11.000         11.000                         0.000
     58       Au     1      11.000         11.000                         0.000
     59       Au     1      11.000         11.000                         0.000
     60       Au     1      11.000         11.000                        -0.000
     61       Au     1      11.000         11.000                         0.000
     62       Au     1      11.000         11.000                         0.000
     63       Au     1      11.000         11.000                         0.000
     64       Au     1      11.000         11.000                        -0.000
     65       Au     1      11.000         11.000                         0.000
     66       Au     1      11.000         11.000                         0.000
     67       Au     1      11.000         11.000                        -0.000
     68       Au     1      11.000         11.000                        -0.000
     69       Au     1      11.000         11.000                        -0.000
     70       Au     1      11.000         11.000                         0.000
     71       Au     1      11.000         11.000                        -0.000
     72       Au     1      11.000         11.000                         0.000
     73       Au     1      11.000         11.000                        -0.000
     74       Au     1      11.000         11.000                         0.000
     75       Au     1      11.000         11.000                        -0.000
     76       Au     1      11.000         11.000                        -0.000
     77       Au     1      11.000         11.000                         0.000
     78       Au     1      11.000         11.000                         0.000
     79       Au     1      11.000         11.000                        -0.000
     80       Au     1      11.000         11.000                        -0.000
     81       Au     1      11.000         11.000                         0.000
     82       Au     1      11.000         11.000                        -0.000
     83       Au     1      11.000         11.000                         0.000
     84       Au     1      11.000         11.000                        -0.000
     85       Au     1      11.000         11.000                         0.000
     86       Au     1      11.000         11.000                         0.000
[...]
    105       Au     1      11.000         11.000                         0.000
    106       Au     1      11.000         11.000                        -0.000
    107       Au     1      11.000         11.000                        -0.000
    108       Au     1      11.000         11.000                         0.000
    109       Au     1      11.000         11.000                         0.000
    110       Au     1      11.000         11.000                         0.000
    111       Au     1      11.000         11.000                        -0.000
    112       Au     1      11.000         11.000                         0.000
    113       Au     1      11.000         11.000                         0.000
    114       Au     1      11.000         11.000                        -0.000
    115       Au     1      11.000         11.000                        -0.000
    116       Au     1      11.000         11.000                         0.000
    117       Au     1      11.000         11.000                         0.000
    118       Au     1      11.000         11.000                        -0.000
    119       Au     1      11.000         11.000                        -0.000
    120       Au     1      11.000         11.000                         0.000
    121       Au     1      11.000         11.000                         0.000
    122       Au     1      11.000         11.000                        -0.000
    123       Au     1      11.000         11.000                         0.000
    124       Au     1      11.000         11.000                        -0.000
    125       Au     1      11.000         11.000                        -0.000
    126       Au     1      11.000         11.000                        -0.000
    127       Au     1      11.000         11.000                        -0.000
    128       Au     1      11.000         11.000                        -0.000
    129       Au     1      11.000         11.000                        -0.000
    130       Au     1      11.000         11.000                         0.000
    131       Au     1      11.000         11.000                        -0.000
    132       Au     1      11.000         11.000                         0.000
    133       Au     1      11.000         11.000                        -0.000
    134       Au     1      11.000         11.000                        -0.000
    135       Au     1      11.000         11.000                        -0.000
    136       Au     1      11.000         11.000                        -0.000
    137       Au     1      11.000         11.000                        -0.000
    138       Au     1      11.000         11.000                        -0.000
    139       Au     1      11.000         11.000                        -0.000
    140       Au     1      11.000         11.000                        -0.000
    141       Au     1      11.000         11.000                         0.000
    142       Au     1      11.000         11.000                         0.000
    143       Au     1      11.000         11.000                         0.000
    144       Au     1      11.000         11.000                        -0.000
    145       Au     1      11.000         11.000                        -0.000
    146       Au     1      11.000         11.000                         0.000
    147       Au     1      11.000         11.000                         0.000
    148       Au     1      11.000         11.000                        -0.000
    149       Au     1      11.000         11.000                        -0.000
    150       Au     1      11.000         11.000                         0.000
    151       Au     1      11.000         11.000                         0.000
    152       Au     1      11.000         11.000                         0.000
    153       Au     1      11.000         11.000                        -0.000
    154       Au     1      11.000         11.000                         0.000
    155       Au     1      11.000         11.000                         0.000
    156       Au     1      11.000         11.000                        -0.000
    157       Au     1      11.000         11.000                        -0.000
    158       Au     1      11.000         11.000                         0.000
    159       Au     1      11.000         11.000                         0.000
    160       Au     1      11.000         11.000                        -0.000
    161       Au     1      11.000         11.000                         0.000
    162       Au     1      11.000         11.000                        -0.000
    163       Au     1      11.000         11.000                         0.000
    164       Au     1      11.000         11.000                        -0.000
    165       Au     1      11.000         11.000                        -0.000
    166       Au     1      11.000         11.000                        -0.000
    167       Au     1      11.000         11.000                        -0.000
    168       Au     1      11.000         11.000                        -0.000
    169       Au     1      11.000         11.000                        -0.000
    170       Au     1      11.000         11.000                         0.000
    171       Au     1      11.000         11.000                        -0.000
    172       Au     1      11.000         11.000                         0.000
    173       Au     1      11.000         11.000                        -0.000
    174       Au     1      11.000         11.000                        -0.000
    175       Au     1      11.000         11.000                        -0.000
    176       Au     1      11.000         11.000                        -0.000
    177       Au     1      11.000         11.000                        -0.000
    178       Au     1      11.000         11.000                        -0.000
    179       Au     1      11.000         11.000                        -0.000
    180       Au     1      11.000         11.000                        -0.000
    181       Au     1      11.000         11.000                         0.000
    182       Au     1      11.000         11.000                        -0.000
    183       Au     1      11.000         11.000                         0.000
    184       Au     1      11.000         11.000                        -0.000
    185       Au     1      11.000         11.000                        -0.000
    186       Au     1      11.000         11.000                        -0.000
    187       Au     1      11.000         11.000                        -0.000
    188       Au     1      11.000         11.000                        -0.000
    189       Au     1      11.000         11.000                        -0.000
    190       Au     1      11.000         11.000                         0.000
    191       Au     1      11.000         11.000                        -0.000
    192       Au     1      11.000         11.000                         0.000
    193       Au     1      11.000         11.000                        -0.000
    194       Au     1      11.000         11.000                        -0.000
    195       Au     1      11.000         11.000                        -0.000
    196       Au     1      11.000         11.000                        -0.000
    197       Au     1      11.000         11.000                        -0.000
    198       Au     1      11.000         11.000                        -0.000
    199       Au     1      11.000         11.000                        -0.000
    200       Au     1      11.000         11.000                        -0.000

  Total Charge                                                           -0.000
 !-----------------------------------------------------------------------------!

 BULKTRANSP| E_FERMI [a.u.] =                                   3.4686050541E-01
 BULKTRANSP| HartreeLeadsBottom [a.u.] =                       -4.0560802153E-01
 BULKTRANSP| Number of electrons:                                2200.0000022647

 ENERGY| Total FORCE_EVAL ( QS ) energy [a.u.]:            -6657.211829247195965

 -------------------------------------------------------------------------------
 -                                                                             -
 -                                DBCSR STATISTICS                             -
 -                                                                             -
 -------------------------------------------------------------------------------
 COUNTER                                    TOTAL       BLAS       SMM       ACC
 flops inhomo. stacks                           0       0.0%      0.0%      0.0%
 flops total                         0.000000E+00       0.0%      0.0%      0.0%
 flops max/rank                      0.000000E+00       0.0%      0.0%      0.0%
 matmuls inhomo. stacks                         0       0.0%      0.0%      0.0%
 matmuls total                                  0       0.0%      0.0%      0.0%
 number of processed stacks                     0       0.0%      0.0%      0.0%
 average stack size                                     0.0       0.0       0.0
 marketing flops                     0.000000E+00
 -------------------------------------------------------------------------------
 -                                                                             -
 -                      DBCSR MESSAGE PASSING PERFORMANCE                      -
 -                                                                             -
 -------------------------------------------------------------------------------
 ROUTINE             CALLS      AVE VOLUME [Bytes]
 MP_Bcast                1                     12.
 MP_Allreduce         1010                      8.
 MP_Alltoall         18860                 132966.
 -------------------------------------------------------------------------------

 -------------------------------------------------------------------------------
 -                                                                             -
 -                                DBM STATISTICS                               -
 -                                                                             -
 -------------------------------------------------------------------------------
    M  x    N  x    K                                          COUNT     PERCENT
 -------------------------------------------------------------------------------

 -------------------------------------------------------------------------------
 -                                                                             -
 -                                GRID STATISTICS                              -
 -                                                                             -
 -------------------------------------------------------------------------------
 LP    KERNEL             BACKEND                              COUNT     PERCENT
 4     collocate ortho    REF                                2457600      47.76%
 4     integrate ortho    REF                                2252800      43.78%
 0     collocate general  REF                                 230400       4.48%
 0     integrate general  REF                                 204800       3.98%
 -------------------------------------------------------------------------------

 MEMORY| Estimated peak process memory [MiB]                                 372

 -------------------------------------------------------------------------------
 ----                             MULTIGRID INFO                            ----
 -------------------------------------------------------------------------------
 count for grid        1:          26440          cutoff [a.u.]          200.00
 count for grid        2:         122168          cutoff [a.u.]           66.67
 count for grid        3:          73376          cutoff [a.u.]           22.22
 count for grid        4:         105696          cutoff [a.u.]            7.41
 total gridlevel count  :         327680

 -------------------------------------------------------------------------------
 -                                                                             -
 -                         MESSAGE PASSING PERFORMANCE                         -
 -                                                                             -
 -------------------------------------------------------------------------------

 ROUTINE             CALLS      AVE VOLUME [Bytes]
 MP_Group                5
 MP_Bcast             8345                  28755.
 MP_Allreduce         1034                   2535.
 MP_Sync                50
 MP_Alltoall           188                1163441.
 MP_ISendRecv         5842                  10152.
 MP_Wait             14104
 MP_ISend            11786                  41831.
 MP_IRecv            12310                  57648.
 MP_Recv              2520                 460800.
 MP_Write_All            2                 657216.
 -------------------------------------------------------------------------------


 -------------------------------------------------------------------------------
 -                                                                             -
 -                           R E F E R E N C E S                               -
 -                                                                             -
 -------------------------------------------------------------------------------
 
 CP2K version 2022.1 (Development Version), the CP2K developers group (2022).
 CP2K is freely available from https://www.cp2k.org/ .

 Kuehne,Thomas D.; Iannuzzi,Marcella; Del Ben,Mauro;
 Rybkin,Vladimir V.; Seewald,Patrick; Stein,Frederick; Laino,Teodoro;
 Khaliullin,Rustam Z.; Schuett,Ole; Schiffmann,Florian; Golze,Dorothea;
 Wilhelm,Jan; Chulkov,Sergey; Bani-Hashemian,Mohammad Hossein;
 Weber,Valery; Borstnik,Urban; Taillefumier,Mathieu;
 Jakobovits,Alice Shoshana; Lazzaro,Alfio; Pabst,Hans; Mueller,Tiziano;
 Schade,Robert; Guidon,Manuel; Andermatt,Samuel; Holmberg,Nico;
 Schenter,Gregory K.; Hehn,Anna; Bussy,Augustin; Belleflamme,Fabian;
 Tabacchi,Gloria; Gloess,Andreas; Lass,Michael; Bethune,Iain;
 Mundy,Christopher J.; Plessl,Christian; Watkins,Matt;
 VandeVondele,Joost; Krack,Matthias; Hutter,Juerg. 
 The Journal of Chemical Physics, 152 (19), (2020). 
 CP2K: An electronic structure and molecular dynamics software package -
 Quickstep: Efficient and accurate electronic structure calculations.
 https://doi.org/10.1063/5.0007045

 Schuett, Ole; Messmer, Peter; Hutter, Juerg; VandeVondele, Joost. 
 Electronic Structure Calculations on Graphics Processing Units, John
 Wiley & Sons, Ltd, 173-190 (2016). 
 GPU-Accelerated Sparse Matrix-Matrix Multiplication for
 Linear Scaling Density Functional Theory.
 https://doi.org/10.1002/9781118670712.ch8

 Borstnik, U; VandeVondele, J; Weber, V; Hutter, J. 
 PARALLEL COMPUTING, 40 (5-6), 47-58 (2014). 
 Sparse matrix multiplication: The distributed block-compressed sparse
 row library.
 https://doi.org/10.1016/j.parco.2014.03.012

 Hutter, J; Iannuzzi, M; Schiffmann, F; VandeVondele, J. 
 WIREs Comput Mol Sci., 4 (1), 15-25 (2014). 
 CP2K: atomistic simulations of condensed matter systems.
 https://doi.org/10.1002/wcms.1159

 Marek, A; Blum, V; Johanni, R; Havu, V; Lang, B; Auckenthaler, T;
 Heinecke, A; Bungartz, H; Lederer, H. 
 Journal of Physics: Condensed Matter, 26 (21), (2014). 
 The ELPA library: scalable parallel eigenvalue solutions for
 electronic structure
 theory and computational science.
 https://doi.org/10.1088/0953-8984/26/21/213201

 VandeVondele, J; Hutter, J. 
 JOURNAL OF CHEMICAL PHYSICS, 127 (11), 114105 (2007). 
 Gaussian basis sets for accurate calculations on molecular systems in
 gas and condensed phases.
 https://doi.org/10.1063/1.2770708

 Krack, M. 
 THEORETICAL CHEMISTRY ACCOUNTS, 114 (1-3), 145-152 (2005). 
 Pseudopotentials for H to Kr optimized for gradient-corrected
 exchange-correlation functionals.
 https://doi.org/10.1007/s00214-005-0655-y

 VandeVondele, J; Krack, M; Mohamed, F; Parrinello, M; Chassaing, T;
 Hutter, J. COMPUTER PHYSICS COMMUNICATIONS, 167 (2), 103-128 (2005). 
 QUICKSTEP: Fast and accurate density functional calculations using a
 mixed Gaussian and plane waves approach.
 https://doi.org/10.1016/j.cpc.2004.12.014

 Frigo, M; Johnson, SG. 
 PROCEEDINGS OF THE IEEE, 93 (2), 216-231 (2005). 
 The design and implementation of FFTW3.
 https://doi.org/10.1109/JPROC.2004.840301

 Hartwigsen, C; Goedecker, S; Hutter, J. 
 PHYSICAL REVIEW B, 58 (7), 3641-3662 (1998). 
 Relativistic separable dual-space Gaussian pseudopotentials from H to Rn.
 https://doi.org/10.1103/PhysRevB.58.3641

 Lippert, G; Hutter, J; Parrinello, M. 
 MOLECULAR PHYSICS, 92 (3), 477-487 (1997). 
 A hybrid Gaussian and plane wave density functional scheme.
 https://doi.org/10.1080/002689797170220

 Goedecker, S; Teter, M; Hutter, J. 
 PHYSICAL REVIEW B, 54 (3), 1703-1710 (1996). 
 Separable dual-space Gaussian pseudopotentials.
 https://doi.org/10.1103/PhysRevB.54.1703


 -------------------------------------------------------------------------------
 -                                                                             -
 -                                T I M I N G                                  -
 -                                                                             -
 -------------------------------------------------------------------------------
 SUBROUTINE                       CALLS  ASD         SELF TIME        TOTAL TIME
                                MAXIMUM       AVERAGE  MAXIMUM  AVERAGE  MAXIMUM
 CP2K                                 1  1.0    0.883    0.896  278.622  278.627
 qs_energies                          1  2.0    0.002    0.004  276.900  277.058
 scf_env_do_scf                       1  3.0    0.000    0.002  187.090  187.120
 scf_env_do_scf_inner_loop           11  4.0    0.014    0.029  187.089  187.119
 qs_scf_new_mos_kp                   11  5.0    0.000    0.002  181.986  181.990
 do_general_diag_kp                  11  6.0    0.015    0.018  181.985  181.990
 cp_cfm_geeig                       220  7.0    0.006    0.008  168.604  168.666
 cp_cfm_heevd                       220  8.0  112.469  114.099  112.469  114.099
 run_smeagol_bulktrans                1  3.0    0.679   86.139   87.309   87.465
 mp_waitall_1                     12934 10.2   85.828   86.527   85.828   86.527
 convert_dbcsr_to_distributed_s       4  4.0    0.003    0.168   85.764   86.441
 cp_cfm_triangular_multiply         660  8.0   44.075   45.713   44.075   45.713
 kpoint_density_matrices             12  6.8    0.049    0.054    8.864    8.888
 cp_gemm                            960  7.8    0.001    0.001    8.798    8.827
 cp_gemm_fm_gemm                    960  8.8    0.001    0.002    8.797    8.826
 cp_fm_gemm                         960  9.8    8.796    8.825    8.796    8.825
 cp_cfm_cholesky_decompose          220  8.0    6.668    7.148    6.668    7.148
 -------------------------------------------------------------------------------

 The number of warnings for this run is : 1
 
 -------------------------------------------------------------------------------
  **** **** ******  **  PROGRAM ENDED AT                 2023-11-22 15:19:23.593
 ***** ** ***  *** **   PROGRAM RAN ON                                 nid001027
 **    ****   ******    PROGRAM RAN BY                                    cahart
 ***** **    ** ** **   PROGRAM PROCESS ID                                184035
  **** **  *******  **  PROGRAM STOPPED IN /mnt/lustre/a2fs-work2/work/e05/e05/c
                                           ahart/postdoc/transport/cp2k-smeagol-
                                           examples/benchmarking/cp2k-smeagol/au
                                           -bdt/NEnergReal-64_kpoints-1-1-20/ato
                                           ms-662/bulk
