 DBCSR| CPU Multiplication driver                                           XSMM
 DBCSR| Multrec recursion limit                                              512
 DBCSR| Multiplication stack size                                           1000
 DBCSR| Maximum elements for images                                    UNLIMITED
 DBCSR| Multiplicative factor virtual images                                   1
 DBCSR| Use multiplication densification                                       T
 DBCSR| Multiplication size stacks                                             3
 DBCSR| Use memory pool for CPU allocation                                     F
 DBCSR| Number of 3D layers                                               SINGLE
 DBCSR| Use MPI memory allocation                                              F
 DBCSR| Use RMA algorithm                                                      F
 DBCSR| Use Communication thread                                               T
 DBCSR| Communication thread load                                             87
 DBCSR| MPI: My node id                                                        0
 DBCSR| MPI: Number of nodes                                                 512
 DBCSR| OMP: Current number of threads                                         1
 DBCSR| OMP: Max number of threads                                             1
 DBCSR| Split modifier for TAS multiplication algorithm                  1.0E+00


  **** **** ******  **  PROGRAM STARTED AT               2024-01-09 17:13:47.139
 ***** ** ***  *** **   PROGRAM STARTED ON                           hx1-c08-1-1
 **    ****   ******    PROGRAM STARTED BY                                cahart
 ***** **    ** ** **   PROGRAM PROCESS ID                               2134528
  **** **  *******  **  PROGRAM STARTED IN /gpfs/home/cahart/transport/melamine/
                                           au_from-h2/capacitor/dft_sz_kpoints-1
                                           -1-20

 CP2K| version string:                 CP2K version 2022.1 (Development Version)
 CP2K| source code revision number:                                  git:5518aa6
 CP2K| cp2kflags: omp libint fftw3 libxc parallel mpi3 scalapack xsmm plumed2   
 CP2K| is freely available from                            https://www.cp2k.org/
 CP2K| Program compiled at                          Thu 21 Sep 19:20:17 BST 2023
 CP2K| Program compiled on                                       hx1-c12-login-1
 CP2K| Program compiled for                                                local
 CP2K| Data directory path    /gpfs/easybuild/prod/software/CP2K/2022.1-foss-202
 CP2K| Input file name                                             2_dft_wfn.inp

 GLOBAL| Force Environment number                                              1
 GLOBAL| Basis set file name                                        BASIS_MOLOPT
 GLOBAL| Potential file name                                      GTH_POTENTIALS
 GLOBAL| MM Potential file name                                     MM_POTENTIAL
 GLOBAL| Coordinate file name                                             em.xyz
 GLOBAL| Method name                                                        CP2K
 GLOBAL| Project name                                                  2_dft_wfn
 GLOBAL| Run type                                                         ENERGY
 GLOBAL| FFT library                                                       FFTW3
 GLOBAL| Diagonalization library                                       ScaLAPACK
 GLOBAL| Orthonormality check for eigenvectors                          DISABLED
 GLOBAL| Matrix multiplication library                                 ScaLAPACK
 GLOBAL| All-to-all communication in single precision                          F
 GLOBAL| FFTs using library dependent lengths                                  T
 GLOBAL| Grid backend                                                       AUTO
 GLOBAL| Global print level                                               MEDIUM
 GLOBAL| MPI I/O enabled                                                       T
 GLOBAL| Total number of message passing processes                           512
 GLOBAL| Number of threads for this process                                    1
 GLOBAL| This output is from process                                           0
 GLOBAL| Stack size for threads created by OpenMP (OMP_STACKSIZE)        default
 GLOBAL| CPU model name             Intel(R) Xeon(R) Platinum 8358 CPU @ 2.60GHz
 GLOBAL| CPUID                                                              1003

 MEMORY| system memory details [Kb]
 MEMORY|                        rank 0           min           max       average
 MEMORY| MemTotal            527652788     527652780     527652792     527652787
 MEMORY| MemFree             504838408     489462564     506132720     503152681
 MEMORY| Buffers                  5400          5052          5480          5382
 MEMORY| Cached                2559180       2147736      18446436       4460940
 MEMORY| Slab                  1513268       1453764       1766748       1596677
 MEMORY| SReclaimable           530972        505228        773440        643134
 MEMORY| MemLikelyFree       507933960     506165580     508791072     508262138


 *** Fundamental physical constants (SI units) ***

 *** Literature: B. J. Mohr and B. N. Taylor,
 ***             CODATA recommended values of the fundamental physical
 ***             constants: 2006, Web Version 5.1
 ***             http://physics.nist.gov/constants

 Speed of light in vacuum [m/s]                             2.99792458000000E+08
 Magnetic constant or permeability of vacuum [N/A**2]       1.25663706143592E-06
 Electric constant or permittivity of vacuum [F/m]          8.85418781762039E-12
 Planck constant (h) [J*s]                                  6.62606896000000E-34
 Planck constant (h-bar) [J*s]                              1.05457162825177E-34
 Elementary charge [C]                                      1.60217648700000E-19
 Electron mass [kg]                                         9.10938215000000E-31
 Electron g factor [ ]                                     -2.00231930436220E+00
 Proton mass [kg]                                           1.67262163700000E-27
 Fine-structure constant                                    7.29735253760000E-03
 Rydberg constant [1/m]                                     1.09737315685270E+07
 Avogadro constant [1/mol]                                  6.02214179000000E+23
 Boltzmann constant [J/K]                                   1.38065040000000E-23
 Atomic mass unit [kg]                                      1.66053878200000E-27
 Bohr radius [m]                                            5.29177208590000E-11

 *** Conversion factors ***

 [u] -> [a.u.]                                              1.82288848426455E+03
 [Angstrom] -> [Bohr] = [a.u.]                              1.88972613288564E+00
 [a.u.] = [Bohr] -> [Angstrom]                              5.29177208590000E-01
 [a.u.] -> [s]                                              2.41888432650478E-17
 [a.u.] -> [fs]                                             2.41888432650478E-02
 [a.u.] -> [J]                                              4.35974393937059E-18
 [a.u.] -> [N]                                              8.23872205491840E-08
 [a.u.] -> [K]                                              3.15774647902944E+05
 [a.u.] -> [kJ/mol]                                         2.62549961709828E+03
 [a.u.] -> [kcal/mol]                                       6.27509468713739E+02
 [a.u.] -> [Pa]                                             2.94210107994716E+13
 [a.u.] -> [bar]                                            2.94210107994716E+08
 [a.u.] -> [atm]                                            2.90362800883016E+08
 [a.u.] -> [eV]                                             2.72113838565563E+01
 [a.u.] -> [Hz]                                             6.57968392072181E+15
 [a.u.] -> [1/cm] (wave numbers)                            2.19474631370540E+05
 [a.u./Bohr**2] -> [1/cm]                                   5.14048714338585E+03
 

 CELL_TOP| Volume [angstrom^3]:                                      4593.719514
 CELL_TOP| Vector a [angstrom    14.582     0.000     0.000   |a| =    14.582000
 CELL_TOP| Vector b [angstrom     0.000     8.866     0.000   |b| =     8.866000
 CELL_TOP| Vector c [angstrom     0.000     0.000    35.532   |c| =    35.532000
 CELL_TOP| Angle (b,c), alpha [degree]:                                90.000000
 CELL_TOP| Angle (a,c), beta  [degree]:                                90.000000
 CELL_TOP| Angle (a,b), gamma [degree]:                                90.000000
 CELL_TOP| Numerically orthorhombic:                                         YES
 CELL_TOP| Periodicity                                                       XYZ

 GENERATE|  Preliminary Number of Bonds generated:                             0
 GENERATE|  Achieved consistency in connectivity generation.

 CELL| Volume [angstrom^3]:                                          4593.719514
 CELL| Vector a [angstrom]:      14.582     0.000     0.000   |a| =    14.582000
 CELL| Vector b [angstrom]:       0.000     8.866     0.000   |b| =     8.866000
 CELL| Vector c [angstrom]:       0.000     0.000    35.532   |c| =    35.532000
 CELL| Angle (b,c), alpha [degree]:                                    90.000000
 CELL| Angle (a,c), beta  [degree]:                                    90.000000
 CELL| Angle (a,b), gamma [degree]:                                    90.000000
 CELL| Numerically orthorhombic:                                             YES
 CELL| Periodicity                                                           XYZ

 CELL_REF| Volume [angstrom^3]:                                      4593.719514
 CELL_REF| Vector a [angstrom    14.582     0.000     0.000   |a| =    14.582000
 CELL_REF| Vector b [angstrom     0.000     8.866     0.000   |b| =     8.866000
 CELL_REF| Vector c [angstrom     0.000     0.000    35.532   |c| =    35.532000
 CELL_REF| Angle (b,c), alpha [degree]:                                90.000000
 CELL_REF| Angle (a,c), beta  [degree]:                                90.000000
 CELL_REF| Angle (a,b), gamma [degree]:                                90.000000
 CELL_REF| Numerically orthorhombic:                                         YES
 CELL_REF| Periodicity                                                       XYZ

 *** WARNING in cryssym.F:165 :: Symmetry library SPGLIB not available ***


 *******************************************************************************
                                    Kpoints
 *******************************************************************************
 BRILLOUIN| K-point scheme                                        Monkhorst-Pack
 BRILLOUIN| K-Point grid                                             1    1    1
 BRILLOUIN| Accuracy in Symmetry determination                      0.100000E-07
 BRILLOUIN| K-Point point group symmetrization                               OFF
 BRILLOUIN| Wavefunction type                                            COMPLEX
 BRILLOUIN| Use full k-point grid     
 BRILLOUIN| List of Kpoints [2 Pi/Bohr]                                        1
 BRILLOUIN| Number           Weight            X              Y              Z
 BRILLOUIN|     1           1.00000        0.00000        0.00000        0.00000
 *******************************************************************************

 *******************************************************************************
 *******************************************************************************
 **                                                                           **
 **     #####                         ##              ##                      **
 **    ##   ##            ##          ##              ##                      **
 **   ##     ##                       ##            ######                    **
 **   ##     ##  ##   ##  ##   #####  ##  ##   ####   ##    #####    #####    **
 **   ##     ##  ##   ##  ##  ##      ## ##   ##      ##   ##   ##  ##   ##   **
 **   ##  ## ##  ##   ##  ##  ##      ####     ###    ##   ######   ######    **
 **    ##  ###   ##   ##  ##  ##      ## ##      ##   ##   ##       ##        **
 **     #######   #####   ##   #####  ##  ##  ####    ##    #####   ##        **
 **           ##                                                    ##        **
 **                                                                           **
 **                                                ... make the atoms dance   **
 **                                                                           **
 **            Copyright (C) by CP2K developers group (2000-2022)             **
 **                      J. Chem. Phys. 152, 194103 (2020)                    **
 **                                                                           **
 *******************************************************************************

 DFT| Spin restricted Kohn-Sham (RKS) calculation                            RKS
 DFT| Multiplicity                                                             2
 DFT| Number of spin states                                                    1
 DFT| Charge                                                                   0
 DFT| Self-interaction correction (SIC)                                       NO
 DFT| Cutoffs: density                                              1.000000E-10
 DFT|          gradient                                             1.000000E-10
 DFT|          tau                                                  1.000000E-10
 DFT|          cutoff_smoothing_range                               0.000000E+00
 DFT| XC density smoothing                                                  NONE
 DFT| XC derivatives                                                          PW

 FUNCTIONAL| PBE:
 FUNCTIONAL| J.P.Perdew, K.Burke, M.Ernzerhof, Phys. Rev. Letter, vol. 77, n 18,
 FUNCTIONAL|  pp. 3865-3868, (1996){spin unpolarized}                           


 QS| Method:                                                                 GPW
 QS| Density plane wave grid type                        NON-SPHERICAL FULLSPACE
 QS| Number of grid levels:                                                    4
 QS| Density cutoff [a.u.]:                                                300.0
 QS| Multi grid cutoff [a.u.]: 1) grid level                               300.0
 QS|                           2) grid level                               100.0
 QS|                           3) grid level                                33.3
 QS|                           4) grid level                                11.1
 QS| Grid level progression factor:                                          3.0
 QS| Relative density cutoff [a.u.]:                                        30.0
 QS| Interaction thresholds: eps_pgf_orb:                                1.0E-05
 QS|                         eps_filter_matrix:                          0.0E+00
 QS|                         eps_core_charge:                            1.0E-12
 QS|                         eps_rho_gspace:                             1.0E-10
 QS|                         eps_rho_rspace:                             1.0E-10
 QS|                         eps_gvg_rspace:                             1.0E-05
 QS|                         eps_ppl:                                    1.0E-02
 QS|                         eps_ppnl:                                   1.0E-07


 ATOMIC KIND INFORMATION

  1. Atomic kind: Au                                    Number of atoms:     165

     Orbital Basis Set                                     SZV-MOLOPT-SR-GTH-q11

       Number of orbital shell sets:                                           1
       Number of orbital shells:                                               3
       Number of primitive Cartesian functions:                                5
       Number of Cartesian basis functions:                                   10
       Number of spherical basis functions:                                    9
       Norm type:                                                              2

       Normalised Cartesian orbitals:

                        Set   Shell   Orbital            Exponent    Coefficient

                          1       1    2s                2.950008       0.074626
                                                         1.563057      -0.007898
                                                         0.666664      -0.297688
                                                         0.251083       0.136809
                                                         0.081714       0.088198

                          1       2    3px               2.950008       0.148824
                                                         1.563057       0.025430
                                                         0.666664      -0.123003
                                                         0.251083       0.033648
                                                         0.081714       0.059008
                          1       2    3py               2.950008       0.148824
                                                         1.563057       0.025430
                                                         0.666664      -0.123003
                                                         0.251083       0.033648
                                                         0.081714       0.059008
                          1       2    3pz               2.950008       0.148824
                                                         1.563057       0.025430
                                                         0.666664      -0.123003
                                                         0.251083       0.033648
                                                         0.081714       0.059008

                          1       3    4dx2              2.950008      -0.139595
                                                         1.563057       1.319655
                                                         0.666664       0.377081
                                                         0.251083       0.046872
                                                         0.081714       0.001393
                          1       3    4dxy              2.950008      -0.241786
                                                         1.563057       2.285709
                                                         0.666664       0.653124
                                                         0.251083       0.081185
                                                         0.081714       0.002412
                          1       3    4dxz              2.950008      -0.241786
                                                         1.563057       2.285709
                                                         0.666664       0.653124
                                                         0.251083       0.081185
                                                         0.081714       0.002412
                          1       3    4dy2              2.950008      -0.139595
                                                         1.563057       1.319655
                                                         0.666664       0.377081
                                                         0.251083       0.046872
                                                         0.081714       0.001393
                          1       3    4dyz              2.950008      -0.241786
                                                         1.563057       2.285709
                                                         0.666664       0.653124
                                                         0.251083       0.081185
                                                         0.081714       0.002412
                          1       3    4dz2              2.950008      -0.139595
                                                         1.563057       1.319655
                                                         0.666664       0.377081
                                                         0.251083       0.046872
                                                         0.081714       0.001393

       Atomic covalent radius [Angstrom]:                                  1.340

       Atomic van der Waals radius [Angstrom]:                             1.660

     GTH Potential information for                                   GTH-PBE-q11

       Description:                       Goedecker-Teter-Hutter pseudopotential
                                           Goedecker et al., PRB 54, 1703 (1996)
                                          Hartwigsen et al., PRB 58, 3641 (1998)
                                                      Krack, TCA 114, 145 (2005)

       Gaussian exponent of the core charge distribution:               1.436369
       Electronic configuration (s p d ...):                           1   0  10

       Parameters of the local part of the GTH pseudopotential:

                          rloc        C1          C2          C3          C4
                        0.590000   10.517179

       Parameters of the non-local part of the GTH pseudopotential:

                   l      r(l)      h(i,j,l)

                   0    0.543847    5.786811   -2.250680
                                   -2.250680    2.905615
                   1    0.609173    4.284049   -4.071285
                                   -4.071285    4.817210
                   2    0.437309   -7.403281    3.010193
                                    3.010193   -3.413238


 MOLECULE KIND INFORMATION


 All atoms are their own molecule, skipping detailed information


 TOTAL NUMBERS AND MAXIMUM NUMBERS

  Total number of            - Atomic kinds:                                   1
                             - Atoms:                                        165
                             - Shell sets:                                   165
                             - Shells:                                       495
                             - Primitive Cartesian functions:                825
                             - Cartesian basis functions:                   1650
                             - Spherical basis functions:                   1485

  Maximum angular momentum of- Orbital basis functions:                        2
                             - Local part of the GTH pseudopotential:          0
                             - Non-local part of the GTH pseudopotential:      4


 MODULE QUICKSTEP: ATOMIC COORDINATES IN ANGSTROM

   Atom Kind Element         X             Y             Z       Z(eff)     Mass
      1    1 Au   79      0.000000      0.000000      0.000000  11.0000 196.9666
      2    1 Au   79      0.000000      2.955000      0.000000  11.0000 196.9666
      3    1 Au   79      0.000000      5.911000      0.000000  11.0000 196.9666
      4    1 Au   79      2.956000      0.000000      0.000000  11.0000 196.9666
      5    1 Au   79      2.956000      2.955000      0.000000  11.0000 196.9666
      6    1 Au   79      2.956000      5.911000      0.000000  11.0000 196.9666
      7    1 Au   79      5.912000      0.000000      0.000000  11.0000 196.9666
      8    1 Au   79      5.912000      2.955000      0.000000  11.0000 196.9666
      9    1 Au   79      5.912000      5.911000      0.000000  11.0000 196.9666
     10    1 Au   79      8.670000      0.000000      0.000000  11.0000 196.9666
     11    1 Au   79      8.670000      2.955000      0.000000  11.0000 196.9666
     12    1 Au   79      8.670000      5.911000      0.000000  11.0000 196.9666
     13    1 Au   79     11.626000      0.000000      0.000000  11.0000 196.9666
     14    1 Au   79     11.626000      2.955000      0.000000  11.0000 196.9666
     15    1 Au   79     11.626000      5.911000      0.000000  11.0000 196.9666
     16    1 Au   79      1.478000      1.478000      2.090000  11.0000 196.9666
     17    1 Au   79      1.478000      4.433000      2.090000  11.0000 196.9666
     18    1 Au   79      1.478000      7.389000      2.090000  11.0000 196.9666
     19    1 Au   79      4.434000      1.478000      2.090000  11.0000 196.9666
     20    1 Au   79      4.434000      4.433000      2.090000  11.0000 196.9666
     21    1 Au   79      4.434000      7.389000      2.090000  11.0000 196.9666
     22    1 Au   79      7.192000      1.478000      2.090000  11.0000 196.9666
     23    1 Au   79      7.192000      4.433000      2.090000  11.0000 196.9666
     24    1 Au   79      7.192000      7.389000      2.090000  11.0000 196.9666
     25    1 Au   79     10.148000      1.478000      2.090000  11.0000 196.9666
     26    1 Au   79     10.148000      4.433000      2.090000  11.0000 196.9666
     27    1 Au   79     10.148000      7.389000      2.090000  11.0000 196.9666
     28    1 Au   79     13.104000      1.478000      2.090000  11.0000 196.9666
     29    1 Au   79     13.104000      4.433000      2.090000  11.0000 196.9666
     30    1 Au   79     13.104000      7.389000      2.090000  11.0000 196.9666
     31    1 Au   79      0.000000      0.000000      4.180000  11.0000 196.9666
     32    1 Au   79      0.000000      2.955000      4.180000  11.0000 196.9666
     33    1 Au   79      0.000000      5.911000      4.180000  11.0000 196.9666
     34    1 Au   79      2.956000      0.000000      4.180000  11.0000 196.9666
     35    1 Au   79      2.956000      2.955000      4.180000  11.0000 196.9666
     36    1 Au   79      2.956000      5.911000      4.180000  11.0000 196.9666
     37    1 Au   79      5.912000      0.000000      4.180000  11.0000 196.9666
     38    1 Au   79      5.912000      2.955000      4.180000  11.0000 196.9666
     39    1 Au   79      5.912000      5.911000      4.180000  11.0000 196.9666
     40    1 Au   79      8.670000      0.000000      4.180000  11.0000 196.9666
     41    1 Au   79      8.670000      2.955000      4.180000  11.0000 196.9666
     42    1 Au   79      8.670000      5.911000      4.180000  11.0000 196.9666
     43    1 Au   79     11.626000      0.000000      4.180000  11.0000 196.9666
     44    1 Au   79     11.626000      2.955000      4.180000  11.0000 196.9666
     45    1 Au   79     11.626000      5.911000      4.180000  11.0000 196.9666
     46    1 Au   79      1.478000      1.478000      6.270000  11.0000 196.9666
     47    1 Au   79      1.478000      4.433000      6.270000  11.0000 196.9666
     48    1 Au   79      1.478000      7.389000      6.270000  11.0000 196.9666
     49    1 Au   79      4.434000      1.478000      6.270000  11.0000 196.9666
     50    1 Au   79      4.434000      4.433000      6.270000  11.0000 196.9666
     51    1 Au   79      4.434000      7.389000      6.270000  11.0000 196.9666
     52    1 Au   79      7.192000      1.478000      6.270000  11.0000 196.9666
     53    1 Au   79      7.192000      4.433000      6.270000  11.0000 196.9666
     54    1 Au   79      7.192000      7.389000      6.270000  11.0000 196.9666
     55    1 Au   79     10.148000      1.478000      6.270000  11.0000 196.9666
     56    1 Au   79     10.148000      4.433000      6.270000  11.0000 196.9666
     57    1 Au   79     10.148000      7.389000      6.270000  11.0000 196.9666
     58    1 Au   79     13.104000      1.478000      6.270000  11.0000 196.9666
     59    1 Au   79     13.104000      4.433000      6.270000  11.0000 196.9666
     60    1 Au   79     13.104000      7.389000      6.270000  11.0000 196.9666
     61    1 Au   79      0.000000      0.000000      8.360000  11.0000 196.9666
     62    1 Au   79      0.000000      2.955000      8.360000  11.0000 196.9666
     63    1 Au   79      0.000000      5.911000      8.360000  11.0000 196.9666
     64    1 Au   79      2.956000      0.000000      8.360000  11.0000 196.9666
     65    1 Au   79      2.956000      2.955000      8.360000  11.0000 196.9666
     66    1 Au   79      2.956000      5.911000      8.360000  11.0000 196.9666
     67    1 Au   79      5.912000      0.000000      8.360000  11.0000 196.9666
     68    1 Au   79      5.912000      2.955000      8.360000  11.0000 196.9666
     69    1 Au   79      5.912000      5.911000      8.360000  11.0000 196.9666
     70    1 Au   79      8.670000      0.000000      8.360000  11.0000 196.9666
     71    1 Au   79      8.670000      2.955000      8.360000  11.0000 196.9666
     72    1 Au   79      8.670000      5.911000      8.360000  11.0000 196.9666
     73    1 Au   79     11.626000      0.000000      8.360000  11.0000 196.9666
     74    1 Au   79     11.626000      2.955000      8.360000  11.0000 196.9666
     75    1 Au   79     11.626000      5.911000      8.360000  11.0000 196.9666
     76    1 Au   79      1.478000      1.478000     10.450000  11.0000 196.9666
     77    1 Au   79      1.478000      4.433000     10.450000  11.0000 196.9666
     78    1 Au   79      1.478000      7.389000     10.450000  11.0000 196.9666
     79    1 Au   79      4.434000      1.478000     10.450000  11.0000 196.9666
     80    1 Au   79      4.434000      4.433000     10.450000  11.0000 196.9666
     81    1 Au   79      4.434000      7.389000     10.450000  11.0000 196.9666
     82    1 Au   79      7.192000      1.478000     10.450000  11.0000 196.9666
     83    1 Au   79      7.192000      4.433000     10.450000  11.0000 196.9666
     84    1 Au   79      7.192000      7.389000     10.450000  11.0000 196.9666
     85    1 Au   79     10.148000      1.478000     10.450000  11.0000 196.9666
     86    1 Au   79     10.148000      4.433000     10.450000  11.0000 196.9666
     87    1 Au   79     10.148000      7.389000     10.450000  11.0000 196.9666
     88    1 Au   79     13.104000      1.478000     10.450000  11.0000 196.9666
     89    1 Au   79     13.104000      4.433000     10.450000  11.0000 196.9666
     90    1 Au   79     13.104000      7.389000     10.450000  11.0000 196.9666
     91    1 Au   79      1.478000      1.478000     25.082000  11.0000 196.9666
     92    1 Au   79      1.478000      4.433000     25.082000  11.0000 196.9666
     93    1 Au   79      1.478000      7.389000     25.082000  11.0000 196.9666
     94    1 Au   79      4.434000      1.478000     25.082000  11.0000 196.9666
     95    1 Au   79      4.434000      4.433000     25.082000  11.0000 196.9666
     96    1 Au   79      4.434000      7.389000     25.082000  11.0000 196.9666
     97    1 Au   79      7.192000      1.478000     25.082000  11.0000 196.9666
     98    1 Au   79      7.192000      4.433000     25.082000  11.0000 196.9666
     99    1 Au   79      7.192000      7.389000     25.082000  11.0000 196.9666
    100    1 Au   79     10.148000      1.478000     25.082000  11.0000 196.9666
    101    1 Au   79     10.148000      4.433000     25.082000  11.0000 196.9666
    102    1 Au   79     10.148000      7.389000     25.082000  11.0000 196.9666
    103    1 Au   79     13.104000      1.478000     25.082000  11.0000 196.9666
    104    1 Au   79     13.104000      4.433000     25.082000  11.0000 196.9666
    105    1 Au   79     13.104000      7.389000     25.082000  11.0000 196.9666
    106    1 Au   79      0.000000      0.000000     27.172000  11.0000 196.9666
    107    1 Au   79      0.000000      2.955000     27.172000  11.0000 196.9666
    108    1 Au   79      0.000000      5.911000     27.172000  11.0000 196.9666
    109    1 Au   79      2.956000      0.000000     27.172000  11.0000 196.9666
    110    1 Au   79      2.956000      2.955000     27.172000  11.0000 196.9666
    111    1 Au   79      2.956000      5.911000     27.172000  11.0000 196.9666
    112    1 Au   79      5.912000      0.000000     27.172000  11.0000 196.9666
    113    1 Au   79      5.912000      2.955000     27.172000  11.0000 196.9666
    114    1 Au   79      5.912000      5.911000     27.172000  11.0000 196.9666
    115    1 Au   79      8.670000      0.000000     27.172000  11.0000 196.9666
    116    1 Au   79      8.670000      2.955000     27.172000  11.0000 196.9666
    117    1 Au   79      8.670000      5.911000     27.172000  11.0000 196.9666
    118    1 Au   79     11.626000      0.000000     27.172000  11.0000 196.9666
    119    1 Au   79     11.626000      2.955000     27.172000  11.0000 196.9666
    120    1 Au   79     11.626000      5.911000     27.172000  11.0000 196.9666
    121    1 Au   79      1.478000      1.478000     29.262000  11.0000 196.9666
    122    1 Au   79      1.478000      4.433000     29.262000  11.0000 196.9666
    123    1 Au   79      1.478000      7.389000     29.262000  11.0000 196.9666
    124    1 Au   79      4.434000      1.478000     29.262000  11.0000 196.9666
    125    1 Au   79      4.434000      4.433000     29.262000  11.0000 196.9666
    126    1 Au   79      4.434000      7.389000     29.262000  11.0000 196.9666
    127    1 Au   79      7.192000      1.478000     29.262000  11.0000 196.9666
    128    1 Au   79      7.192000      4.433000     29.262000  11.0000 196.9666
    129    1 Au   79      7.192000      7.389000     29.262000  11.0000 196.9666
    130    1 Au   79     10.148000      1.478000     29.262000  11.0000 196.9666
    131    1 Au   79     10.148000      4.433000     29.262000  11.0000 196.9666
    132    1 Au   79     10.148000      7.389000     29.262000  11.0000 196.9666
    133    1 Au   79     13.104000      1.478000     29.262000  11.0000 196.9666
    134    1 Au   79     13.104000      4.433000     29.262000  11.0000 196.9666
    135    1 Au   79     13.104000      7.389000     29.262000  11.0000 196.9666
    136    1 Au   79      0.000000      0.000000     31.352000  11.0000 196.9666
    137    1 Au   79      0.000000      2.955000     31.352000  11.0000 196.9666
    138    1 Au   79      0.000000      5.911000     31.352000  11.0000 196.9666
    139    1 Au   79      2.956000      0.000000     31.352000  11.0000 196.9666
    140    1 Au   79      2.956000      2.955000     31.352000  11.0000 196.9666
    141    1 Au   79      2.956000      5.911000     31.352000  11.0000 196.9666
    142    1 Au   79      5.912000      0.000000     31.352000  11.0000 196.9666
    143    1 Au   79      5.912000      2.955000     31.352000  11.0000 196.9666
    144    1 Au   79      5.912000      5.911000     31.352000  11.0000 196.9666
    145    1 Au   79      8.670000      0.000000     31.352000  11.0000 196.9666
    146    1 Au   79      8.670000      2.955000     31.352000  11.0000 196.9666
    147    1 Au   79      8.670000      5.911000     31.352000  11.0000 196.9666
    148    1 Au   79     11.626000      0.000000     31.352000  11.0000 196.9666
    149    1 Au   79     11.626000      2.955000     31.352000  11.0000 196.9666
    150    1 Au   79     11.626000      5.911000     31.352000  11.0000 196.9666
    151    1 Au   79      1.478000      1.478000     33.442000  11.0000 196.9666
    152    1 Au   79      1.478000      4.433000     33.442000  11.0000 196.9666
    153    1 Au   79      1.478000      7.389000     33.442000  11.0000 196.9666
    154    1 Au   79      4.434000      1.478000     33.442000  11.0000 196.9666
    155    1 Au   79      4.434000      4.433000     33.442000  11.0000 196.9666
    156    1 Au   79      4.434000      7.389000     33.442000  11.0000 196.9666
    157    1 Au   79      7.192000      1.478000     33.442000  11.0000 196.9666
    158    1 Au   79      7.192000      4.433000     33.442000  11.0000 196.9666
    159    1 Au   79      7.192000      7.389000     33.442000  11.0000 196.9666
    160    1 Au   79     10.148000      1.478000     33.442000  11.0000 196.9666
    161    1 Au   79     10.148000      4.433000     33.442000  11.0000 196.9666
    162    1 Au   79     10.148000      7.389000     33.442000  11.0000 196.9666
    163    1 Au   79     13.104000      1.478000     33.442000  11.0000 196.9666
    164    1 Au   79     13.104000      4.433000     33.442000  11.0000 196.9666
    165    1 Au   79     13.104000      7.389000     33.442000  11.0000 196.9666



 SCF PARAMETERS         Density guess:                                   RESTART
                        --------------------------------------------------------
                        max_scf:                                             500
                        max_scf_history:                                       0
                        max_diis:                                              4
                        --------------------------------------------------------
                        eps_scf:                                        1.00E-06
                        eps_scf_history:                                0.00E+00
                        eps_diis:                                       1.00E-01
                        eps_eigval:                                     1.00E-05
                        --------------------------------------------------------
                        level_shift [a.u.]:                             0.000000
                        added MOs                                       100    0
                        --------------------------------------------------------
                        Mixing method:                            BROYDEN_MIXING
                                                charge density mixing in g-space
                        --------------------------------------------------------
                        Smear method:                                FERMI_DIRAC
                        Electronic temperature [K]:                        300.0
                        Electronic temperature [a.u.]:                  9.50E-04
                        Accuracy threshold:                             1.00E-10
                        --------------------------------------------------------
                        No outer SCF

 PW_GRID| Information for grid number                                          1
 PW_GRID| Grid distributed over                                   512 processors
 PW_GRID| Real space group dimensions                                    16   32
 PW_GRID| the grid is blocked:                                               YES
 PW_GRID| Cutoff [a.u.]                                                    300.0
 PW_GRID| spherical cutoff:                                                   NO
 PW_GRID|   Bounds   1           -108     107                Points:         216
 PW_GRID|   Bounds   2            -66      65                Points:         132
 PW_GRID|   Bounds   3           -262     262                Points:         525
 PW_GRID| Volume element (a.u.^3)  0.2071E-02     Volume (a.u.^3)     30999.9563
 PW_GRID| Grid span                                                    FULLSPACE
 PW_GRID|   Distribution                         Average         Max         Min
 PW_GRID|   G-Vectors                            29235.9       33048       27648
 PW_GRID|   G-Rays                                 135.4         153         128
 PW_GRID|   Real Space Points                    29235.9       33048       27648

 PW_GRID| Information for grid number                                          2
 PW_GRID| Number of the reference grid                                         1
 PW_GRID| Grid distributed over                                   512 processors
 PW_GRID| Real space group dimensions                                    16   32
 PW_GRID| the grid is blocked:                                                NO
 PW_GRID| Cutoff [a.u.]                                                    100.0
 PW_GRID| spherical cutoff:                                                   NO
 PW_GRID|   Bounds   1            -63      62                Points:         126
 PW_GRID|   Bounds   2            -37      37                Points:          75
 PW_GRID|   Bounds   3           -154     153                Points:         308
 PW_GRID| Volume element (a.u.^3)  0.1065E-01     Volume (a.u.^3)     30999.9563
 PW_GRID| Grid span                                                    FULLSPACE
 PW_GRID|   Distribution                         Average         Max         Min
 PW_GRID|   G-Vectors                             5684.8       19278           0
 PW_GRID|   G-Rays                                  45.1         153           0
 PW_GRID|   Real Space Points                     5684.8        7392        4312

 PW_GRID| Information for grid number                                          3
 PW_GRID| Number of the reference grid                                         1
 PW_GRID| Grid distributed over                                   512 processors
 PW_GRID| Real space group dimensions                                    16   32
 PW_GRID| the grid is blocked:                                                NO
 PW_GRID| Cutoff [a.u.]                                                     33.3
 PW_GRID| spherical cutoff:                                                   NO
 PW_GRID|   Bounds   1            -36      35                Points:          72
 PW_GRID|   Bounds   2            -22      21                Points:          44
 PW_GRID|   Bounds   3            -87      87                Points:         175
 PW_GRID| Volume element (a.u.^3)  0.5592E-01     Volume (a.u.^3)     30999.9563
 PW_GRID| Grid span                                                    FULLSPACE
 PW_GRID|   Distribution                         Average         Max         Min
 PW_GRID|   G-Vectors                             1082.8       11016           0
 PW_GRID|   G-Rays                                  15.0         153           0
 PW_GRID|   Real Space Points                     1082.8        1750         700

 PW_GRID| Information for grid number                                          4
 PW_GRID| Number of the reference grid                                         1
 PW_GRID| Grid distributed over                                   512 processors
 PW_GRID| Real space group dimensions                                    16   32
 PW_GRID| the grid is blocked:                                                NO
 PW_GRID| Cutoff [a.u.]                                                     11.1
 PW_GRID| spherical cutoff:                                                   NO
 PW_GRID|   Bounds   1            -21      20                Points:          42
 PW_GRID|   Bounds   2            -12      12                Points:          25
 PW_GRID|   Bounds   3            -52      52                Points:         105
 PW_GRID| Volume element (a.u.^3)  0.2812         Volume (a.u.^3)     30999.9563
 PW_GRID| Grid span                                                    FULLSPACE
 PW_GRID|   Distribution                         Average         Max         Min
 PW_GRID|   G-Vectors                              215.3        5712           0
 PW_GRID|   G-Rays                                   5.1         136           0
 PW_GRID|   Real Space Points                      215.3         315           0

 POISSON| Solver                                                        PERIODIC
 POISSON| Periodicity                                                        XYZ

 RS_GRID| Information for grid number                                          1
 RS_GRID|   Bounds   1           -108     107                Points:         216
 RS_GRID|   Bounds   2            -66      65                Points:         132
 RS_GRID|   Bounds   3           -262     262                Points:         525
 RS_GRID| Real space distribution over                                 16 groups
 RS_GRID| Real space distribution along direction                              1
 RS_GRID| Border size                                                         35
 RS_GRID| Real space distribution over                                 32 groups
 RS_GRID| Real space distribution along direction                              3
 RS_GRID| Border size                                                         35
 RS_GRID|   Distribution                         Average         Max         Min
 RS_GRID|   Planes                                  83.5          84          83
 RS_GRID|   Distribution                         Average         Max         Min
 RS_GRID|   Planes                                  86.4          87          86

 RS_GRID| Information for grid number                                          2
 RS_GRID|   Bounds   1            -63      62                Points:         126
 RS_GRID|   Bounds   2            -37      37                Points:          75
 RS_GRID|   Bounds   3           -154     153                Points:         308
 RS_GRID| Real space distribution over                                 16 groups
 RS_GRID| Real space distribution along direction                              1
 RS_GRID| Border size                                                         24
 RS_GRID| Real space distribution over                                 32 groups
 RS_GRID| Real space distribution along direction                              3
 RS_GRID| Border size                                                         24
 RS_GRID|   Distribution                         Average         Max         Min
 RS_GRID|   Planes                                  55.9          56          55
 RS_GRID|   Distribution                         Average         Max         Min
 RS_GRID|   Planes                                  57.6          58          57

 RS_GRID| Information for grid number                                          3
 RS_GRID|   Bounds   1            -36      35                Points:          72
 RS_GRID|   Bounds   2            -22      21                Points:          44
 RS_GRID|   Bounds   3            -87      87                Points:         175
 RS_GRID| Real space fully replicated
 RS_GRID| Group size                                                           1

 RS_GRID| Information for grid number                                          4
 RS_GRID|   Bounds   1            -21      20                Points:          42
 RS_GRID|   Bounds   2            -12      12                Points:          25
 RS_GRID|   Bounds   3            -52      52                Points:         105
 RS_GRID| Real space fully replicated
 RS_GRID| Group size                                                           1

 KPOINTS| Number of kpoint groups                                              1
 KPOINTS| Size of each kpoint group                                          512
 KPOINTS| Number of kpoints per group                                          1

 Number of electrons:                                                       1815
 Number of occupied orbitals:                                                908
 Number of molecular orbitals:                                              1008

 Number of orbital functions:                                               1485
 Number of independent orbital functions:                                   1485

 Extrapolation method: initial_guess

 *** WARNING in qs_initial_guess.F:310 :: User requested to restart the   ***
 *** wavefunction from the file named: 2_dft_wfn-RESTART_0.kp. This file  ***
 *** does not exist. Please check the existence of the file or change     ***
 *** properly the value of the keyword WFN_RESTART_FILE_NAME. Calculation ***
 *** continues using ATOMIC GUESS.                                        ***


 Atomic guess: The first density matrix is obtained in terms of atomic orbitals
               and electronic configurations assigned to each atomic kind

 Guess for atomic kind: Au

 Electronic structure
    Total number of core electrons                                         68.00
    Total number of valence electrons                                      11.00
    Total number of electrons                                              79.00
    Multiplicity                                                   not specified
    S   [  2.00  2.00  2.00  2.00  2.00] 1.00
    P   [  6.00  6.00  6.00  6.00]
    D   [ 10.00 10.00]10.00
    F   [ 14.00]


 *******************************************************************************
                  Iteration          Convergence                     Energy [au]
 *******************************************************************************
                          1         0.00000                     -32.925420860277

 Energy components [Hartree]           Total Energy ::          -32.925420860277
                                        Band Energy ::           -1.039708645574
                                     Kinetic Energy ::           24.744064437587
                                   Potential Energy ::          -57.669485297863
                                      Virial (-V/T) ::            2.330639149576
                                        Core Energy ::          -60.089512277916
                                          XC Energy ::           -5.116883226844
                                     Coulomb Energy ::           32.280974644483
                       Total Pseudopotential Energy ::          -84.935087836392
                       Local Pseudopotential Energy ::          -67.537295193389
                    Nonlocal Pseudopotential Energy ::          -17.397792643003
                                        Confinement ::            1.015111208892

 Orbital energies  State     L     Occupation   Energy[a.u.]          Energy[eV]

                       1     0          1.000      -0.207365           -5.642685

                       1     2         10.000      -0.083234           -2.264923


 Total Electron Density at R=0:                                         0.000035
 Re-scaling the density matrix to get the right number of electrons
                  # Electrons              Trace(P)               Scaling factor
                         1815              1815.000                        1.000


 SCF WAVEFUNCTION OPTIMIZATION

  Step     Update method      Time    Convergence         Total energy    Change
  ------------------------------------------------------------------------------
     1 NoMix/Diag. 0.30E+00    0.6     1.96105215     -5486.9653760462 -5.49E+03
     2 Broy./Diag. 0.30E+00    0.6     0.14111442     -5596.1022846822 -1.09E+02
     3 Broy./Diag. 0.30E+00    0.8     0.04440861     -5533.4401374250  6.27E+01
     4 Broy./Diag. 0.30E+00    0.6     0.03477435     -5498.7411358559  3.47E+01
     5 Broy./Diag. 0.30E+00    0.6     0.00250593     -5486.0958164012  1.26E+01
     6 Broy./Diag. 0.30E+00    0.6     0.00258071     -5485.1535403831  9.42E-01
     7 Broy./Diag. 0.30E+00    0.7     0.00102715     -5485.1366876612  1.69E-02
     8 Broy./Diag. 0.30E+00    0.7     0.00150213     -5485.0777762774  5.89E-02
     9 Broy./Diag. 0.30E+00    0.7     0.00087211     -5485.0125314779  6.52E-02
    10 Broy./Diag. 0.30E+00    0.6     0.00082831     -5484.9840620793  2.85E-02
    11 Broy./Diag. 0.30E+00    0.6     0.00017107     -5484.9056464647  7.84E-02
    12 Broy./Diag. 0.30E+00    0.8     0.00028244     -5484.8841900582  2.15E-02
    13 Broy./Diag. 0.30E+00    0.6     0.00020715     -5484.8703972846  1.38E-02
    14 Broy./Diag. 0.30E+00    0.6     0.00009609     -5484.8682724510  2.12E-03
    15 Broy./Diag. 0.30E+00    0.6     0.00002749     -5484.8724557424 -4.18E-03
    16 Broy./Diag. 0.30E+00    0.6     0.00001183     -5484.8722358668  2.20E-04
    17 Broy./Diag. 0.30E+00    0.9     0.00001127     -5484.8716984842  5.37E-04
    18 Broy./Diag. 0.30E+00    0.6     0.00000312     -5484.8712772242  4.21E-04
    19 Broy./Diag. 0.30E+00    0.6     0.00000152     -5484.8713335837 -5.64E-05
    20 Broy./Diag. 0.30E+00    0.8     0.00000036     -5484.8714600661 -1.26E-04

  *** SCF run converged in    20 steps ***


  Electronic density on regular grids:      -1815.0000000005       -0.0000000005
  Core density on regular grids:             1814.9999997022       -0.0000002978
  Total charge density on r-space grids:       -0.0000002984
  Total charge density g-space grids:          -0.0000002984

  Overlap energy of the core charge distribution:               0.00000083752787
  Self energy of the core charge distribution:              -9545.80087756860667
  Core Hamiltonian energy:                                   3052.02488131787914
  Hartree energy:                                            1876.43509581361741
  Exchange-correlation energy:                               -867.52324686616066
  Electronic entropic energy:                                  -0.00731359320808
  Fermi energy:                                                 0.15138435654527

  Total energy:                                             -5484.87146006609419

 The electron density is written in cube file format to the file:

 2_dft_wfn-ELECTRON_DENSITY-1_0.cube

 !-----------------------------------------------------------------------------!
                     Mulliken Population Analysis

 #  Atom  Element  Kind  Atomic population                           Net charge
       1     Au       1         10.994957                              0.005043
       2     Au       1         10.995167                              0.004833
       3     Au       1         10.995378                              0.004622
       4     Au       1         11.012498                             -0.012498
       5     Au       1         11.012714                             -0.012714
       6     Au       1         11.012895                             -0.012895
       7     Au       1         10.960696                              0.039304
       8     Au       1         10.960870                              0.039130
       9     Au       1         10.961178                              0.038822
      10     Au       1         10.999168                              0.000832
      11     Au       1         10.999365                              0.000635
      12     Au       1         10.999532                              0.000468
      13     Au       1         11.005432                             -0.005432
      14     Au       1         11.005659                             -0.005659
      15     Au       1         11.005849                             -0.005849
      16     Au       1         11.002287                             -0.002287
      17     Au       1         11.002741                             -0.002741
      18     Au       1         11.002520                             -0.002520
      19     Au       1         10.997963                              0.002037
      20     Au       1         10.998369                              0.001631
      21     Au       1         10.998175                              0.001825
      22     Au       1         10.961152                              0.038848
      23     Au       1         10.961662                              0.038338
      24     Au       1         10.961355                              0.038645
      25     Au       1         11.007712                             -0.007712
      26     Au       1         11.008154                             -0.008154
      27     Au       1         11.007950                             -0.007950
      28     Au       1         10.997619                              0.002381
      29     Au       1         10.998071                              0.001929
      30     Au       1         10.997854                              0.002146
      31     Au       1         10.995248                              0.004752
      32     Au       1         10.995453                              0.004547
      33     Au       1         10.995683                              0.004317
      34     Au       1         11.012331                             -0.012331
      35     Au       1         11.012558                             -0.012558
      36     Au       1         11.012742                             -0.012742
      37     Au       1         10.959360                              0.040640
      38     Au       1         10.959533                              0.040467
      39     Au       1         10.959855                              0.040145
      40     Au       1         10.999074                              0.000926
      41     Au       1         10.999255                              0.000745
      42     Au       1         10.999453                              0.000547
      43     Au       1         11.006237                             -0.006237
      44     Au       1         11.006433                             -0.006433
      45     Au       1         11.006670                             -0.006670
      46     Au       1         10.991139                              0.008861
      47     Au       1         10.991620                              0.008380
      48     Au       1         10.991391                              0.008609
      49     Au       1         10.984100                              0.015900
      50     Au       1         10.984536                              0.015464
      51     Au       1         10.984334                              0.015666
      52     Au       1         10.946564                              0.053436
      53     Au       1         10.947106                              0.052894
      54     Au       1         10.946794                              0.053206
      55     Au       1         10.997208                              0.002792
      56     Au       1         10.997676                              0.002324
      57     Au       1         10.997469                              0.002531
      58     Au       1         10.984282                              0.015718
      59     Au       1         10.984766                              0.015234
      60     Au       1         10.984545                              0.015455
      61     Au       1         10.963959                              0.036041
      62     Au       1         10.964218                              0.035782
      63     Au       1         10.964431                              0.035569
      64     Au       1         10.979743                              0.020257
      65     Au       1         10.980007                              0.019993
      66     Au       1         10.980191                              0.019809
      67     Au       1         10.925173                              0.074827
      68     Au       1         10.925410                              0.074590
      69     Au       1         10.925712                              0.074288
      70     Au       1         10.958892                              0.041108
      71     Au       1         10.959141                              0.040859
      72     Au       1         10.959315                              0.040685
      73     Au       1         10.975756                              0.024244
      74     Au       1         10.976029                              0.023971
      75     Au       1         10.976223                              0.023777
      76     Au       1         11.074823                             -0.074823
      77     Au       1         11.075020                             -0.075020
      78     Au       1         11.075018                             -0.075018
      79     Au       1         11.066562                             -0.066562
      80     Au       1         11.066752                             -0.066752
      81     Au       1         11.066748                             -0.066748
      82     Au       1         11.069692                             -0.069692
      83     Au       1         11.069905                             -0.069905
      84     Au       1         11.069879                             -0.069879
      85     Au       1         11.076916                             -0.076916
      86     Au       1         11.077109                             -0.077109
      87     Au       1         11.077114                             -0.077114
      88     Au       1         11.074063                             -0.074063
      89     Au       1         11.074259                             -0.074259
      90     Au       1         11.074252                             -0.074252
      91     Au       1         11.074823                             -0.074823
      92     Au       1         11.075020                             -0.075020
      93     Au       1         11.075018                             -0.075018
      94     Au       1         11.066563                             -0.066563
      95     Au       1         11.066752                             -0.066752
      96     Au       1         11.066748                             -0.066748
      97     Au       1         11.069692                             -0.069692
      98     Au       1         11.069905                             -0.069905
      99     Au       1         11.069881                             -0.069881
     100     Au       1         11.076916                             -0.076916
     101     Au       1         11.077109                             -0.077109
     102     Au       1         11.077116                             -0.077116
     103     Au       1         11.074062                             -0.074062
     104     Au       1         11.074260                             -0.074260
     105     Au       1         11.074254                             -0.074254
     106     Au       1         10.963957                              0.036043
     107     Au       1         10.964218                              0.035782
     108     Au       1         10.964433                              0.035567
     109     Au       1         10.979744                              0.020256
     110     Au       1         10.980006                              0.019994
     111     Au       1         10.980191                              0.019809
     112     Au       1         10.925174                              0.074826
     113     Au       1         10.925410                              0.074590
     114     Au       1         10.925711                              0.074289
     115     Au       1         10.958892                              0.041108
     116     Au       1         10.959141                              0.040859
     117     Au       1         10.959315                              0.040685
     118     Au       1         10.975756                              0.024244
     119     Au       1         10.976028                              0.023972
     120     Au       1         10.976223                              0.023777
     121     Au       1         10.991139                              0.008861
     122     Au       1         10.991620                              0.008380
     123     Au       1         10.991391                              0.008609
     124     Au       1         10.984100                              0.015900
     125     Au       1         10.984537                              0.015463
     126     Au       1         10.984334                              0.015666
     127     Au       1         10.946564                              0.053436
     128     Au       1         10.947107                              0.052893
     129     Au       1         10.946794                              0.053206
     130     Au       1         10.997208                              0.002792
     131     Au       1         10.997676                              0.002324
     132     Au       1         10.997469                              0.002531
     133     Au       1         10.984283                              0.015717
     134     Au       1         10.984767                              0.015233
     135     Au       1         10.984545                              0.015455
     136     Au       1         10.995247                              0.004753
     137     Au       1         10.995453                              0.004547
     138     Au       1         10.995683                              0.004317
     139     Au       1         11.012332                             -0.012332
     140     Au       1         11.012558                             -0.012558
     141     Au       1         11.012742                             -0.012742
     142     Au       1         10.959360                              0.040640
     143     Au       1         10.959533                              0.040467
     144     Au       1         10.959856                              0.040144
     145     Au       1         10.999075                              0.000925
     146     Au       1         10.999255                              0.000745
     147     Au       1         10.999453                              0.000547
     148     Au       1         11.006237                             -0.006237
     149     Au       1         11.006433                             -0.006433
     150     Au       1         11.006670                             -0.006670
     151     Au       1         11.002287                             -0.002287
     152     Au       1         11.002741                             -0.002741
     153     Au       1         11.002520                             -0.002520
     154     Au       1         10.997962                              0.002038
     155     Au       1         10.998369                              0.001631
     156     Au       1         10.998175                              0.001825
     157     Au       1         10.961152                              0.038848
     158     Au       1         10.961663                              0.038337
     159     Au       1         10.961355                              0.038645
     160     Au       1         11.007712                             -0.007712
     161     Au       1         11.008154                             -0.008154
     162     Au       1         11.007950                             -0.007950
     163     Au       1         10.997618                              0.002382
     164     Au       1         10.998071                              0.001929
     165     Au       1         10.997854                              0.002146
 # Total charge                           1815.000000                  0.000000

 !-----------------------------------------------------------------------------!

 ENERGY| Total FORCE_EVAL ( QS ) energy [a.u.]:            -5484.871460066094187

 -------------------------------------------------------------------------------
 -                                                                             -
 -                                DBCSR STATISTICS                             -
 -                                                                             -
 -------------------------------------------------------------------------------
 COUNTER                                    TOTAL       BLAS       SMM       ACC
 flops inhomo. stacks                           0       0.0%      0.0%      0.0%
 flops total                         0.000000E+00       0.0%      0.0%      0.0%
 flops max/rank                      0.000000E+00       0.0%      0.0%      0.0%
 matmuls inhomo. stacks                         0       0.0%      0.0%      0.0%
 matmuls total                                  0       0.0%      0.0%      0.0%
 number of processed stacks                     0       0.0%      0.0%      0.0%
 average stack size                                     0.0       0.0       0.0
 marketing flops                     0.000000E+00
 -------------------------------------------------------------------------------
 -                                                                             -
 -                      DBCSR MESSAGE PASSING PERFORMANCE                      -
 -                                                                             -
 -------------------------------------------------------------------------------
 ROUTINE             CALLS      AVE VOLUME [Bytes]
 MP_Bcast                1                     12.
 MP_Allreduce          620                      8.
 MP_Alltoall          1820                 728075.
 -------------------------------------------------------------------------------

 -------------------------------------------------------------------------------
 -                                                                             -
 -                                DBM STATISTICS                               -
 -                                                                             -
 -------------------------------------------------------------------------------
    M  x    N  x    K                                          COUNT     PERCENT
 -------------------------------------------------------------------------------

 -------------------------------------------------------------------------------
 -                                                                             -
 -                                GRID STATISTICS                              -
 -                                                                             -
 -------------------------------------------------------------------------------
 LP    KERNEL             BACKEND                              COUNT     PERCENT
 4     collocate ortho    REF                                2931516      40.95%
 4     integrate ortho    REF                                2791920      39.00%
 0     collocate general  REF                                 760320      10.62%
 0     integrate general  REF                                 675840       9.44%
 -------------------------------------------------------------------------------

 MEMORY| Estimated peak process memory [MiB]                                 315

 -------------------------------------------------------------------------------
 ----                             MULTIGRID INFO                            ----
 -------------------------------------------------------------------------------
 count for grid        1:          94845          cutoff [a.u.]          300.00
 count for grid        2:         274857          cutoff [a.u.]          100.00
 count for grid        3:         133344          cutoff [a.u.]           33.33
 count for grid        4:         128070          cutoff [a.u.]           11.11
 total gridlevel count  :         631116

 -------------------------------------------------------------------------------
 -                                                                             -
 -                         MESSAGE PASSING PERFORMANCE                         -
 -                                                                             -
 -------------------------------------------------------------------------------

 ROUTINE             CALLS      AVE VOLUME [Bytes]
 MP_Group                5
 MP_Bcast              796                 311415.
 MP_Allreduce          935                   3306.
 MP_Sync               250
 MP_Alltoall           665
 MP_ISendRecv        41902                   8260.
 MP_Wait             47206
 MP_ISend             8159                  52117.
 MP_IRecv             8299                  51233.
 MP_Recv               690                 380160.
 MP_Write_All            2                   6952.
 -------------------------------------------------------------------------------


 -------------------------------------------------------------------------------
 -                                                                             -
 -                           R E F E R E N C E S                               -
 -                                                                             -
 -------------------------------------------------------------------------------
 
 CP2K version 2022.1 (Development Version), the CP2K developers group (2022).
 CP2K is freely available from https://www.cp2k.org/ .

 Kuehne,Thomas D.; Iannuzzi,Marcella; Del Ben,Mauro;
 Rybkin,Vladimir V.; Seewald,Patrick; Stein,Frederick; Laino,Teodoro;
 Khaliullin,Rustam Z.; Schuett,Ole; Schiffmann,Florian; Golze,Dorothea;
 Wilhelm,Jan; Chulkov,Sergey; Bani-Hashemian,Mohammad Hossein;
 Weber,Valery; Borstnik,Urban; Taillefumier,Mathieu;
 Jakobovits,Alice Shoshana; Lazzaro,Alfio; Pabst,Hans; Mueller,Tiziano;
 Schade,Robert; Guidon,Manuel; Andermatt,Samuel; Holmberg,Nico;
 Schenter,Gregory K.; Hehn,Anna; Bussy,Augustin; Belleflamme,Fabian;
 Tabacchi,Gloria; Gloess,Andreas; Lass,Michael; Bethune,Iain;
 Mundy,Christopher J.; Plessl,Christian; Watkins,Matt;
 VandeVondele,Joost; Krack,Matthias; Hutter,Juerg. 
 The Journal of Chemical Physics, 152 (19), (2020). 
 CP2K: An electronic structure and molecular dynamics software package -
 Quickstep: Efficient and accurate electronic structure calculations.
 https://doi.org/10.1063/5.0007045

 Schuett, Ole; Messmer, Peter; Hutter, Juerg; VandeVondele, Joost. 
 Electronic Structure Calculations on Graphics Processing Units, John
 Wiley & Sons, Ltd, 173-190 (2016). 
 GPU-Accelerated Sparse Matrix-Matrix Multiplication for
 Linear Scaling Density Functional Theory.
 https://doi.org/10.1002/9781118670712.ch8

 Heinecke, A; Henry, G; Hutchinson, M; Pabst, H. 
 Proceedings of Intl. Supercomputing Conference, 981-991 (2016). 
 LIBXSMM: Accelerating Small Matrix Multiplications
 by Runtime Code Generation.
 https://doi.org/10.1109/SC.2016.83

 Borstnik, U; VandeVondele, J; Weber, V; Hutter, J. 
 PARALLEL COMPUTING, 40 (5-6), 47-58 (2014). 
 Sparse matrix multiplication: The distributed block-compressed sparse
 row library.
 https://doi.org/10.1016/j.parco.2014.03.012

 Hutter, J; Iannuzzi, M; Schiffmann, F; VandeVondele, J. 
 WIREs Comput Mol Sci., 4 (1), 15-25 (2014). 
 CP2K: atomistic simulations of condensed matter systems.
 https://doi.org/10.1002/wcms.1159

 VandeVondele, J; Hutter, J. 
 JOURNAL OF CHEMICAL PHYSICS, 127 (11), 114105 (2007). 
 Gaussian basis sets for accurate calculations on molecular systems in
 gas and condensed phases.
 https://doi.org/10.1063/1.2770708

 Krack, M. 
 THEORETICAL CHEMISTRY ACCOUNTS, 114 (1-3), 145-152 (2005). 
 Pseudopotentials for H to Kr optimized for gradient-corrected
 exchange-correlation functionals.
 https://doi.org/10.1007/s00214-005-0655-y

 VandeVondele, J; Krack, M; Mohamed, F; Parrinello, M; Chassaing, T;
 Hutter, J. COMPUTER PHYSICS COMMUNICATIONS, 167 (2), 103-128 (2005). 
 QUICKSTEP: Fast and accurate density functional calculations using a
 mixed Gaussian and plane waves approach.
 https://doi.org/10.1016/j.cpc.2004.12.014

 Frigo, M; Johnson, SG. 
 PROCEEDINGS OF THE IEEE, 93 (2), 216-231 (2005). 
 The design and implementation of FFTW3.
 https://doi.org/10.1109/JPROC.2004.840301

 Hartwigsen, C; Goedecker, S; Hutter, J. 
 PHYSICAL REVIEW B, 58 (7), 3641-3662 (1998). 
 Relativistic separable dual-space Gaussian pseudopotentials from H to Rn.
 https://doi.org/10.1103/PhysRevB.58.3641

 Lippert, G; Hutter, J; Parrinello, M. 
 MOLECULAR PHYSICS, 92 (3), 477-487 (1997). 
 A hybrid Gaussian and plane wave density functional scheme.
 https://doi.org/10.1080/002689797170220

 Perdew, JP; Burke, K; Ernzerhof, M. 
 PHYSICAL REVIEW LETTERS, 77 (18), 3865-3868 (1996). 
 Generalized gradient approximation made simple.
 https://doi.org/10.1103/PhysRevLett.77.3865

 Goedecker, S; Teter, M; Hutter, J. 
 PHYSICAL REVIEW B, 54 (3), 1703-1710 (1996). 
 Separable dual-space Gaussian pseudopotentials.
 https://doi.org/10.1103/PhysRevB.54.1703


 -------------------------------------------------------------------------------
 -                                                                             -
 -                                T I M I N G                                  -
 -                                                                             -
 -------------------------------------------------------------------------------
 SUBROUTINE                       CALLS  ASD         SELF TIME        TOTAL TIME
                                MAXIMUM       AVERAGE  MAXIMUM  AVERAGE  MAXIMUM
 CP2K                                 1  1.0    0.158    0.171   15.098   15.099
 qs_energies                          1  2.0    0.000    0.001   14.683   14.684
 scf_env_do_scf                       1  3.0    0.000    0.000   13.519   13.564
 scf_env_do_scf_inner_loop           20  4.0    0.001    0.003   13.519   13.564
 qs_scf_new_mos_kp                   20  5.0    0.000    0.000    8.389    8.389
 do_general_diag_kp                  20  6.0    0.002    0.002    8.389    8.389
 cp_cfm_geeig                        20  7.0    0.000    0.000    6.244    6.251
 cp_cfm_heevd                        20  8.0    5.664    5.677    5.664    5.677
 qs_ks_update_qs_env                 20  5.0    0.000    0.000    2.835    2.836
 rebuild_ks_matrix                   20  6.0    0.000    0.000    2.807    2.808
 qs_ks_build_kohn_sham_matrix        20  7.0    0.003    0.003    2.807    2.808
 rs_pw_transfer                     167  9.4    0.002    0.002    2.056    2.213
 qs_rho_update_rho_low               21  5.0    0.000    0.000    1.845    1.845
 calculate_rho_elec                  21  6.0    0.003    0.005    1.845    1.845
 sum_up_and_integrate                20  8.0    0.003    0.003    1.832    1.833
 integrate_v_rspace                  20  9.0    0.000    0.001    1.830    1.831
 mp_alltoall_d11v                   971  9.3    1.540    1.595    1.540    1.595
 density_rs2pw                       21  7.0    0.001    0.001    1.404    1.481
 pw_transfer                        405  9.9    0.014    0.017    1.365    1.393
 fft_wrap_pw1pw2                    365 11.0    0.002    0.003    1.345    1.374
 copy_dbcsr_to_fm                    95  6.8    0.001    0.001    1.359    1.370
 dbcsr_desymmetrize_deep            175  7.5    0.005    0.006    1.276    1.286
 potential_pw2rs                     20 10.0    0.001    0.001    1.095    1.099
 fft_wrap_pw1pw2_300                242 12.3    0.055    0.061    1.012    1.064
 mp_waitany                        3822 11.4    0.799    1.007    0.799    1.007
 mp_alltoall_i11v                   580  9.0    0.958    0.970    0.958    0.970
 fft3d_pb                           242 13.3    0.202    0.276    0.901    0.952
 rs_pw_transfer_RS2PW_300            23  8.9    0.293    0.331    0.739    0.931
 dbcsr_complete_redistribute        135  8.2    0.010    0.065    0.898    0.899
 scf_post_calculation_gpw             1  3.0    0.000    0.000    0.868    0.871
 write_available_results              1  4.0    0.000    0.000    0.868    0.871
 write_mo_free_results                1  5.0    0.279    0.285    0.868    0.871
 qs_vxc_create                       20  8.0    0.000    0.001    0.855    0.870
 xc_vxc_pw_create                    20  9.0    0.007    0.008    0.854    0.870
 mp_alltoall_z22v                   607 15.1    0.630    0.710    0.630    0.710
 rs_gather_matrices                  20 10.0    0.001    0.001    0.564    0.617
 xc_pw_derive                       120 11.0    0.001    0.001    0.591    0.614
 grid_collocate_task_list            21  7.0    0.361    0.569    0.361    0.569
 hybrid_alltoall_any                175  8.5    0.001    0.001    0.545    0.547
 rs_pw_transfer_PW2RS_300            21 11.8    0.288    0.312    0.495    0.514
 xc_rho_set_and_dset_create          20 10.0    0.007    0.009    0.406    0.457
 xc_pw_divergence                    20 10.0    0.000    0.001    0.427    0.444
 grid_integrate_task_list            20 10.0    0.171    0.408    0.171    0.408
 mp_waitall_1                     43384 11.5    0.309    0.378    0.309    0.378
 write_kpoints_restart               20  5.0    0.001    0.001    0.330    0.374
 fft3d_ps                           123 12.5    0.009    0.017    0.326    0.360
 rs_pw_transfer_RS2PW_100            21  9.0    0.028    0.033    0.161    0.341
 kpoint_density_transform            20  7.0    0.001    0.001    0.312    0.314
 hirshfeld_integration                1  6.0    0.197    0.289    0.311    0.311
 cube_transpose_4                   102 14.9    0.024    0.030    0.265    0.305
 -------------------------------------------------------------------------------

 The number of warnings for this run is : 2
 
 -------------------------------------------------------------------------------
  **** **** ******  **  PROGRAM ENDED AT                 2024-01-09 17:14:04.150
 ***** ** ***  *** **   PROGRAM RAN ON                               hx1-c08-1-1
 **    ****   ******    PROGRAM RAN BY                                    cahart
 ***** **    ** ** **   PROGRAM PROCESS ID                               2134528
  **** **  *******  **  PROGRAM STOPPED IN /gpfs/home/cahart/transport/melamine/
                                           au_from-h2/capacitor/dft_sz_kpoints-1
                                           -1-20
