 omp_num_threads=1                             
 omp_num_threads=1                             
 omp_num_threads=1                             
 omp_num_threads=1                             
 omp_num_threads=1                             
 omp_num_threads=1                             
SIESTA 1.4.13  -- [TDDFT/O(N)/Spin-Orbit branch] (4 November 2004)
Architecture  : mpif90
Compiler flags:  -O2 -openmp 
PARALLEL version

* Running on    8 nodes in parallel
 omp_num_threads=1                             
 omp_num_threads=1                             
>> Start of run:  15-FEB-2011  15:12:26

                           ***********************       
                           *  WELCOME TO SIESTA  *       
                           ***********************       

reinit: Reading from standard input
************************** Dump of input data file ****************************
# Sample file for programs SIESTA
# S. Sanvito, Mar. 02
SystemName		    Au wire		# Descriptive name of the system
SystemLabel 			Au_wire		# Short name for naming files
NumberOfAtoms     9
NumberOfSpecies			1               # Number of species
PAO.BasisType			split		# Type of basis ('nones', 'nonodes', 'split')
PAO.SplitNorm			0.15		# Amount of norm carried by the second zeta
%block ChemicalSpeciesLabel
  1   79  Au
%endblock ChemicalSpeciesLabel
%block PAO.Basis                 		# Define Basis set
Au 2
n=6   0   2 P   1                   # n, l, Nzeta, Polarization, NzetaPol
6.0 0.0
n=5   2   1                         # n, l, Nzeta
5.5
%endblock PAO.Basis
LatticeConstant 1.000 Ang
%block LatticeVectors
 15.000   0.000   0.000	  1
  0.000  15.000   0.000   1
  0.000   0.000  25.200   1
%endblock LatticeVectors
AtomicCoordinatesFormat Ang
%block AtomicCoordinatesAndAtomicSpecies
   0.000   0.000  0.000   1  Au  1
   0.000   0.000  2.800   1  Au  2
   0.000   0.000  5.600   1  Au  3
   0.000   0.000  8.400   1  Au  4
   1.000   0.000 11.200   1  Au  5
   0.000   0.000 14.000   1  Au  6
   0.000   0.000 16.800   1  Au  7
   0.000   0.000 19.600   1  Au  8
   0.000   0.000 22.400   1  Au  8
%endblock AtomicCoordinatesAndAtomicSpecies 	
%block FinalAtomicCoordinatesAndAtomicSpecies
   0.000   0.000  0.000   1  Au  1
   0.000   0.000  2.800   1  Au  2
   0.000   0.000  5.600   1  Au  3
   0.000   0.000  8.400   1  Au  4
  -1.000   0.000 11.200   1  Au  5
   0.000   0.000 14.000   1  Au  6
   0.000   0.000 16.800   1  Au  7
   0.000   0.000 19.600   1  Au  8
   0.000   0.000 22.400   1  Au  8
%endblock FinalAtomicCoordinatesAndAtomicSpecies 	
#kgrid_cutoff    10 Ang
%block kgrid_Monkhorst_Pack
  1   0   0     0.0
  0   1   0     0.0
  0   0   1     0.0
%endblock kgrid_Monkhorst_Pack
xc.functional		LDA		# 'LDA', 'GGA'
xc.authors 	 		CA		# 'CA'='PZ', 'PW92', 'PBE'
SpinPolarized			F		# 'T', 'F'		
FixSpin           F
#TotalSpin        0.0
NonCollinearSpin		F		# 'T', 'F'
MeshCutoff 	 		    600.0 Ry		# Equivalent plane wave cutoff for the grid
MaxSCFIterations		10000
DM.MixingWeight			0.1
DM.NumberPulay			4	# Pulay convergency accelerator
DM.MixSCF1              T     # Default value
DM.PulayOnFile			F		# Store in memory ('F') or in files ('T')
#DM.NumberKick         30
#DM.KickMixingWeight   0.1
DM.Tolerance 		1.0E-5
NeglNonOverlapInt		F		# 'F'=do not neglect
SolutionMethod			diagon
ElectronicTemperature		300 K		# Default value
DM.UseSaveDM 			T
#MD.UseSaveXV			T
#MD.UseSaveCG			T
WriteForces      T
WriteCoorXmol			T		# Write Atoms coordinates
SaveElectrostaticPotential      T
#SaveHS				T		# Save the Hamiltonian and Overlap matrices
SaveRho				T		# Save the valence pseudocharge density
#SaveDeltaRho			T
#WriteDenchar			T		# Write Denchar output
WriteMullikenPop		1 #write mulliken population of aromic and orbital charges
#-----
#smeagol
#-----
#%block GeometryConstraints
#  position from 1 to 36
#  position from -1 to -36
#%endblock GeometryConstraints
WriteForces      T
WriteCoorXmol     T   # Write Atoms coordinates
WriteMDXmol                     T
WriteCoorStep   T
#ParallelOverK T
EMTransport              F
NEnergReal                0
NEnergImCircle           32
NEnergImLine             32
NPoles                   32
VInitial                 0.d0 eV
VFinal                   0.d0 eV
NIVPoints                0
Delta                    1.d-4
EnergLowestBound        -5.d0 Ry
NSlices                  1
TrCoefficients         T
NTransmPoints            200
InitTransmRange         -10.0d0 eV
FinalTransmRange         10.0d0 eV
TRCScaleEF               T
#TransmissionOverK              T     # Default value
TRC.EMPDOS              T     # Default value
TRC.LeadsDOS              T     # Default value
PeriodicTransp           T
HartreeLeadsBottom     -0.57043540 eV
HartreeLeadsLeft        0.000  Ang
HartreeLeadsRight       0.000  Ang
%block SaveBiasSteps
  0
%endblock SaveBiasSteps
EM.SetEBD  T
EM.CalculateForces              T
# MD options
MD.TypeOfRun            neb         # Type of dynamics = neb
MD.NumNEBsteps          30          # Maximum Number of NEB steps
MD.NumOfImages          4           # Number of Images ( intermediate structure )
MD.Kspring              0.02        # Spring force; default works well
MD.IndexOfNEB           5           # n>0 => CI-NEB from nth step
                                    # n>NumNEBsteps => IT-NEB
                                    # n=-1 => bisection-NEB
NEB.UseBroyden          .true.      # .true.  Broyden optimizer
                                    # .false. projected Verlet (!!!underconstruction!!!)
NEB.SkipEdge            .true.      # Skip calculations of initial and
                                    #  final states ; UseSaveNEB must be .ture.
MD.MaxForceTol          0.06 eV/Ang # Tolerance of force for each images
MD.UseSaveNEB           F      # You can start from arbitary continuations
#Structure
%block GeometryConstraints
  position from 1 to 2
  position from -1 to -2
%endblock GeometryConstraints
************************** End of input data file *****************************

reinit: -----------------------------------------------------------------------
reinit: System Name: Au wire                                                    
reinit: -----------------------------------------------------------------------
reinit: System Label: Au_wire             
reinit: -----------------------------------------------------------------------

initatom: Reading input for the pseudopotentials and atomic orbitals ----------
 Species number:            1  Label: Au Atomic number:          79
Ground state valence configuration:   6s01  5d10
Reading pseudopotential information in formatted form from Au.psf
For Au, standard SIESTA heuristics set lmxkb to 3
 (one more than the basis l, including polarization orbitals).
Use PS.lmax or PS.KBprojectors blocks to override.
 Warning: Empty PAO shell. l =           1
 Will have a KB projector anyway...

<basis_specs>
===============================================================================
Au                   Z=  79    Mass=  196.97        Charge=  0.0000    
Lmxo=2 Lmxkb=3     BasisType=split      Semic=F
L=0  Nsemic=0  Cnfigmx=6
          n=1  nzeta=2  polorb=1
               vcte:    0.0000    
               rinn:    0.0000    
                rcs:    6.0000      0.0000    
            lambdas:    1.0000      1.0000    
L=1  Nsemic=0  Cnfigmx=6
L=2  Nsemic=0  Cnfigmx=5
          n=1  nzeta=1  polorb=0
               vcte:    0.0000    
               rinn:    0.0000    
                rcs:    5.5000    
            lambdas:    1.0000    
-------------------------------------------------------------------------------
L=0  Nkbl=1  erefs: 0.17977+309
L=1  Nkbl=1  erefs: 0.17977+309
L=2  Nkbl=1  erefs: 0.17977+309
L=3  Nkbl=1  erefs: 0.17977+309
===============================================================================
</basis_specs>

atom: Called for Au  (Z =  79)

read_vps: Pseudopotential generation method:
read_vps: ATM3      Troullier-Martins                       

read_vps: Pseudopotential generated from a relativistic atomic calculation
read_vps: There are spin-orbit pseudopotentials available

read_vps: Valence configuration (pseudopotential and basis set generation):
6s( 1.00) rc: 2.18
6p( 0.00) rc: 2.47
5d(10.00) rc: 1.79
5f( 0.00) rc: 2.00
Total valence charge:   11.00000

read_vps: Pseudopotential includes a core correction:
read_vps: Pseudo-core for xc-correction
comcore: Pseudo-core radius Rcore=  4.027091

xc_check: Exchange-correlation functional:
xc_check: Ceperley-Alder
V l=0 = -2*Zval/r beyond r=  2.9833
V l=1 = -2*Zval/r beyond r=  2.9833
V l=2 = -2*Zval/r beyond r=  2.9833
V l=3 = -2*Zval/r beyond r=  2.9833
All V_l potentials equal beyond r=  2.4425
This should be close to max(r_c) in ps generation
All pots = -2*Zval/r beyond r=  2.9833

VLOCAL1: 99.0% of the norm of Vloc inside      7.276 Ry
VLOCAL1: 99.9% of the norm of Vloc inside     16.582 Ry
atom: Maximum radius for 4*pi*r*r*local-pseudopot. charge    2.94627
atom: Maximum radius for r*vlocal+2*Zval:    2.60007
GHOST: No ghost state for L =  0
GHOST: No ghost state for L =  1
GHOST: No ghost state for L =  2
GHOST: No ghost state for L =  3

KBgen: Kleinman-Bylander projectors: 
   l= 0   rc=  3.175745   el= -0.445638   Ekb=  5.072790   kbcos=  0.276607
   l= 1   rc=  3.256140   el= -0.066324   Ekb=  2.703235   kbcos=  0.227171
   l= 2   rc=  3.020861   el= -0.526103   Ekb= -4.704026   kbcos= -0.643795
   l= 3   rc=  3.466145   el=  0.003438   Ekb= -2.516122   kbcos= -0.010529

KBgen: Total number of  Kleinman-Bylander projectors:   16
atom: -------------------------------------------------------------------------

atom: SANKEY-TYPE ORBITALS:
atom: Selected multiple-zeta basis: split     

SPLIT: Orbitals with angular momentum L= 0

SPLIT: Basis orbitals for state 6s

   izeta = 1
                 lambda =    1.000000
                     rc =    6.083298
                 energy =   -0.427281
                kinetic =    0.413324
    potential(screened) =   -0.840605
       potential(ionic) =   -8.569369

   izeta = 2
                 rmatch =    5.643738
              splitnorm =    0.150000
                 energy =   -0.356838
                kinetic =    0.642757
    potential(screened) =   -0.999595
       potential(ionic) =   -9.161462

SPLIT: Orbitals with angular momentum L= 2

SPLIT: Basis orbitals for state 5d

   izeta = 1
                 lambda =    1.000000
                     rc =    5.504393
                 energy =   -0.523460
                kinetic =    4.937955
    potential(screened) =   -5.461415
       potential(ionic) =  -15.928016

POLgen: Perturbative polarization orbital with L=  1

POLgen: Polarization orbital for state 6s

   izeta = 1
                     rc =    6.083298
                 energy =   -0.072727
                kinetic =    0.732634
    potential(screened) =   -0.805360
       potential(ionic) =   -8.142092
atom: Total number of Sankey-type orbitals: 10

atm_pop: Valence configuration(local Pseudopot. screening):
 6s( 1.00)                                                            
 6p( 0.00)                                                            
 5d(10.00)                                                            
Vna: chval, zval:   11.00000  11.00000

Vna:  Cut-off radius for the neutral-atom potential:   6.083298

atom: _________________________________________________________________________

prinput: Basis input ----------------------------------------------------------

PAO.BasisType split     

%block ChemicalSpeciesLabel
    1   79 Au                      # Species index, atomic number, species label
%endblock ChemicalSpeciesLabel

%block PAO.Basis                 # Define Basis set
Au          2                    # Species label, number of l-shells
 n=6   0   2 P   1                   # n, l, Nzeta, Polarization, NzetaPol
   6.083      5.644   
   1.000      1.000   
 n=5   2   1                         # n, l, Nzeta 
   5.504   
   1.000   
%endblock PAO.Basis

prinput: ----------------------------------------------------------------------


siesta: ******************** Simulation parameters ****************************
siesta:
siesta: The following are some of the parameters of the simulation.
siesta: A complete list of the parameters used, including defect values,
siesta: can be found in file out.fdf
siesta:
coor:   Atomic-coordinates input format  =     Cartesian coordinates
coor:                                          (in Angstroms)
redata: Number of spin components        =     1
redata: SpinOrbit                        =     0
redata: Long output                      =     F
redata: Number of Atomic Species         =     1
redata: Charge density info will appear in .RHO file
redata: Write Mulliken Pop.              =     Atomic and Orbital charges
redata: Mesh Cutoff                      =   600.0000  Ry
redata: Net charge of the system         =     0.0000 |e|
redata: Max. number of SCF Iter          = 10000
redata: One Pulay mixing every           =     4 iterations
redata: Mix DM in first SCF step ?       =     T
redata: Write Pulay info on disk?        =     F
redata: New DM Mixing Weight             =     0.1000
redata: No kicks to SCF
redata: DM Mixing Weight for Kicks       =     0.5000
redata: DM Tolerance for SCF             =     0.000010
redata: Use continuation files for DM    =     T
redata: Neglect nonoverlap interactions  =     F
redata: Method of Calculation            =     Diagonalization
redata: Divide and Conquer               =     F
redata: Electronic Temperature           =     0.0019  Ry
redata: Fix the spin of the system       =     F
redata: Dynamics option                  =     Nudged Elastic Band
redata: Initial MD time step             =     1
redata:   Final MD time step             =     1
redata: Length of MD time step           =     1.0000  fs
redata: Length of MD time step           =     1.0000  fs

redata: Initial Temperature of MD run    =     0.0000  K
redata: Perform a MD quench              =     F
redata: ***********************************************************************
 timereversal= T

siesta: Atomic coordinates (Bohr) and species
siesta:      0.00000   0.00000   0.00000  1        1
siesta:      0.00000   0.00000   5.29124  1        2
siesta:      0.00000   0.00000  10.58247  1        3
siesta:      0.00000   0.00000  15.87371  1        4
siesta:      1.88973   0.00000  21.16494  1        5
siesta:      0.00000   0.00000  26.45618  1        6
siesta:      0.00000   0.00000  31.74741  1        7
siesta:      0.00000   0.00000  37.03865  1        8
siesta:      0.00000   0.00000  42.32988  1        9
 timereversal= T
 timereversal= T
 timereversal= T
 timereversal= T
 timereversal= T

initatomlists: Number of atoms, orbitals, and projectors:      9    90   144
 timereversal= T
 timereversal= T

siesta: System type = chain     

* ProcessorY, Blocksize:    2   8

 label:           1 Au                             1 s      
 label:           2 Au                             1 s      
 label:           3 Au                             1 dxy    
 label:           4 Au                             1 dyz    
 label:           5 Au                             1 dz2    
 label:           6 Au                             1 dxz    
 label:           7 Au                             1 dx2-y2 
 label:           8 Au                             1 Ppy    
 label:           9 Au                             1 Ppz    
 label:          10 Au                             1 Ppx    
 label:          11 Au                             2 s      
 label:          12 Au                             2 s      
 label:          13 Au                             2 dxy    
 label:          14 Au                             2 dyz    
 label:          15 Au                             2 dz2    
 label:          16 Au                             2 dxz    
 label:          17 Au                             2 dx2-y2 
 label:          18 Au                             2 Ppy    
 label:          19 Au                             2 Ppz    
 label:          20 Au                             2 Ppx    
 label:          21 Au                             3 s      
 label:          22 Au                             3 s      
 label:          23 Au                             3 dxy    
 label:          24 Au                             3 dyz    
 label:          25 Au                             3 dz2    
 label:          26 Au                             3 dxz    
 label:          27 Au                             3 dx2-y2 
 label:          28 Au                             3 Ppy    
 label:          29 Au                             3 Ppz    
 label:          30 Au                             3 Ppx    
 label:          31 Au                             4 s      
 label:          32 Au                             4 s      
 label:          33 Au                             4 dxy    
 label:          34 Au                             4 dyz    
 label:          35 Au                             4 dz2    
 label:          36 Au                             4 dxz    
 label:          37 Au                             4 dx2-y2 
 label:          38 Au                             4 Ppy    
 label:          39 Au                             4 Ppz    
 label:          40 Au                             4 Ppx    
 label:          41 Au                             5 s      
 label:          42 Au                             5 s      
 label:          43 Au                             5 dxy    
 label:          44 Au                             5 dyz    
 label:          45 Au                             5 dz2    
 label:          46 Au                             5 dxz    
 label:          47 Au                             5 dx2-y2 
 label:          48 Au                             5 Ppy    
 label:          49 Au                             5 Ppz    
 label:          50 Au                             5 Ppx    
 label:          51 Au                             6 s      
 label:          52 Au                             6 s      
 label:          53 Au                             6 dxy    
 label:          54 Au                             6 dyz    
 label:          55 Au                             6 dz2    
 label:          56 Au                             6 dxz    
 label:          57 Au                             6 dx2-y2 
 label:          58 Au                             6 Ppy    
 label:          59 Au                             6 Ppz    
 label:          60 Au                             6 Ppx    
 label:          61 Au                             7 s      
 label:          62 Au                             7 s      
 label:          63 Au                             7 dxy    
 label:          64 Au                             7 dyz    
 label:          65 Au                             7 dz2    
 label:          66 Au                             7 dxz    
 label:          67 Au                             7 dx2-y2 
 label:          68 Au                             7 Ppy    
 label:          69 Au                             7 Ppz    
 label:          70 Au                             7 Ppx    
 label:          71 Au                             8 s      
 label:          72 Au                             8 s      
 label:          73 Au                             8 dxy    
 label:          74 Au                             8 dyz    
 label:          75 Au                             8 dz2    
 label:          76 Au                             8 dxz    
 label:          77 Au                             8 dx2-y2 
 label:          78 Au                             8 Ppy    
 label:          79 Au                             8 Ppz    
 label:          80 Au                             8 Ppx    
 label:          81 Au                             9 s      
 label:          82 Au                             9 s      
 label:          83 Au                             9 dxy    
 label:          84 Au                             9 dyz    
 label:          85 Au                             9 dz2    
 label:          86 Au                             9 dxz    
 label:          87 Au                             9 dx2-y2 
 label:          88 Au                             9 Ppy    
 label:          89 Au                             9 Ppz    
 label:          90 Au                             9 Ppx    
 
* Maximum dynamic memory allocated =     1 MB

siesta:                 ==============================
                            NEB calculation...  
                            Total step   =      0
                            NEB step     =      1
                            current bead =      0
                        ==============================

outcoor: Atomic coordinates (Ang):                          
    0.00000000    0.00000000    0.00000000   1  Au         1
    0.00000000    0.00000000    2.80000000   1  Au         2
    0.00000000    0.00000000    5.60000000   1  Au         3
    0.00000000    0.00000000    8.40000000   1  Au         4
    1.00000000    0.00000000   11.20000000   1  Au         5
    0.00000000    0.00000000   14.00000000   1  Au         6
    0.00000000    0.00000000   16.80000000   1  Au         7
    0.00000000    0.00000000   19.60000000   1  Au         8
    0.00000000    0.00000000   22.40000000   1  Au         9

read_ldau The LDA+U method used is from Czyzky PRB 49 14211

neb: Read density matrix (if it exists) number =  0                 

InitMesh: MESH =   240 x   240 x   384 =    22118400
InitMesh: Mesh cutoff (required, used) =   600.000   641.746 Ry
 
* Maximum dynamic memory allocated =   194 MB

stepf: Fermi-Dirac step function

siesta: Program's energy decomposition (eV):
siesta: Eions   =     10845.004159
siesta: Ena     =       606.647891
siesta: Ekin    =      6097.316664
siesta: Enl     =     -2358.426206
siesta: DEna    =        -0.000198
siesta: DUscf   =         0.000000
siesta: DUext   =         0.000000
siesta: Exc     =     -3737.051329
siesta: eta*DQ  =         0.000000
siesta: Emadel  =         0.000000
siesta: Eharris =    -10246.905021
siesta: Eso     =         0.000000
siesta: Etot    =    -10236.517338
siesta: FreeEng =    -10236.517338

siesta: iscf   Eharris(eV)      E_KS(eV)   FreeEng(eV)   dDmax  Ef(eV)
siesta:    1   -10246.9050   -10236.5173   -10236.5173  0.6394 -4.9787
timer: Routine,Calls,Time,% = IterSCF        1      89.580  87.84
siesta:    2   -10246.0644   -10237.5086   -10237.5629  0.5338 -5.2536
siesta:    3   -10244.7489   -10240.6241   -10240.6804  0.2950 -6.0616
siesta:    4   -10244.6891   -10241.2145   -10241.2743  0.2558 -6.1643
siesta:    5   -10244.6799   -10242.1567   -10242.2231  0.1888 -6.1493
siesta:    6   -10244.6754   -10244.5122   -10244.5795  0.0381 -6.1038
siesta:    7   -10244.6724   -10244.6077   -10244.6741  0.0158 -6.1061
siesta:    8   -10244.6725   -10244.6242   -10244.6918  0.0085 -6.1056
siesta:    9   -10244.6718   -10244.6540   -10244.7208  0.0054 -6.1065
siesta:   10   -10244.6721   -10244.6499   -10244.7171  0.0027 -6.1056
siesta:   11   -10244.6720   -10244.6556   -10244.7223  0.0015 -6.1051
siesta:   12   -10244.6719   -10244.6646   -10244.7314  0.0011 -6.1043
siesta:   13   -10244.6717   -10244.6728   -10244.7397  0.0007 -6.1038
siesta:   14   -10244.6717   -10244.6727   -10244.7398  0.0005 -6.1038
siesta:   15   -10244.6717   -10244.6738   -10244.7409  0.0006 -6.1039
siesta:   16   -10244.6717   -10244.6726   -10244.7397  0.0002 -6.1040
siesta:   17   -10244.6717   -10244.6721   -10244.7391  0.0001 -6.1040
siesta:   18   -10244.6717   -10244.6719   -10244.7389  0.0000 -6.1040
siesta:   19   -10244.6717   -10244.6719   -10244.7389  0.0000 -6.1040
siesta:   20   -10244.6717   -10244.6718   -10244.7389  0.0000 -6.1040
siesta:   21   -10244.6717   -10244.6718   -10244.7388  0.0000 -6.1040
siesta:   22   -10244.6717   -10244.6718   -10244.7388  0.0000 -6.1040

siesta: E_KS(eV) =           -10244.6718

siesta: E_KS - E_eggbox =    -10244.6718

siesta: Atomic forces (eV/Ang):
     1    0.000216    0.000000    0.008374
     2   -0.010013    0.000000    0.016161
     3    0.076188    0.000000    0.060189
     4    0.372973    0.000000    0.194197
     5   -0.879352    0.000000    0.034461
     6    0.373206    0.000000   -0.217508
     7    0.076255    0.000000   -0.085206
     8   -0.009906    0.000000    0.037772
     9    0.000161    0.000000   -0.034814
----------------------------------------
 Tot   -0.000273    0.000000    0.013626
----------------------------------------
 Max    0.879352
 Res    0.207590    sqrt( Sum f_i^2 / 3N )
----------------------------------------
 Max    0.879352    constrained

siesta: Stress tensor (static) (eV/Ang**3):
         0.000240    0.000000    0.000000
         0.000000    0.000085    0.000000
         0.000000    0.000000    0.005974

siesta: Pressure (static):         -3.36437584  kBar

siesta: Stress tensor (total) (eV/Ang**3):
         0.000240    0.000000    0.000000
         0.000000    0.000085    0.000000
         0.000000    0.000000    0.005974

siesta: Pressure (total):         -3.36437584  kBar
 
mulliken: Atomic and Orbital Populations:

Species: Au                  
Atom  Qatom  Qorb
               6s      6s      5dxy    5dyz    5dz2    5dxz    5dx2-y2 6Ppy    
               6Ppz    6Ppx    
   1 11.003   0.964   0.108   2.000   1.969   1.891   1.973   2.000   0.019
              0.058   0.019
   2 11.002   0.966   0.110   2.000   1.972   1.884   1.974   2.000   0.019
              0.057   0.019
   3 11.005   0.971   0.111   2.000   1.975   1.880   1.970   2.000   0.019
              0.060   0.019
   4 10.995   0.967   0.094   1.999   1.982   1.915   1.945   1.997   0.016
              0.062   0.017
   5 10.992   0.987   0.082   1.998   1.988   1.946   1.915   1.996   0.013
              0.054   0.014
   6 10.995   0.967   0.094   1.999   1.982   1.915   1.945   1.997   0.016
              0.062   0.017
   7 11.005   0.971   0.111   2.000   1.975   1.879   1.970   2.000   0.019
              0.060   0.019
   8 11.002   0.966   0.110   2.000   1.972   1.884   1.974   2.000   0.019
              0.057   0.019
   9 11.003   0.964   0.108   2.000   1.969   1.891   1.973   2.000   0.019
              0.058   0.019

mulliken: Qtot =   99.000

neb: ***Information of NEB calculation***
neb: Spring constant (Ry/Bohr**2):0.02000000
neb: Solves Climbing Image NEB
neb: Number of iterations befoer CI-NEB:      5
neb: Optimized with Broyden
Broyden_optim: max_history for broyden:   5
Broyden_optim: cycle on maxit: T
Broyden_optim: initial inverse jacobian:   1.0000
 

ioneb: Writing NEB continuation file
 
* Maximum dynamic memory allocated =   194 MB

siesta:                 ==============================
                            NEB calculation...  
                            Total step   =      1
                            NEB step     =      1
                            current bead =      5
                        ==============================

outcoor: Atomic coordinates (Ang):                          
    0.00000000    0.00000000    0.00000000   1  Au         1
    0.00000000    0.00000000    2.80000000   1  Au         2
    0.00000000    0.00000000    5.60000000   1  Au         3
    0.00000000    0.00000000    8.40000000   1  Au         4
   -1.00000000    0.00000000   11.20000000   1  Au         5
    0.00000000    0.00000000   14.00000000   1  Au         6
    0.00000000    0.00000000   16.80000000   1  Au         7
    0.00000000    0.00000000   19.60000000   1  Au         8
    0.00000000    0.00000000   22.40000000   1  Au         9

neb: Read density matrix (if it exists) number =  5                 

siesta: iscf   Eharris(eV)      E_KS(eV)   FreeEng(eV)   dDmax  Ef(eV)
siesta:    1   -10246.9050   -10236.5173   -10236.5844  0.6394 -4.9787
siesta:    2   -10246.0644   -10237.5086   -10237.5629  0.5338 -5.2536
siesta:    3   -10244.7489   -10240.6241   -10240.6804  0.2950 -6.0616
siesta:    4   -10244.6891   -10241.2145   -10241.2743  0.2558 -6.1643
siesta:    5   -10244.6799   -10242.1567   -10242.2231  0.1888 -6.1493
siesta:    6   -10244.6754   -10244.5122   -10244.5795  0.0381 -6.1038
siesta:    7   -10244.6724   -10244.6077   -10244.6741  0.0158 -6.1061
siesta:    8   -10244.6725   -10244.6242   -10244.6918  0.0085 -6.1056
siesta:    9   -10244.6718   -10244.6540   -10244.7208  0.0054 -6.1065
siesta:   10   -10244.6721   -10244.6499   -10244.7171  0.0027 -6.1056
siesta:   11   -10244.6720   -10244.6556   -10244.7223  0.0015 -6.1051
siesta:   12   -10244.6719   -10244.6646   -10244.7314  0.0011 -6.1043
siesta:   13   -10244.6717   -10244.6728   -10244.7397  0.0007 -6.1038
siesta:   14   -10244.6717   -10244.6727   -10244.7398  0.0005 -6.1038
siesta:   15   -10244.6717   -10244.6738   -10244.7408  0.0006 -6.1039
siesta:   16   -10244.6717   -10244.6726   -10244.7397  0.0002 -6.1040
siesta:   17   -10244.6717   -10244.6721   -10244.7391  0.0001 -6.1040
siesta:   18   -10244.6717   -10244.6719   -10244.7389  0.0000 -6.1040
siesta:   19   -10244.6717   -10244.6719   -10244.7389  0.0000 -6.1040
siesta:   20   -10244.6717   -10244.6718   -10244.7389  0.0000 -6.1040
siesta:   21   -10244.6717   -10244.6718   -10244.7388  0.0000 -6.1040
siesta:   22   -10244.6717   -10244.6718   -10244.7388  0.0000 -6.1040

siesta: E_KS(eV) =           -10244.6718

siesta: Atomic forces (eV/Ang):
     1   -0.000216    0.000000    0.008375
     2    0.010012    0.000000    0.016160
     3   -0.076189    0.000000    0.060190
     4   -0.372972    0.000000    0.194197
     5    0.879351    0.000000    0.034460
     6   -0.373205    0.000000   -0.217507
     7   -0.076253    0.000000   -0.085207
     8    0.009906    0.000000    0.037771
     9   -0.000161    0.000000   -0.034815
----------------------------------------
 Tot    0.000274    0.000000    0.013626
----------------------------------------
 Max    0.879351
 Res    0.207590    sqrt( Sum f_i^2 / 3N )
----------------------------------------
 Max    0.879351    constrained

siesta: Stress tensor (static) (eV/Ang**3):
         0.000240    0.000000    0.000000
         0.000000    0.000085    0.000000
         0.000000    0.000000    0.005974

siesta: Pressure (static):         -3.36437729  kBar

siesta: Stress tensor (total) (eV/Ang**3):
         0.000240    0.000000    0.000000
         0.000000    0.000085    0.000000
         0.000000    0.000000    0.005974

siesta: Pressure (total):         -3.36437729  kBar
 
mulliken: Atomic and Orbital Populations:

Species: Au                  
Atom  Qatom  Qorb
               6s      6s      5dxy    5dyz    5dz2    5dxz    5dx2-y2 6Ppy    
               6Ppz    6Ppx    
   1 11.003   0.964   0.108   2.000   1.969   1.891   1.973   2.000   0.019
              0.058   0.019
   2 11.002   0.966   0.110   2.000   1.972   1.884   1.974   2.000   0.019
              0.057   0.019
   3 11.005   0.971   0.111   2.000   1.975   1.880   1.970   2.000   0.019
              0.060   0.019
   4 10.995   0.967   0.094   1.999   1.982   1.915   1.945   1.997   0.016
              0.062   0.017
   5 10.992   0.987   0.082   1.998   1.988   1.946   1.915   1.996   0.013
              0.054   0.014
   6 10.995   0.967   0.094   1.999   1.982   1.915   1.945   1.997   0.016
              0.062   0.017
   7 11.005   0.971   0.111   2.000   1.975   1.879   1.970   2.000   0.019
              0.060   0.019
   8 11.002   0.966   0.110   2.000   1.972   1.884   1.974   2.000   0.019
              0.057   0.019
   9 11.003   0.964   0.108   2.000   1.969   1.891   1.973   2.000   0.019
              0.058   0.019

mulliken: Qtot =   99.000

ioneb: Writing NEB continuation file
 
* Maximum dynamic memory allocated =   194 MB

siesta:                 ==============================
                            NEB calculation...  
                            Total step   =      2
                            NEB step     =      1
                            current bead =      1
                        ==============================

outcoor: Atomic coordinates (Ang):                          
    0.00000000    0.00000000    0.00000000   1  Au         1
    0.00000000    0.00000000    2.80000000   1  Au         2
    0.00000000    0.00000000    5.60000000   1  Au         3
    0.00000000    0.00000000    8.40000000   1  Au         4
    0.60000000    0.00000000   11.20000000   1  Au         5
    0.00000000    0.00000000   14.00000000   1  Au         6
    0.00000000    0.00000000   16.80000000   1  Au         7
    0.00000000    0.00000000   19.60000000   1  Au         8
    0.00000000    0.00000000   22.40000000   1  Au         9

neb: Read density matrix (if it exists) number =  1                 

siesta: iscf   Eharris(eV)      E_KS(eV)   FreeEng(eV)   dDmax  Ef(eV)
siesta:    1   -10247.1444   -10236.9190   -10236.9860  0.6299 -4.9567
siesta:    2   -10246.3326   -10237.8957   -10237.9473  0.5221 -5.2304
siesta:    3   -10245.0024   -10240.9706   -10241.0261  0.2609 -6.0423
siesta:    4   -10244.9605   -10241.7460   -10241.8201  0.2695 -6.2042
siesta:    5   -10244.9386   -10242.5198   -10242.5905  0.1974 -6.1864
siesta:    6   -10244.9222   -10244.6826   -10244.7499  0.0327 -6.1137
siesta:    7   -10244.9219   -10244.7375   -10244.8124  0.0277 -6.1178
siesta:    8   -10244.9202   -10244.8354   -10244.9060  0.0104 -6.1208
siesta:    9   -10244.9202   -10244.8693   -10244.9402  0.0095 -6.1228
siesta:   10   -10244.9205   -10244.9370   -10245.0075  0.0043 -6.1244
siesta:   11   -10244.9201   -10244.9404   -10245.0102  0.0030 -6.1236
siesta:   12   -10244.9200   -10244.9401   -10245.0102  0.0025 -6.1224
siesta:   13   -10244.9198   -10244.9318   -10245.0020  0.0024 -6.1221
siesta:   14   -10244.9199   -10244.9226   -10244.9930  0.0007 -6.1224
siesta:   15   -10244.9199   -10244.9217   -10244.9919  0.0005 -6.1224
siesta:   16   -10244.9199   -10244.9209   -10244.9911  0.0002 -6.1226
siesta:   17   -10244.9199   -10244.9210   -10244.9912  0.0001 -6.1227
siesta:   18   -10244.9199   -10244.9209   -10244.9912  0.0001 -6.1227
siesta:   19   -10244.9199   -10244.9208   -10244.9910  0.0001 -6.1227
siesta:   20   -10244.9199   -10244.9203   -10244.9905  0.0001 -6.1227
siesta:   21   -10244.9199   -10244.9201   -10244.9903  0.0000 -6.1227
siesta:   22   -10244.9199   -10244.9200   -10244.9902  0.0000 -6.1227
siesta:   23   -10244.9199   -10244.9200   -10244.9902  0.0000 -6.1227

siesta: E_KS(eV) =           -10244.9200

siesta: Atomic forces (eV/Ang):
     1   -0.000737    0.000000   -0.003620
     2   -0.000692    0.000000    0.025570
     3    0.053939    0.000000    0.005427
     4    0.140107    0.000000    0.153101
     5   -0.394324    0.000000    0.028722
     6    0.140042    0.000000   -0.173916
     7    0.054003    0.000000   -0.031420
     8   -0.000614    0.000000    0.028235
     9   -0.000803    0.000000   -0.023123
----------------------------------------
 Tot   -0.009079    0.000000    0.008977
----------------------------------------
 Max    0.394324
 Res    0.097769    sqrt( Sum f_i^2 / 3N )
----------------------------------------
 Max    0.394324    constrained

siesta: Stress tensor (static) (eV/Ang**3):
         0.000111    0.000000   -0.000001
         0.000000    0.000083    0.000000
        -0.000001    0.000000    0.005870

siesta: Pressure (static):         -3.23858623  kBar

siesta: Stress tensor (total) (eV/Ang**3):
         0.000111    0.000000   -0.000001
         0.000000    0.000083    0.000000
        -0.000001    0.000000    0.005870

siesta: Pressure (total):         -3.23858623  kBar
 
mulliken: Atomic and Orbital Populations:

Species: Au                  
Atom  Qatom  Qorb
               6s      6s      5dxy    5dyz    5dz2    5dxz    5dx2-y2 6Ppy    
               6Ppz    6Ppx    
   1 11.001   0.966   0.110   2.000   1.966   1.893   1.972   2.000   0.019
              0.058   0.019
   2 10.999   0.963   0.110   2.000   1.968   1.889   1.973   2.000   0.019
              0.058   0.019
   3 11.003   0.970   0.112   2.000   1.970   1.884   1.972   2.000   0.019
              0.058   0.019
   4 10.997   0.961   0.105   1.999   1.974   1.904   1.957   1.999   0.018
              0.061   0.018
   5 10.999   0.975   0.101   1.999   1.978   1.921   1.935   1.999   0.017
              0.058   0.017
   6 10.997   0.961   0.105   1.999   1.974   1.904   1.957   1.999   0.018
              0.061   0.018
   7 11.003   0.970   0.112   2.000   1.970   1.884   1.972   2.000   0.019
              0.058   0.019
   8 10.999   0.963   0.110   2.000   1.968   1.889   1.973   2.000   0.019
              0.058   0.019
   9 11.001   0.966   0.109   2.000   1.966   1.893   1.972   2.000   0.019
              0.058   0.019

mulliken: Qtot =   99.000

ioneb: Writing NEB continuation file
 
* Maximum dynamic memory allocated =   194 MB

siesta:                 ==============================
                            NEB calculation...  
                            Total step   =      3
                            NEB step     =      1
                            current bead =      2
                        ==============================

outcoor: Atomic coordinates (Ang):                          
    0.00000000    0.00000000    0.00000000   1  Au         1
    0.00000000    0.00000000    2.80000000   1  Au         2
    0.00000000    0.00000000    5.60000000   1  Au         3
    0.00000000    0.00000000    8.40000000   1  Au         4
    0.20000000    0.00000000   11.20000000   1  Au         5
    0.00000000    0.00000000   14.00000000   1  Au         6
    0.00000000    0.00000000   16.80000000   1  Au         7
    0.00000000    0.00000000   19.60000000   1  Au         8
    0.00000000    0.00000000   22.40000000   1  Au         9

neb: Read density matrix (if it exists) number =  2                 

siesta: iscf   Eharris(eV)      E_KS(eV)   FreeEng(eV)   dDmax  Ef(eV)
siesta:    1   -10247.1334   -10237.1444   -10237.2146  0.6226 -4.9217
siesta:    2   -10246.4053   -10238.1026   -10238.1601  0.5102 -5.1853
siesta:    3   -10245.0149   -10241.4880   -10241.5459  0.2469 -6.1374
siesta:    4   -10245.0315   -10242.2948   -10242.3725  0.2417 -6.2116
siesta:    5   -10245.0066   -10243.3716   -10243.4415  0.1309 -6.1197
siesta:    6   -10244.9984   -10244.9016   -10244.9788  0.0081 -6.1297
siesta:    7   -10244.9987   -10244.9215   -10244.9975  0.0105 -6.1339
siesta:    8   -10244.9986   -10244.9525   -10245.0276  0.0073 -6.1359
siesta:    9   -10244.9985   -10244.9665   -10245.0416  0.0046 -6.1356
siesta:   10   -10244.9982   -10244.9921   -10245.0671  0.0021 -6.1361
siesta:   11   -10244.9981   -10244.9882   -10245.0634  0.0014 -6.1357
siesta:   12   -10244.9981   -10244.9843   -10245.0595  0.0013 -6.1354
siesta:   13   -10244.9981   -10244.9867   -10245.0620  0.0008 -6.1353
siesta:   14   -10244.9981   -10244.9903   -10245.0655  0.0006 -6.1355
siesta:   15   -10244.9981   -10244.9930   -10245.0682  0.0005 -6.1355
siesta:   16   -10244.9981   -10244.9967   -10245.0719  0.0002 -6.1355
siesta:   17   -10244.9981   -10244.9975   -10245.0727  0.0002 -6.1354
siesta:   18   -10244.9981   -10244.9976   -10245.0728  0.0001 -6.1354
siesta:   19   -10244.9981   -10244.9974   -10245.0726  0.0001 -6.1353
siesta:   20   -10244.9981   -10244.9975   -10245.0727  0.0001 -6.1354
siesta:   21   -10244.9981   -10244.9976   -10245.0728  0.0000 -6.1354
siesta:   22   -10244.9981   -10244.9977   -10245.0729  0.0000 -6.1354
siesta:   23   -10244.9981   -10244.9979   -10245.0731  0.0000 -6.1354
8 total processes killed (some possibly by mpirun during cleanup)
