ATOMS
H             3.25353201      5.72009504     18.92650888            -0.00526277     -0.00490668     -0.70707017
H             3.25943367      5.72541275     19.67645804             0.00526277      0.00490668      0.70707017
