ATOMS
H             3.25353201      5.72009504     18.92650888            -0.70657048     -0.02699053      0.00544635
H             3.25943367      5.72541275     19.67645804             0.70657048      0.02699053     -0.00544635
