Siesta Version: ismeagol.1.0
Architecture  : thomas-intel2017update1-intelmpi-mkl
Compiler flags: mpif90 -O2 -fPIC -g -ftree-vectorize -xHost
PARALLEL version

* Running on    2 nodes in parallel
>> Start of run:  30-OCT-2023  17:38:56

                           ***********************       
                           *  WELCOME TO SIESTA  *       
                           ***********************       

reinit: Reading from standard input
************************** Dump of input data file ****************************
SystemName                   au-chain_szv_zerobias          # Descriptive name of the system
SystemLabel                     au-chain_szv_zerobias               # Short name for naming files
NumberOfAtoms    9
NumberOfSpecies                 1               # Number of species
PAO.BasisType                   split
%block ChemicalSpeciesLabel
1 79 Au
%endblock ChemicalSpeciesLabel
%block PAO.Basis
  Au  2
n=6  0  1
6.500
1.00
n=5  2  1
5.850
1.00
%endblock PAO.Basis
%block PS.lmax
 Au   3
%endblock PS.lmax
LatticeConstant 1.000 Ang
%block LatticeVectors
  8.4    0.000   0.000    1
  0.000   8.4     0.000   1
  0.000   0.000     25.2 1
%endblock LatticeVectors
AtomicCoordinatesFormat Ang
%block AtomicCoordinatesAndAtomicSpecies
0.0 0.0 0.0 1 Au
0.0 0.0 2.8 1 Au
0.0 0.0 5.6 1 Au
0.0 0.0 8.4 1 Au
0.0 0.0 11.2 1 Au
0.0 0.0 14.0 1 Au
0.0 0.0 16.8 1 Au
0.0 0.0 19.6 1 Au
0.0 0.0 22.4 1 Au
%endblock AtomicCoordinatesAndAtomicSpecies
%block GeometryConstraints
   position   from  1 to 3
   position   from  7 to 9
%endblock GeometryConstraints
%block kgrid_Monkhorst_Pack
  2   0   0     0.0
  0   2   0     0.0
  0   0   1     0.0
%endblock kgrid_Monkhorst_Pack
xc.functional		LDA		# 'LDA', 'GGA'
xc.authors 	 		CA		# 'CA'='PZ', 'PW92', 'PBE'
SpinPolarized			F		# 'T', 'F'		
#FixSpin           F
#TotalSpin        0.0
NonCollinearSpin		F		# 'T', 'F'
MeshCutoff 	 		    200 Ry		# Equivalent plane wave cutoff for the grid
MaxSCFIterations                10000                2                10000                10000		10000
DM.MixingWeight			0.1
DM.NumberPulay			4	# Pulay convergency accelerator
DM.MixSCF1			    T
MixHamiltonian      T
DM.PulayOnFile			F		# Store in memory ('F') or in files ('T')
#DM.NumberKick         30
#DM.KickMixingWeight   0.1
DM.Tolerance 		1.0E-4
NeglNonOverlapInt		F		# 'F'=do not neglect
SolutionMethod			diagon
ElectronicTemperature		300 K		# Default value
DM.UseSaveDM 			T
#MD.UseSaveXV			T
#MD.UseSaveCG			T
WriteForces      T
WriteCoorXmol			T		# Write Atoms coordinates
SaveElectrostaticPotential      T
#SaveHS				T		# Save the Hamiltonian and Overlap matrices
SaveRho				T		# Save the valence pseudocharge density
#SaveDeltaRho			T
#WriteDenchar			T		# Write Denchar output
WriteMullikenPop		0 #write mulliken population of aromic and orbital charges
#-----
#smeagol
#-----
# Perform a transport calculation
EMTransport              T
# Set number of energy points for integrals
NEnergReal               64
# Set bias range
VInitial             0.0 eV
VFinal               0.0 eV
NIVPoints                0
# General variables
Delta                    1e-4
EnergLowestBound    -100.0 eV
# Print transmission coefficient
TrCoefficients           T
InitTransmRange      -10.0 eV
FinalTransmRange      10.0 eV
NTransmPoints            800
TRC.EMDOS                T
TRC.LeadsDOS             T
# Matching of Hartree potential with the leads
HartreeLeadsBottom  -1.83726919 eV
%block SaveBiasSteps
 0
%endblock SaveBiasSteps
EM.CalculateForces           T
************************** End of input data file *****************************

reinit: -----------------------------------------------------------------------
reinit: System Name: au-chain_szv_zerobias
reinit: -----------------------------------------------------------------------
reinit: System Label: au-chain_szv_zerobias                                       
reinit: -----------------------------------------------------------------------

initatom: Reading input for the pseudopotentials and atomic orbitals ----------
 Species number:            1  Label: Au Atomic number:          79
Ground state valence configuration:   6s01  5d10
Reading pseudopotential information in formatted form from Au.psf

Pseudopotential generated from a relativistic atomic calculation
There are spin-orbit pseudopotentials available
Spin-orbit interaction is not included in this calculation

Valence configuration for pseudopotential generation:
6s( 1.00) rc: 2.18
6p( 0.00) rc: 2.47
5d(10.00) rc: 1.79
5f( 0.00) rc: 2.00
relmxkb: Read Max KB Ang. Momentum=    3 for species Au
 Warning: Empty PAO shell. l =           1
 Will have a KB projector anyway...

<basis_specs>
===============================================================================
Au                   Z=  79    Mass=  196.97        Charge= 0.17977+309
Lmxo=2 Lmxkb= 3    BasisType=split      Semic=F
L=0  Nsemic=0  Cnfigmx=6
          n=1  nzeta=1  polorb=0
            splnorm:   0.15000    
               vcte:    0.0000    
               rinn:    0.0000    
                rcs:    6.5000    
            lambdas:    1.0000    
L=1  Nsemic=0  Cnfigmx=6
L=2  Nsemic=0  Cnfigmx=5
          n=1  nzeta=1  polorb=0
            splnorm:   0.15000    
               vcte:    0.0000    
               rinn:    0.0000    
                rcs:    5.8500    
            lambdas:    1.0000    
-------------------------------------------------------------------------------
L=0  Nkbl=1  erefs: 0.17977+309
L=1  Nkbl=1  erefs: 0.17977+309
L=2  Nkbl=1  erefs: 0.17977+309
L=3  Nkbl=1  erefs: 0.17977+309
===============================================================================
</basis_specs>

atom: Called for Au                    (Z =  79)

read_vps: Pseudopotential generation method:
read_vps: ATM3      Troullier-Martins                       
Total valence charge:   11.00000

read_vps: Pseudopotential includes a core correction:
read_vps: Pseudo-core for xc-correction

xc_check: Exchange-correlation functional:
xc_check: Ceperley-Alder
V l=0 = -2*Zval/r beyond r=  2.9833
V l=1 = -2*Zval/r beyond r=  2.9833
V l=2 = -2*Zval/r beyond r=  2.9833
V l=3 = -2*Zval/r beyond r=  2.9833
All V_l potentials equal beyond r=  2.4425
This should be close to max(r_c) in ps generation
All pots = -2*Zval/r beyond r=  2.9833

VLOCAL1: 99.0% of the norm of Vloc inside      7.276 Ry
VLOCAL1: 99.9% of the norm of Vloc inside     16.582 Ry
atom: Maximum radius for 4*pi*r*r*local-pseudopot. charge    2.94627
atom: Maximum radius for r*vlocal+2*Zval:    2.60007
GHOST: No ghost state for L =  0
GHOST: No ghost state for L =  1
GHOST: No ghost state for L =  2
GHOST: No ghost state for L =  3

KBgen: Kleinman-Bylander projectors: 
   l= 0   rc=  3.175745   el= -0.445638   Ekb=  5.072790   kbcos=  0.276607
   l= 1   rc=  3.256140   el= -0.066324   Ekb=  2.703235   kbcos=  0.227171
   l= 2   rc=  3.020861   el= -0.526103   Ekb= -4.704026   kbcos= -0.643795
   l= 3   rc=  3.466145   el=  0.003438   Ekb= -2.516122   kbcos= -0.010529

KBgen: Total number of  Kleinman-Bylander projectors:   16
atom: -------------------------------------------------------------------------

atom: SANKEY-TYPE ORBITALS:

SPLIT: Orbitals with angular momentum L= 0

SPLIT: Basis orbitals for state 6s

   izeta = 1
                 lambda =    1.000000
                     rc =    6.557093
                 energy =   -0.435455
                kinetic =    0.389259
    potential(screened) =   -0.824714
       potential(ionic) =   -8.467175

SPLIT: Orbitals with angular momentum L= 2

SPLIT: Basis orbitals for state 5d

   izeta = 1
                 lambda =    1.000000
                     rc =    5.933100
                 energy =   -0.524775
                kinetic =    4.913203
    potential(screened) =   -5.437978
       potential(ionic) =  -15.883506
atom: Total number of Sankey-type orbitals:  6

atm_pop: Valence configuration (for local Pseudopot. screening):
 6s( 1.00)                                                            
 6p( 0.00)                                                            
 5d(10.00)                                                            
Vna: chval, zval:   11.00000  11.00000

Vna:  Cut-off radius for the neutral-atom potential:   6.557093
comcore: Pseudo-core radius Rcore=  4.027091

atom: _________________________________________________________________________

prinput: Basis input ----------------------------------------------------------

PAO.BasisType split     

%block ChemicalSpeciesLabel
    1   79 Au                      # Species index, atomic number, species label
%endblock ChemicalSpeciesLabel

%block PAO.Basis                 # Define Basis set
Au                    2                    # Species label, number of l-shells
 n=6   0   1                         # n, l, Nzeta 
   6.557   
   1.000   
 n=5   2   1                         # n, l, Nzeta 
   5.933   
   1.000   
%endblock PAO.Basis

prinput: ----------------------------------------------------------------------

coor:   Atomic-coordinates input format  =     Cartesian coordinates
coor:                                          (in Angstroms)

siesta: Atomic coordinates (Bohr) and species
siesta:      0.00000   0.00000   0.00000  1        1
siesta:      0.00000   0.00000   5.29124  1        2
siesta:      0.00000   0.00000  10.58247  1        3
siesta:      0.00000   0.00000  15.87371  1        4
siesta:      0.00000   0.00000  21.16494  1        5
siesta:      0.00000   0.00000  26.45618  1        6
siesta:      0.00000   0.00000  31.74741  1        7
siesta:      0.00000   0.00000  37.03865  1        8
siesta:      0.00000   0.00000  42.32988  1        9

siesta: System type = chain     

initatomlists: Number of atoms, orbitals, and projectors:      9    54   144

SMEAGOL: ******************* SMEAGOL Simulation parameters ********************
SMEAGOL:
SMEAGOL:       The following are some of the SMEAGOL parameters of the
SMEAGOL:       simulation. A complete list of the parameters used,
SMEAGOL:       including default values, can be found in file fdf.log.
SMEAGOL:
redata: Transport in extended molecule                =      T
redata: # of points in real energy axis integral      =     64
redata: # of contour points in semi-circle            =     34
redata: # of contour points in line region            =     20
redata: # of poles in the Fermi function              =      5
redata: Initial value of the bias potential           =      0.0000 Ry
redata: Final value of the bias potential             =      0.0000 Ry
redata: # of bias potential points                    =      0
redata: Small imaginary part                          =      0.00010
redata: Lower bound for the contour integral          =     -7.3498 Ry
redata: 1 = Leads with different spin                 =      0
redata: Atom of the lead where bias slope starts      =      1
redata: Atom of the lead where bias slope ends        =      9
redata: # of bulk slices to include in EM             =      1
redata: Calculate transmission coefficients           =      T
redata: Set bulk transversal cell                     =      F
redata: Bulk transversal cell size                    =      3
redata: Write leads H and S matrices at .HSL          =      F
redata: Init transport                                =      F
redata: Force super cell in z direction = 3           =      F
redata: Calculated electronic structure for           =     LR
redata: Write converged DM (at bias/MD selected step) =      F
redata: Hartree Leads Left                            =      0.0000 Bohr
redata: Hartree Leads Right                           =      0.0000 Bohr
redata: Hartree Leads Bottom                          =     -0.1350 Ry
redata: Periodic leads in perpendicular directions    =      F
redata: Thresholds at generalized SVD                 =      0.000000001000
redata: Write .orb, .ef and .gHS files                =      F
redata: Write .onlyS files                            =      F
redata: Electron-phonon interaction                   =      F
redata: Invert only central region    =      F
redata: Calculate Forces    =      F
redata: ***********************************************************************

siesta: ******************** SIESTA Simulation parameters *********************
siesta:
siesta:       The following are some of the SIESTA parameters of the
siesta:       simulation. A complete list of the parameters used,
siesta:       including default values, can be found in file fdf.log.
siesta:
redata: Non-Collinear-spin run             =       F
redata: SpinPolarized (Up/Down) run        =       F
redata: Number of spin components          =       1
redata: Long output                        =       F
redata: Number of Atomic Species           =       1
redata: Charge density info will appear in .RHO file
redata: Write Mulliken Pop.                =      NO
redata: Mesh Cutoff                        =     200.0000  Ry
redata: Net charge of the system           =       0.0000 |e|
redata: Max. number of SCF Iter            =   10000
redata: Performing Pulay mixing using      =       4 iterations
redata: Mix DM in first SCF step ?         =       T
redata: Write Pulay info on disk?          =       F
redata: Discard 1st Pulay DM after kick    =       F
redata: New DM Mixing Weight               =       0.1000
redata: New DM Occupancy tolerance         =       0.000000000001
redata: No kicks to SCF
redata: DM Mixing Weight for Kicks         =       0.5000
redata: DM Tolerance for SCF               =       0.000100
redata: Require Energy convergence for SCF =       F
redata: DM Energy tolerance for SCF        =       0.000100 eV
redata: Require Harris convergence for SCF =       F
redata: DM Harris energy tolerance for SCF =       0.000100 eV
redata: Using Saved Data (generic)         =       F
redata: Use continuation files for DM      =       T
redata: Neglect nonoverlap interactions    =       F
redata: Method of Calculation              =     Diagonalization
redata: Divide and Conquer                 =       T
redata: Electronic Temperature             =       0.0019  Ry
redata: Fix the spin of the system         =       F
redata: Dynamics option                    =     Verlet MD run
redata: Initial MD time step               =       1
redata: Final MD time step                 =       1
redata: Length of MD time step             =       1.0000  fs
redata: Initial Temperature of MD run      =       0.0000  K
redata: Perform a MD quench                =       F
redata: ***********************************************************************

Total number of electrons:    99.000000
Total ionic charge:    99.000000

* ProcessorY, Blocksize:    1  24

k-point displ. along   1 input, could be:     0.00    0.50
k-point displ. along   2 input, could be:     0.00    0.50
 Kpoints in:            4 . Kpoints trimmed:            4

siesta: k-grid: Number of k-points =     4
siesta: k-grid: Cutoff (effective) =     8.400 Ang
siesta: k-grid: Supercell and displacements
siesta: k-grid:    2   0   0      0.000
siesta: k-grid:    0   2   0      0.000
siesta: k-grid:    0   0   1      0.000
siesta: overlap:  rmaxh   veclen  direction
siesta: overlap:  20.0465 15.8737   1
siesta: overlap:  rmaxh   veclen  direction
siesta: overlap:  20.0465 15.8737   2
siesta: overlap:  rmaxh   veclen  direction
siesta: overlap:  20.0465 47.6211   3
Naive supercell factors:     3    3    1

superc: Internal auxiliary supercell:     3 x     3 x     1  =       9
superc: Number of atoms, orbitals, and projectors:     81    486   1296

* Maximum dynamic memory allocated =     1 MB

siesta:                 ===============================
SMEAGOL                 Bias step =    0, V =  0.000 Ry
                            Begin MD step =      1
                        ===============================

superc: Internal auxiliary supercell:     3 x     3 x     1  =       9
superc: Number of atoms, orbitals, and projectors:     81    486   1296

outcell: Unit cell vectors (Ang):
        8.400000    0.000000    0.000000
        0.000000    8.400000    0.000000
        0.000000    0.000000   25.200000

outcell: Cell vector modules (Ang)   :    8.400000    8.400000   25.200000
outcell: Cell angles (23,13,12) (deg):     90.0000     90.0000     90.0000
outcell: Cell volume (Ang**3)        :   1778.1120
New_DM. Step:     1
Initializing Density Matrix...

InitMesh: MESH =    72 x    72 x   216 =     1119744
InitMesh: Mesh cutoff (required, used) =   200.000   203.052 Ry
SMEAGOL: average =  -0.13694, shift =  -0.13504, count =   5184
SMEAGOL: minL =   0.00000, maxR =   0.00000

* Maximum dynamic memory allocated =    57 MB

SMEAGOL: Integral method for real-axis = Traditional 

SMEAGOL: Integral method for real-axis = Traditional 

SMEAGOL: Integral method for real-axis = Traditional 

SMEAGOL: Integral method for real-axis = Traditional 

siesta: Program's energy decomposition (eV):
siesta: Ebs     =      -604.951007
siesta: Eions   =     10845.004161
siesta: Ena     =       617.117153
siesta: Ekin    =      6064.079438
siesta: Enl     =     -2346.615780
siesta: DEna    =         0.000000
siesta: DUscf   =         0.000000
siesta: DUext   =         0.000000
siesta: Exc     =     -3730.483884
siesta: eta*DQ  =         0.000000
siesta: Emadel  =         0.000000
siesta: Emeta   =         0.000000
siesta: Emolmec =         0.000000
siesta: Ekinion =         0.000000
siesta: Eharris =    -10204.461258
siesta: Etot    =    -10240.907234
siesta: FreeEng =    -10240.907234

siesta: iscf   Eharris(eV)      E_KS(eV)   FreeEng(eV)   dDmax  Ef(eV)
siesta:    1   -10204.4613   -10240.9072   -10240.9072  0.9009  0.0000
timer: Routine,Calls,Time,% = IterSCF        1       1.796  87.30
elaps: Routine,Calls,Wall,% = IterSCF        1       0.921  85.60
SMEAGOL: average =   1.11662, shift =  -0.13504, count =   5184
SMEAGOL: minL =   0.00000, maxR =   0.00000
siesta:    2   -10145.7148   -10035.8766   -10035.8766  5.1976  0.0000
SMEAGOL: average =  -0.54257, shift =  -0.13504, count =   5184
SMEAGOL: minL =   0.00000, maxR =   0.00000
siesta:    3   -10242.9390   -10244.3474   -10244.3474  1.8905  0.0000
SMEAGOL: average =  -0.49129, shift =  -0.13504, count =   5184
SMEAGOL: minL =   0.00000, maxR =   0.00000
siesta:    4   -10149.3504   -10247.0365   -10247.0365  1.5610  0.0000
SMEAGOL: average =   5.43317, shift =  -0.13504, count =   5184
SMEAGOL: minL =   0.00000, maxR =   0.00000
siesta:    5    -6908.8715    -6908.6459    -6908.6459 22.2839  0.0000
SMEAGOL: average =   5.42859, shift =  -0.13504, count =   5184
SMEAGOL: minL =   0.00000, maxR =   0.00000
siesta:    6    -6913.0472    -6913.3466    -6913.3466 22.2626  0.0000
SMEAGOL: average =   5.43476, shift =  -0.13504, count =   5184
SMEAGOL: minL =   0.00000, maxR =   0.00000
siesta:    7    -7307.8317    -6906.9608    -6906.9608 22.2925  0.0000
SMEAGOL: average =  -0.48415, shift =  -0.13504, count =   5184
SMEAGOL: minL =   0.00000, maxR =   0.00000
siesta:    8   -10246.6813   -10246.7669   -10246.7669  1.6146  0.0000
SMEAGOL: average =  -0.48098, shift =  -0.13504, count =   5184
SMEAGOL: minL =   0.00000, maxR =   0.00000
siesta:    9   -10246.2497   -10246.9293   -10246.9293  1.5903  0.0000
SMEAGOL: average =  -0.46044, shift =  -0.13504, count =   5184
SMEAGOL: minL =   0.00000, maxR =   0.00000
siesta:   10   -10245.2041   -10247.6266   -10247.6266  1.4820  0.0000
SMEAGOL: average =  -0.39011, shift =  -0.13504, count =   5184
SMEAGOL: minL =   0.00000, maxR =   0.00000
siesta:   11   -10219.3571   -10249.0433   -10249.0433  1.1391  0.0000
SMEAGOL: average =   0.54229, shift =  -0.13504, count =   5184
SMEAGOL: minL =   0.00000, maxR =   0.00000
siesta:   12   -10061.9515   -10164.5143   -10164.5143  3.5721  0.0000
SMEAGOL: average =   3.81192, shift =  -0.13504, count =   5184
SMEAGOL: minL =   0.00000, maxR =   0.00000
siesta:   13    -8722.9355    -8491.1344    -8491.1344 17.1345  0.0000
SMEAGOL: average =  -0.36636, shift =  -0.13504, count =   5184
SMEAGOL: minL =   0.00000, maxR =   0.00000
siesta:   14   -10250.1668   -10249.2384   -10249.2384  1.0244  0.0000
SMEAGOL: average =  -0.39030, shift =  -0.13504, count =   5184
SMEAGOL: minL =   0.00000, maxR =   0.00000
siesta:   15   -10249.1533   -10249.0376   -10249.0376  1.1382  0.0000
SMEAGOL: average =  -0.39324, shift =  -0.13504, count =   5184
SMEAGOL: minL =   0.00000, maxR =   0.00000
siesta:   16   -10245.3291   -10249.0012   -10249.0012  1.1504  0.0000
SMEAGOL: average =  -0.28942, shift =  -0.13504, count =   5184
SMEAGOL: minL =   0.00000, maxR =   0.00000
siesta:   17   -10236.8777   -10249.0494   -10249.0494  0.6963  0.0000
SMEAGOL: average =   0.08959, shift =  -0.13504, count =   5184
SMEAGOL: minL =   0.00000, maxR =   0.00000
siesta:   18   -10238.9145   -10232.9031   -10232.9031  1.0496  0.0000
SMEAGOL: average =  -0.08880, shift =  -0.13504, count =   5184
SMEAGOL: minL =   0.00000, maxR =   0.00000
siesta:   19   -10246.8105   -10243.7615   -10243.7615  0.1578  0.0000
SMEAGOL: average =  -0.16920, shift =  -0.13504, count =   5184
SMEAGOL: minL =   0.00000, maxR =   0.00000
siesta:   20   -10238.6901   -10246.7841   -10246.7841  0.1524  0.0000
SMEAGOL: average =   0.07863, shift =  -0.13504, count =   5184
SMEAGOL: minL =   0.00000, maxR =   0.00000
siesta:   21   -10240.6614   -10233.4924   -10233.4924  1.0470  0.0000
SMEAGOL: average =  -0.13106, shift =  -0.13504, count =   5184
SMEAGOL: minL =   0.00000, maxR =   0.00000
siesta:   22   -10245.3128   -10245.5173   -10245.5173  0.0217  0.0000
SMEAGOL: average =  -0.12536, shift =  -0.13504, count =   5184
SMEAGOL: minL =   0.00000, maxR =   0.00000
siesta:   23   -10246.1505   -10245.3073   -10245.3073  0.0405  0.0000
SMEAGOL: average =  -0.14903, shift =  -0.13504, count =   5184
SMEAGOL: minL =   0.00000, maxR =   0.00000
siesta:   24   -10245.6315   -10246.1361   -10246.1361  0.0567  0.0000
SMEAGOL: average =  -0.13488, shift =  -0.13504, count =   5184
SMEAGOL: minL =   0.00000, maxR =   0.00000
siesta:   25   -10245.4874   -10245.6476   -10245.6476  0.0037  0.0000
SMEAGOL: average =  -0.13060, shift =  -0.13504, count =   5184
SMEAGOL: minL =   0.00000, maxR =   0.00000
siesta:   26   -10245.7151   -10245.4859   -10245.4859  0.0168  0.0000
SMEAGOL: average =  -0.13719, shift =  -0.13504, count =   5184
SMEAGOL: minL =   0.00000, maxR =   0.00000
siesta:   27   -10245.0314   -10245.7158   -10245.7158  0.0117  0.0000
SMEAGOL: average =  -0.11776, shift =  -0.13504, count =   5184
SMEAGOL: minL =   0.00000, maxR =   0.00000
siesta:   28   -10245.6834   -10245.0015   -10245.0015  0.0701  0.0000
SMEAGOL: average =  -0.13704, shift =  -0.13504, count =   5184
SMEAGOL: minL =   0.00000, maxR =   0.00000
siesta:   29   -10245.6249   -10245.7084   -10245.7084  0.0093  0.0000
SMEAGOL: average =  -0.13466, shift =  -0.13504, count =   5184
SMEAGOL: minL =   0.00000, maxR =   0.00000
siesta:   30   -10245.6261   -10245.6253   -10245.6253  0.0011  0.0000
SMEAGOL: average =  -0.13468, shift =  -0.13504, count =   5184
SMEAGOL: minL =   0.00000, maxR =   0.00000
siesta:   31   -10245.6414   -10245.6261   -10245.6261  0.0012  0.0000
SMEAGOL: average =  -0.13512, shift =  -0.13504, count =   5184
SMEAGOL: minL =   0.00000, maxR =   0.00000
siesta:   32   -10245.6344   -10245.6414   -10245.6414  0.0008  0.0000
SMEAGOL: average =  -0.13493, shift =  -0.13504, count =   5184
SMEAGOL: minL =   0.00000, maxR =   0.00000
siesta:   33   -10245.6349   -10245.6344   -10245.6344  0.0001  0.0000
SMEAGOL: average =  -0.13494, shift =  -0.13504, count =   5184
SMEAGOL: minL =   0.00000, maxR =   0.00000
siesta:   34   -10245.6347   -10245.6349   -10245.6349  0.0001  0.0000
SMEAGOL: average =  -0.13494, shift =  -0.13504, count =   5184
SMEAGOL: minL =   0.00000, maxR =   0.00000
siesta:   35   -10245.6342   -10245.6347   -10245.6347  0.0001  0.0000
SMEAGOL: average =  -0.13493, shift =  -0.13504, count =   5184
SMEAGOL: minL =   0.00000, maxR =   0.00000
siesta:   36   -10245.6343   -10245.6342   -10245.6342  0.0001  0.0000
SMEAGOL: average =  -0.13493, shift =  -0.13504, count =   5184
SMEAGOL: minL =   0.00000, maxR =   0.00000

SMEAGOL: InitTransmRange =  -0.73497988D+00, FinalTransmRange =   0.73497988D+00
SMEAGOL: trcde =  0.00000D+00, NeneT =   800
SMEAGOL: Ef =  -0.45071564D+00, temp =   0.19000693D-02
SMEAGOL: deltaimagtrc =   0.00000000D+00
 no. of left channels .ne. number of right channels
           4           9           4           7
 Norm :   5.70334965488275       Cond num :   1.145322268371316E-014
 warnin0_L -0.500079946376281                1
 no. of left channels .ne. number of right channels
           4           9           4           7
 Norm :   5.70334965488275       Cond num :   1.145322268371316E-014
 warnin0_R -0.500079946376281                1
 no. of left channels .ne. number of right channels
           4           9           4           7
 Norm :   5.70334965488275       Cond num :   1.145322268371316E-014
 warnin0_L -0.500079946376281                1
 no. of left channels .ne. number of right channels
           4           9           4           7
 Norm :   5.70334965488275       Cond num :   1.145322268371316E-014
 warnin0_R -0.500079946376281                1
 no. of left channels .ne. number of right channels
           4           9           4           7
 Norm :   5.70334965488275       Cond num :   1.145322268371316E-014
 warnin0_L -0.500079946376281                1
 no. of left channels .ne. number of right channels
           4           9           4           7
 Norm :   5.70334965488275       Cond num :   1.145322268371316E-014
 warnin0_R -0.500079946376281                1
 no. of left channels .ne. number of right channels
           4           9           4           7
 Norm :   5.70334965488275       Cond num :   1.145322268371316E-014
 warnin0_L -0.500079946376281                1
 no. of left channels .ne. number of right channels
           4           9           4           7
 Norm :   5.70334965488275       Cond num :   1.145322268371316E-014
 warnin0_R -0.500079946376281                1

siesta: E_KS(eV) =           -10245.6343

siesta: E_KS - E_eggbox =    -10245.6343

siesta: Atomic forces (eV/Ang):
     1    0.000000   -0.000000    0.000047
     2   -0.000000   -0.000000    0.000472
     3   -0.000000    0.000000   -0.000356
     4   -0.000000    0.000000   -0.001328
     5   -0.000000   -0.000000   -0.000001
     6    0.000000   -0.000000    0.001319
     7    0.000000   -0.000000    0.000344
     8   -0.000000    0.000000   -0.000475
     9    0.000000   -0.000000   -0.000045
----------------------------------------
   Tot   -0.000000   -0.000000   -0.000022
----------------------------------------
   Max    0.001328
   Res    0.000395    sqrt( Sum f_i^2 / 3N )
----------------------------------------
   Max    0.001328    constrained

Stress-tensor-Voigt (kbar):        2.40        2.40       70.78        0.00        0.00        0.00
(Free)E + p*V (eV/cell)   -10273.5919
Target enthalpy (eV/cell)   -10245.6343

siesta: Stress tensor (static) (eV/Ang**3):
         0.001496    0.000000    0.000000
         0.000000    0.001496    0.000000
         0.000000    0.000000    0.044177

siesta: Pressure (static):        -25.19163725  kBar

siesta: Stress tensor (total) (eV/Ang**3):
         0.001496    0.000000    0.000000
         0.000000    0.001496    0.000000
         0.000000    0.000000    0.044177

siesta: Pressure (total):        -25.19163725  kBar

siesta: Temp_ion =       0.000 K

* Maximum dynamic memory allocated =    57 MB

coxmol: Writing XMOL coordinates into file au-chain_szv_zerobias.xyz                                       

siesta: Program's energy decomposition (eV):
siesta: Ebs     =      -708.498635
siesta: Eions   =     10845.004161
siesta: Ena     =       617.117153
siesta: Ekin    =      6005.848375
siesta: Enl     =     -2320.201186
siesta: DEna    =        16.463420
siesta: DUscf   =         0.668684
siesta: DUext   =         0.000000
siesta: Exc     =     -3720.526570
siesta: eta*DQ  =         0.000000
siesta: Emadel  =         0.000000
siesta: Emeta   =         0.000000
siesta: Emolmec =         0.000000
siesta: Ekinion =         0.000000
siesta: Eharris =    -10245.634286
siesta: Etot    =    -10245.634285
siesta: FreeEng =    -10245.634285

siesta: Final energy (eV):
siesta:  Band Struct. =    -708.498635
siesta:       Kinetic =    6005.848375
siesta:       Hartree =    6172.371967
siesta:    Ext. field =       0.000000
siesta:   Exch.-corr. =   -3720.526570
siesta:  Ion-electron =  -17033.927631
siesta:       Ion-ion =   -1669.400425
siesta:       Ekinion =       0.000000
siesta:         Total =  -10245.634285

siesta: Stress tensor (static) (eV/Ang**3):
siesta:     0.001496    0.000000    0.000000
siesta:     0.000000    0.001496    0.000000
siesta:     0.000000    0.000000    0.044177

siesta: Cell volume =       1778.112000 Ang**3

siesta: Pressure (static):
siesta:                Solid            Molecule  Units
siesta:          -0.00017125         -0.00017125  Ry/Bohr**3
siesta:          -0.01572321         -0.01572365  eV/Ang**3
siesta:         -25.19163725        -25.19234323  kBar
(Free)E+ p_basis*V_orbitals  =      -10242.211843
(Free)Eharris+ p_basis*V_orbitals  =      -10242.211888

siesta: Electric dipole (a.u.)  =    0.000000    0.000000   -0.000000
siesta: Electric dipole (Debye) =    0.000000    0.000000   -0.000000
SMEAGOL: average =  -0.13493, shift =  -0.13504, count =   5184
SMEAGOL: minL =   0.00000, maxR =   0.00000

* Maximum dynamic memory allocated : Node    0 =    57 MB
* Maximum dynamic memory allocated : Node    1 =    57 MB

* Maximum memory occured during redistribXZ                   

timer: CPU execution times:
timer:  Routine       Calls   Time/call    Tot.time        %
timer:  siesta            1      20.273      20.273   100.00
timer:  Setup             1       0.180       0.180     0.89
timer:  bands             1       0.000       0.000     0.00
timer:  writewave         1       0.001       0.001     0.01
timer:  KSV_init          1       0.000       0.000     0.00
timer:  IterMD            1      19.617      19.617    96.77
timer:  hsparse           1       0.001       0.001     0.00
timer:  overlap           1       0.065       0.065     0.32
timer:  IterSCF          36       0.415      14.954    73.76
timer:  kinefsm           2       0.029       0.059     0.29
timer:  nlefsm            2       0.127       0.254     1.25
timer:  DHSCF            38       0.380      14.454    71.30
timer:  DHSCF1            1       0.101       0.101     0.50
timer:  DHSCF2            1       0.635       0.635     3.13
timer:  REORD           386       0.001       0.366     1.81
timer:  POISON           39       0.156       6.092    30.05
timer:  DHSCF3           38       0.349      13.257    65.39
timer:  rhoofd           38       0.050       1.908     9.41
timer:  cellXC           38       0.070       2.679    13.21
timer:  vmat             37       0.039       1.459     7.20
timer:  MolMec            2       0.000       0.000     0.00
timer:  emtrans          37       0.133       4.904    24.19
timer:  NEGFK           148       0.033       4.861    23.98
timer:  RE_SENE         152       0.000       0.001     0.00
timer:  IM_SENE           4       0.073       0.293     1.44
timer:  DHSCF4            1       0.382       0.382     1.88
timer:  dfscf             1       0.295       0.295     1.45
timer:  overfsm           1       0.001       0.001     0.00
timer:  TRANSM            4       0.953       3.812    18.80
timer:  senetrc           4       0.951       3.803    18.76
timer:  CURRENT           4       0.001       0.005     0.03
timer:  optical           1       0.032       0.032     0.16
  

elaps: ELAPSED times:
elaps:  Routine       Calls   Time/call    Tot.time        %
elaps:  siesta            1      10.281      10.281   100.00
elaps:  Setup             1       0.109       0.109     1.06
elaps:  bands             1       0.000       0.000     0.00
elaps:  writewave         1       0.001       0.001     0.01
elaps:  KSV_init          1       0.000       0.000     0.00
elaps:  IterMD            1       9.914       9.914    96.42
elaps:  hsparse           1       0.000       0.000     0.00
elaps:  overlap           1       0.034       0.034     0.33
elaps:  IterSCF          36       0.210       7.557    73.50
elaps:  kinefsm           2       0.015       0.031     0.30
elaps:  nlefsm            2       0.066       0.132     1.29
elaps:  DHSCF            38       0.191       7.249    70.51
elaps:  DHSCF1            1       0.052       0.052     0.51
elaps:  DHSCF2            1       0.316       0.316     3.08
elaps:  REORD           386       0.000       0.185     1.80
elaps:  POISON           39       0.078       3.055    29.71
elaps:  DHSCF3           38       0.175       6.665    64.83
elaps:  rhoofd           38       0.026       0.991     9.64
elaps:  cellXC           38       0.035       1.339    13.03
elaps:  vmat             37       0.020       0.731     7.11
elaps:  MolMec            2       0.000       0.000     0.00
elaps:  emtrans          37       0.067       2.478    24.10
elaps:  NEGFK           148       0.017       2.460    23.92
elaps:  RE_SENE         152       0.000       0.000     0.00
elaps:  IM_SENE           4       0.038       0.153     1.49
elaps:  DHSCF4            1       0.191       0.191     1.85
elaps:  dfscf             1       0.147       0.147     1.43
elaps:  overfsm           1       0.000       0.000     0.00
elaps:  TRANSM            4       0.482       1.929    18.76
elaps:  senetrc           4       0.480       1.920    18.67
elaps:  CURRENT           4       0.001       0.002     0.02
elaps:  optical           1       0.000       0.000     0.00
  
>> End of run:  30-OCT-2023  17:39:06
