Siesta Version: ismeagol.1.0
Architecture  : thomas-intel2017update1-intelmpi-mkl
Compiler flags: mpif90 -O2 -fPIC -g -ftree-vectorize -xHost
PARALLEL version

* Running on    2 nodes in parallel
>> Start of run:  30-OCT-2023  17:39:07

                           ***********************       
                           *  WELCOME TO SIESTA  *       
                           ***********************       

reinit: Reading from standard input
************************** Dump of input data file ****************************
SystemName                   au-chain_szv_shiftx_zerobias          # Descriptive name of the system
SystemLabel                     au-chain_szv_shiftx_zerobias               # Short name for naming files
NumberOfAtoms    9
NumberOfSpecies                 1               # Number of species
PAO.BasisType                   split
%block ChemicalSpeciesLabel
1 79 Au
%endblock ChemicalSpeciesLabel
%block PAO.Basis
  Au  2
n=6  0  1
6.500
1.00
n=5  2  1
5.850
1.00
%endblock PAO.Basis
%block PS.lmax
 Au   3
%endblock PS.lmax
LatticeConstant 1.000 Ang
%block LatticeVectors
  8.4    0.000   0.000    1
  0.000   8.4     0.000   1
  0.000   0.000     25.2 1
%endblock LatticeVectors
AtomicCoordinatesFormat Ang
%block AtomicCoordinatesAndAtomicSpecies
0.0 0.0 0.0 1 Au
0.0 0.0 2.8 1 Au
0.0 0.0 5.6 1 Au
0.0 0.0 8.4 1 Au
1.0 0.0 11.2 1 Au
0.0 0.0 14.0 1 Au
0.0 0.0 16.8 1 Au
0.0 0.0 19.6 1 Au
0.0 0.0 22.4 1 Au
%endblock AtomicCoordinatesAndAtomicSpecies
%block GeometryConstraints
   position   from  1 to 3
   position   from  7 to 9
%endblock GeometryConstraints
%block kgrid_Monkhorst_Pack
  2   0   0     0.0
  0   2   0     0.0
  0   0   1     0.0
%endblock kgrid_Monkhorst_Pack
xc.functional		LDA		# 'LDA', 'GGA'
xc.authors 	 		CA		# 'CA'='PZ', 'PW92', 'PBE'
SpinPolarized			F		# 'T', 'F'		
#FixSpin           F
#TotalSpin        0.0
NonCollinearSpin		F		# 'T', 'F'
MeshCutoff 	 		    200 Ry		# Equivalent plane wave cutoff for the grid
MaxSCFIterations                10000                2                10000                10000		10000
DM.MixingWeight			0.1
DM.NumberPulay			4	# Pulay convergency accelerator
DM.MixSCF1			    T
MixHamiltonian      T
DM.PulayOnFile			F		# Store in memory ('F') or in files ('T')
#DM.NumberKick         30
#DM.KickMixingWeight   0.1
DM.Tolerance 		1.0E-4
NeglNonOverlapInt		F		# 'F'=do not neglect
SolutionMethod			diagon
ElectronicTemperature		300 K		# Default value
DM.UseSaveDM 			T
#MD.UseSaveXV			T
#MD.UseSaveCG			T
WriteForces      T
WriteCoorXmol			T		# Write Atoms coordinates
SaveElectrostaticPotential      T
#SaveHS				T		# Save the Hamiltonian and Overlap matrices
SaveRho				T		# Save the valence pseudocharge density
#SaveDeltaRho			T
#WriteDenchar			T		# Write Denchar output
WriteMullikenPop		0 #write mulliken population of aromic and orbital charges
#-----
#smeagol
#-----
# Perform a transport calculation
EMTransport              T
# Set number of energy points for integrals
NEnergReal               64
# Set bias range
VInitial             0.0 eV
VFinal               0.0 eV
NIVPoints                0
# General variables
Delta                    1e-4
EnergLowestBound    -100.0 eV
# Print transmission coefficient
TrCoefficients           T
InitTransmRange      -10.0 eV
FinalTransmRange      10.0 eV
NTransmPoints            800
TRC.EMDOS                T
TRC.LeadsDOS             T
# Matching of Hartree potential with the leads
HartreeLeadsBottom  -1.83726919 eV
%block SaveBiasSteps
 0
%endblock SaveBiasSteps
EM.CalculateForces           T
************************** End of input data file *****************************

reinit: -----------------------------------------------------------------------
reinit: System Name: au-chain_szv_shiftx_zerobias
reinit: -----------------------------------------------------------------------
reinit: System Label: au-chain_szv_shiftx_zerobias                                
reinit: -----------------------------------------------------------------------

initatom: Reading input for the pseudopotentials and atomic orbitals ----------
 Species number:            1  Label: Au Atomic number:          79
Ground state valence configuration:   6s01  5d10
Reading pseudopotential information in formatted form from Au.psf

Pseudopotential generated from a relativistic atomic calculation
There are spin-orbit pseudopotentials available
Spin-orbit interaction is not included in this calculation

Valence configuration for pseudopotential generation:
6s( 1.00) rc: 2.18
6p( 0.00) rc: 2.47
5d(10.00) rc: 1.79
5f( 0.00) rc: 2.00
relmxkb: Read Max KB Ang. Momentum=    3 for species Au
 Warning: Empty PAO shell. l =           1
 Will have a KB projector anyway...

<basis_specs>
===============================================================================
Au                   Z=  79    Mass=  196.97        Charge= 0.17977+309
Lmxo=2 Lmxkb= 3    BasisType=split      Semic=F
L=0  Nsemic=0  Cnfigmx=6
          n=1  nzeta=1  polorb=0
            splnorm:   0.15000    
               vcte:    0.0000    
               rinn:    0.0000    
                rcs:    6.5000    
            lambdas:    1.0000    
L=1  Nsemic=0  Cnfigmx=6
L=2  Nsemic=0  Cnfigmx=5
          n=1  nzeta=1  polorb=0
            splnorm:   0.15000    
               vcte:    0.0000    
               rinn:    0.0000    
                rcs:    5.8500    
            lambdas:    1.0000    
-------------------------------------------------------------------------------
L=0  Nkbl=1  erefs: 0.17977+309
L=1  Nkbl=1  erefs: 0.17977+309
L=2  Nkbl=1  erefs: 0.17977+309
L=3  Nkbl=1  erefs: 0.17977+309
===============================================================================
</basis_specs>

atom: Called for Au                    (Z =  79)

read_vps: Pseudopotential generation method:
read_vps: ATM3      Troullier-Martins                       
Total valence charge:   11.00000

read_vps: Pseudopotential includes a core correction:
read_vps: Pseudo-core for xc-correction

xc_check: Exchange-correlation functional:
xc_check: Ceperley-Alder
V l=0 = -2*Zval/r beyond r=  2.9833
V l=1 = -2*Zval/r beyond r=  2.9833
V l=2 = -2*Zval/r beyond r=  2.9833
V l=3 = -2*Zval/r beyond r=  2.9833
All V_l potentials equal beyond r=  2.4425
This should be close to max(r_c) in ps generation
All pots = -2*Zval/r beyond r=  2.9833

VLOCAL1: 99.0% of the norm of Vloc inside      7.276 Ry
VLOCAL1: 99.9% of the norm of Vloc inside     16.582 Ry
atom: Maximum radius for 4*pi*r*r*local-pseudopot. charge    2.94627
atom: Maximum radius for r*vlocal+2*Zval:    2.60007
GHOST: No ghost state for L =  0
GHOST: No ghost state for L =  1
GHOST: No ghost state for L =  2
GHOST: No ghost state for L =  3

KBgen: Kleinman-Bylander projectors: 
   l= 0   rc=  3.175745   el= -0.445638   Ekb=  5.072790   kbcos=  0.276607
   l= 1   rc=  3.256140   el= -0.066324   Ekb=  2.703235   kbcos=  0.227171
   l= 2   rc=  3.020861   el= -0.526103   Ekb= -4.704026   kbcos= -0.643795
   l= 3   rc=  3.466145   el=  0.003438   Ekb= -2.516122   kbcos= -0.010529

KBgen: Total number of  Kleinman-Bylander projectors:   16
atom: -------------------------------------------------------------------------

atom: SANKEY-TYPE ORBITALS:

SPLIT: Orbitals with angular momentum L= 0

SPLIT: Basis orbitals for state 6s

   izeta = 1
                 lambda =    1.000000
                     rc =    6.557093
                 energy =   -0.435455
                kinetic =    0.389259
    potential(screened) =   -0.824714
       potential(ionic) =   -8.467175

SPLIT: Orbitals with angular momentum L= 2

SPLIT: Basis orbitals for state 5d

   izeta = 1
                 lambda =    1.000000
                     rc =    5.933100
                 energy =   -0.524775
                kinetic =    4.913203
    potential(screened) =   -5.437978
       potential(ionic) =  -15.883506
atom: Total number of Sankey-type orbitals:  6

atm_pop: Valence configuration (for local Pseudopot. screening):
 6s( 1.00)                                                            
 6p( 0.00)                                                            
 5d(10.00)                                                            
Vna: chval, zval:   11.00000  11.00000

Vna:  Cut-off radius for the neutral-atom potential:   6.557093
comcore: Pseudo-core radius Rcore=  4.027091

atom: _________________________________________________________________________

prinput: Basis input ----------------------------------------------------------

PAO.BasisType split     

%block ChemicalSpeciesLabel
    1   79 Au                      # Species index, atomic number, species label
%endblock ChemicalSpeciesLabel

%block PAO.Basis                 # Define Basis set
Au                    2                    # Species label, number of l-shells
 n=6   0   1                         # n, l, Nzeta 
   6.557   
   1.000   
 n=5   2   1                         # n, l, Nzeta 
   5.933   
   1.000   
%endblock PAO.Basis

prinput: ----------------------------------------------------------------------

coor:   Atomic-coordinates input format  =     Cartesian coordinates
coor:                                          (in Angstroms)

siesta: Atomic coordinates (Bohr) and species
siesta:      0.00000   0.00000   0.00000  1        1
siesta:      0.00000   0.00000   5.29124  1        2
siesta:      0.00000   0.00000  10.58247  1        3
siesta:      0.00000   0.00000  15.87371  1        4
siesta:      1.88973   0.00000  21.16494  1        5
siesta:      0.00000   0.00000  26.45618  1        6
siesta:      0.00000   0.00000  31.74741  1        7
siesta:      0.00000   0.00000  37.03865  1        8
siesta:      0.00000   0.00000  42.32988  1        9

siesta: System type = chain     

initatomlists: Number of atoms, orbitals, and projectors:      9    54   144

SMEAGOL: ******************* SMEAGOL Simulation parameters ********************
SMEAGOL:
SMEAGOL:       The following are some of the SMEAGOL parameters of the
SMEAGOL:       simulation. A complete list of the parameters used,
SMEAGOL:       including default values, can be found in file fdf.log.
SMEAGOL:
redata: Transport in extended molecule                =      T
redata: # of points in real energy axis integral      =     64
redata: # of contour points in semi-circle            =     34
redata: # of contour points in line region            =     20
redata: # of poles in the Fermi function              =      5
redata: Initial value of the bias potential           =      0.0000 Ry
redata: Final value of the bias potential             =      0.0000 Ry
redata: # of bias potential points                    =      0
redata: Small imaginary part                          =      0.00010
redata: Lower bound for the contour integral          =     -7.3498 Ry
redata: 1 = Leads with different spin                 =      0
redata: Atom of the lead where bias slope starts      =      1
redata: Atom of the lead where bias slope ends        =      9
redata: # of bulk slices to include in EM             =      1
redata: Calculate transmission coefficients           =      T
redata: Set bulk transversal cell                     =      F
redata: Bulk transversal cell size                    =      3
redata: Write leads H and S matrices at .HSL          =      F
redata: Init transport                                =      F
redata: Force super cell in z direction = 3           =      F
redata: Calculated electronic structure for           =     LR
redata: Write converged DM (at bias/MD selected step) =      F
redata: Hartree Leads Left                            =      0.0000 Bohr
redata: Hartree Leads Right                           =      0.0000 Bohr
redata: Hartree Leads Bottom                          =     -0.1350 Ry
redata: Periodic leads in perpendicular directions    =      F
redata: Thresholds at generalized SVD                 =      0.000000001000
redata: Write .orb, .ef and .gHS files                =      F
redata: Write .onlyS files                            =      F
redata: Electron-phonon interaction                   =      F
redata: Invert only central region    =      F
redata: Calculate Forces    =      F
redata: ***********************************************************************

siesta: ******************** SIESTA Simulation parameters *********************
siesta:
siesta:       The following are some of the SIESTA parameters of the
siesta:       simulation. A complete list of the parameters used,
siesta:       including default values, can be found in file fdf.log.
siesta:
redata: Non-Collinear-spin run             =       F
redata: SpinPolarized (Up/Down) run        =       F
redata: Number of spin components          =       1
redata: Long output                        =       F
redata: Number of Atomic Species           =       1
redata: Charge density info will appear in .RHO file
redata: Write Mulliken Pop.                =      NO
redata: Mesh Cutoff                        =     200.0000  Ry
redata: Net charge of the system           =       0.0000 |e|
redata: Max. number of SCF Iter            =   10000
redata: Performing Pulay mixing using      =       4 iterations
redata: Mix DM in first SCF step ?         =       T
redata: Write Pulay info on disk?          =       F
redata: Discard 1st Pulay DM after kick    =       F
redata: New DM Mixing Weight               =       0.1000
redata: New DM Occupancy tolerance         =       0.000000000001
redata: No kicks to SCF
redata: DM Mixing Weight for Kicks         =       0.5000
redata: DM Tolerance for SCF               =       0.000100
redata: Require Energy convergence for SCF =       F
redata: DM Energy tolerance for SCF        =       0.000100 eV
redata: Require Harris convergence for SCF =       F
redata: DM Harris energy tolerance for SCF =       0.000100 eV
redata: Using Saved Data (generic)         =       F
redata: Use continuation files for DM      =       T
redata: Neglect nonoverlap interactions    =       F
redata: Method of Calculation              =     Diagonalization
redata: Divide and Conquer                 =       T
redata: Electronic Temperature             =       0.0019  Ry
redata: Fix the spin of the system         =       F
redata: Dynamics option                    =     Verlet MD run
redata: Initial MD time step               =       1
redata: Final MD time step                 =       1
redata: Length of MD time step             =       1.0000  fs
redata: Initial Temperature of MD run      =       0.0000  K
redata: Perform a MD quench                =       F
redata: ***********************************************************************

Total number of electrons:    99.000000
Total ionic charge:    99.000000

* ProcessorY, Blocksize:    1  24

k-point displ. along   1 input, could be:     0.00    0.50
k-point displ. along   2 input, could be:     0.00    0.50
 Kpoints in:            4 . Kpoints trimmed:            4

siesta: k-grid: Number of k-points =     4
siesta: k-grid: Cutoff (effective) =     8.400 Ang
siesta: k-grid: Supercell and displacements
siesta: k-grid:    2   0   0      0.000
siesta: k-grid:    0   2   0      0.000
siesta: k-grid:    0   0   1      0.000
siesta: overlap:  rmaxh   veclen  direction
siesta: overlap:  20.0465 15.8737   1
siesta: overlap:  rmaxh   veclen  direction
siesta: overlap:  20.0465 15.8737   2
siesta: overlap:  rmaxh   veclen  direction
siesta: overlap:  20.0465 47.6211   3
Naive supercell factors:     3    3    1

superc: Internal auxiliary supercell:     3 x     3 x     1  =       9
superc: Number of atoms, orbitals, and projectors:     81    486   1296

* Maximum dynamic memory allocated =     1 MB

siesta:                 ===============================
SMEAGOL                 Bias step =    0, V =  0.000 Ry
                            Begin MD step =      1
                        ===============================

superc: Internal auxiliary supercell:     3 x     3 x     1  =       9
superc: Number of atoms, orbitals, and projectors:     81    486   1296

outcell: Unit cell vectors (Ang):
        8.400000    0.000000    0.000000
        0.000000    8.400000    0.000000
        0.000000    0.000000   25.200000

outcell: Cell vector modules (Ang)   :    8.400000    8.400000   25.200000
outcell: Cell angles (23,13,12) (deg):     90.0000     90.0000     90.0000
outcell: Cell volume (Ang**3)        :   1778.1120
New_DM. Step:     1
Initializing Density Matrix...

InitMesh: MESH =    72 x    72 x   216 =     1119744
InitMesh: Mesh cutoff (required, used) =   200.000   203.052 Ry
SMEAGOL: average =  -0.13694, shift =  -0.13504, count =   5184
SMEAGOL: minL =   0.00000, maxR =   0.00000

* Maximum dynamic memory allocated =    57 MB

SMEAGOL: Integral method for real-axis = Traditional 

SMEAGOL: Integral method for real-axis = Traditional 

SMEAGOL: Integral method for real-axis = Traditional 

SMEAGOL: Integral method for real-axis = Traditional 

siesta: Program's energy decomposition (eV):
siesta: Ebs     =      -588.756715
siesta: Eions   =     10845.004161
siesta: Ena     =       617.624380
siesta: Ekin    =      6064.079438
siesta: Enl     =     -2347.294996
siesta: DEna    =         0.000000
siesta: DUscf   =         0.000000
siesta: DUext   =         0.000000
siesta: Exc     =     -3729.632147
siesta: eta*DQ  =         0.000000
siesta: Emadel  =         0.000000
siesta: Emeta   =         0.000000
siesta: Emolmec =         0.000000
siesta: Ekinion =         0.000000
siesta: Eharris =    -10189.401956
siesta: Etot    =    -10240.227485
siesta: FreeEng =    -10240.227485

siesta: iscf   Eharris(eV)      E_KS(eV)   FreeEng(eV)   dDmax  Ef(eV)
siesta:    1   -10189.4020   -10240.2275   -10240.2275  1.2131  0.0000
timer: Routine,Calls,Time,% = IterSCF        1       1.803  86.34
elaps: Routine,Calls,Wall,% = IterSCF        1       0.912  83.56
SMEAGOL: average =   1.52624, shift =  -0.13504, count =   5184
SMEAGOL: minL =   0.00000, maxR =   0.00000
siesta:    2   -10067.4206    -9905.1714    -9905.1714  6.5983  0.0000
SMEAGOL: average =  -0.57607, shift =  -0.13504, count =   5184
SMEAGOL: minL =   0.00000, maxR =   0.00000
siesta:    3   -10241.5753   -10241.9716   -10241.9716  2.1425  0.0000
SMEAGOL: average =  -0.55600, shift =  -0.13504, count =   5184
SMEAGOL: minL =   0.00000, maxR =   0.00000
siesta:    4   -10234.9330   -10243.6127   -10243.6127  1.9048  0.0000
SMEAGOL: average =  -0.24095, shift =  -0.13504, count =   5184
SMEAGOL: minL =   0.00000, maxR =   0.00000
siesta:    5   -10120.8887   -10248.3011   -10248.3011  0.4280  0.0000
SMEAGOL: average =   5.38164, shift =  -0.13504, count =   5184
SMEAGOL: minL =   0.00000, maxR =   0.00000
siesta:    6    -7031.2955    -7021.3193    -7021.3193 21.5765  0.0000
SMEAGOL: average =   5.14777, shift =  -0.13504, count =   5184
SMEAGOL: minL =   0.00000, maxR =   0.00000
siesta:    7    -7540.6529    -7262.8405    -7262.8405 20.7303  0.0000
SMEAGOL: average =  -0.33161, shift =  -0.13504, count =   5184
SMEAGOL: minL =   0.00000, maxR =   0.00000
siesta:    8   -10248.2082   -10249.2648   -10249.2648  0.8093  0.0000
SMEAGOL: average =  -0.30361, shift =  -0.13504, count =   5184
SMEAGOL: minL =   0.00000, maxR =   0.00000
siesta:    9   -10247.5523   -10249.0952   -10249.0952  0.6969  0.0000
SMEAGOL: average =  -0.26210, shift =  -0.13504, count =   5184
SMEAGOL: minL =   0.00000, maxR =   0.00000
siesta:   10   -10247.1654   -10248.5955   -10248.5955  0.5326  0.0000
SMEAGOL: average =  -0.22323, shift =  -0.13504, count =   5184
SMEAGOL: minL =   0.00000, maxR =   0.00000
siesta:   11   -10242.2424   -10247.8461   -10247.8461  0.4027  0.0000
SMEAGOL: average =  -0.06890, shift =  -0.13504, count =   5184
SMEAGOL: minL =   0.00000, maxR =   0.00000
siesta:   12   -10242.9953   -10242.3793   -10242.3793  0.1841  0.0000
SMEAGOL: average =  -0.08406, shift =  -0.13504, count =   5184
SMEAGOL: minL =   0.00000, maxR =   0.00000
siesta:   13   -10244.9895   -10243.1275   -10243.1275  0.1399  0.0000
SMEAGOL: average =  -0.12787, shift =  -0.13504, count =   5184
SMEAGOL: minL =   0.00000, maxR =   0.00000
siesta:   14   -10245.7162   -10245.1497   -10245.1497  0.0180  0.0000
SMEAGOL: average =  -0.14247, shift =  -0.13504, count =   5184
SMEAGOL: minL =   0.00000, maxR =   0.00000
siesta:   15   -10245.4560   -10245.7065   -10245.7065  0.0573  0.0000
SMEAGOL: average =  -0.13583, shift =  -0.13504, count =   5184
SMEAGOL: minL =   0.00000, maxR =   0.00000
siesta:   16   -10245.3096   -10245.4680   -10245.4680  0.0315  0.0000
SMEAGOL: average =  -0.13168, shift =  -0.13504, count =   5184
SMEAGOL: minL =   0.00000, maxR =   0.00000
siesta:   17   -10245.3433   -10245.3137   -10245.3137  0.0110  0.0000
SMEAGOL: average =  -0.13250, shift =  -0.13504, count =   5184
SMEAGOL: minL =   0.00000, maxR =   0.00000
siesta:   18   -10245.3087   -10245.3439   -10245.3439  0.0087  0.0000
SMEAGOL: average =  -0.13146, shift =  -0.13504, count =   5184
SMEAGOL: minL =   0.00000, maxR =   0.00000
siesta:   19   -10245.3326   -10245.3088   -10245.3088  0.0042  0.0000
SMEAGOL: average =  -0.13199, shift =  -0.13504, count =   5184
SMEAGOL: minL =   0.00000, maxR =   0.00000
siesta:   20   -10245.3343   -10245.3325   -10245.3325  0.0044  0.0000
SMEAGOL: average =  -0.13199, shift =  -0.13504, count =   5184
SMEAGOL: minL =   0.00000, maxR =   0.00000
siesta:   21   -10245.3427   -10245.3343   -10245.3343  0.0038  0.0000
SMEAGOL: average =  -0.13217, shift =  -0.13504, count =   5184
SMEAGOL: minL =   0.00000, maxR =   0.00000
siesta:   22   -10245.3447   -10245.3428   -10245.3428  0.0029  0.0000
SMEAGOL: average =  -0.13220, shift =  -0.13504, count =   5184
SMEAGOL: minL =   0.00000, maxR =   0.00000
siesta:   23   -10245.3478   -10245.3447   -10245.3447  0.0021  0.0000
SMEAGOL: average =  -0.13226, shift =  -0.13504, count =   5184
SMEAGOL: minL =   0.00000, maxR =   0.00000
siesta:   24   -10245.3505   -10245.3478   -10245.3478  0.0008  0.0000
SMEAGOL: average =  -0.13230, shift =  -0.13504, count =   5184
SMEAGOL: minL =   0.00000, maxR =   0.00000
siesta:   25   -10245.3509   -10245.3505   -10245.3505  0.0006  0.0000
SMEAGOL: average =  -0.13230, shift =  -0.13504, count =   5184
SMEAGOL: minL =   0.00000, maxR =   0.00000
siesta:   26   -10245.3505   -10245.3510   -10245.3510  0.0003  0.0000
SMEAGOL: average =  -0.13228, shift =  -0.13504, count =   5184
SMEAGOL: minL =   0.00000, maxR =   0.00000
siesta:   27   -10245.3495   -10245.3505   -10245.3505  0.0002  0.0000
SMEAGOL: average =  -0.13226, shift =  -0.13504, count =   5184
SMEAGOL: minL =   0.00000, maxR =   0.00000
siesta:   28   -10245.3496   -10245.3495   -10245.3495  0.0001  0.0000
SMEAGOL: average =  -0.13226, shift =  -0.13504, count =   5184
SMEAGOL: minL =   0.00000, maxR =   0.00000
siesta:   29   -10245.3498   -10245.3496   -10245.3496  0.0001  0.0000
SMEAGOL: average =  -0.13227, shift =  -0.13504, count =   5184
SMEAGOL: minL =   0.00000, maxR =   0.00000
siesta:   30   -10245.3499   -10245.3498   -10245.3498  0.0000  0.0000
SMEAGOL: average =  -0.13227, shift =  -0.13504, count =   5184
SMEAGOL: minL =   0.00000, maxR =   0.00000

SMEAGOL: InitTransmRange =  -0.73497988D+00, FinalTransmRange =   0.73497988D+00
SMEAGOL: trcde =  0.00000D+00, NeneT =   800
SMEAGOL: Ef =  -0.45071564D+00, temp =   0.19000693D-02
SMEAGOL: deltaimagtrc =   0.00000000D+00
 no. of left channels .ne. number of right channels
           4           9           4           7
 Norm :   5.70334965488275       Cond num :   1.145322268371316E-014
 warnin0_L -0.500079946376281                1
 no. of left channels .ne. number of right channels
           4           9           4           7
 Norm :   5.70334965488275       Cond num :   1.145322268371316E-014
 warnin0_R -0.500079946376281                1
 no. of left channels .ne. number of right channels
           4           9           4           7
 Norm :   5.70334965488275       Cond num :   1.145322268371316E-014
 warnin0_L -0.500079946376281                1
 no. of left channels .ne. number of right channels
           4           9           4           7
 Norm :   5.70334965488275       Cond num :   1.145322268371316E-014
 warnin0_R -0.500079946376281                1
 no. of left channels .ne. number of right channels
           4           9           4           7
 Norm :   5.70334965488275       Cond num :   1.145322268371316E-014
 warnin0_L -0.500079946376281                1
 no. of left channels .ne. number of right channels
           4           9           4           7
 Norm :   5.70334965488275       Cond num :   1.145322268371316E-014
 warnin0_R -0.500079946376281                1
 no. of left channels .ne. number of right channels
           4           9           4           7
 Norm :   5.70334965488275       Cond num :   1.145322268371316E-014
 warnin0_L -0.500079946376281                1
 no. of left channels .ne. number of right channels
           4           9           4           7
 Norm :   5.70334965488275       Cond num :   1.145322268371316E-014
 warnin0_R -0.500079946376281                1

siesta: E_KS(eV) =           -10245.3499

siesta: E_KS - E_eggbox =    -10245.3499

siesta: Atomic forces (eV/Ang):
     1   -0.000026   -0.000000    0.000603
     2   -0.000350   -0.000000   -0.001478
     3    0.085240   -0.000000    0.143179
     4    0.857869    0.000000   -0.065733
     5   -1.516943    0.000000    0.000001
     6    0.857860   -0.000000    0.065729
     7    0.085239   -0.000000   -0.143187
     8   -0.000350   -0.000000    0.001468
     9   -0.000023    0.000000   -0.000603
----------------------------------------
   Tot    0.368516    0.000000   -0.000022
----------------------------------------
   Max    1.516943
   Res    0.376984    sqrt( Sum f_i^2 / 3N )
----------------------------------------
   Max    1.516943    constrained

Stress-tensor-Voigt (kbar):        3.86        2.19       71.66        0.00       -0.00       -0.00
(Free)E + p*V (eV/cell)   -10274.0977
Target enthalpy (eV/cell)   -10245.3499

siesta: Stress tensor (static) (eV/Ang**3):
         0.002409    0.000000   -0.000000
         0.000000    0.001365   -0.000000
        -0.000000   -0.000000    0.044728

siesta: Pressure (static):        -25.90364760  kBar

siesta: Stress tensor (total) (eV/Ang**3):
         0.002409    0.000000   -0.000000
         0.000000    0.001365   -0.000000
        -0.000000   -0.000000    0.044728

siesta: Pressure (total):        -25.90364760  kBar

siesta: Temp_ion =       0.000 K

* Maximum dynamic memory allocated =    57 MB

coxmol: Writing XMOL coordinates into file au-chain_szv_shiftx_zerobias.xyz                                

siesta: Program's energy decomposition (eV):
siesta: Ebs     =      -710.945512
siesta: Eions   =     10845.004161
siesta: Ena     =       617.624380
siesta: Ekin    =      6003.625237
siesta: Enl     =     -2320.353260
siesta: DEna    =        17.243078
siesta: DUscf   =         0.679370
siesta: DUext   =         0.000000
siesta: Exc     =     -3719.164555
siesta: eta*DQ  =         0.000000
siesta: Emadel  =         0.000000
siesta: Emeta   =         0.000000
siesta: Emolmec =         0.000000
siesta: Ekinion =         0.000000
siesta: Eharris =    -10245.349919
siesta: Etot    =    -10245.349911
siesta: FreeEng =    -10245.349911

siesta: Final energy (eV):
siesta:  Band Struct. =    -710.945512
siesta:       Kinetic =    6003.625237
siesta:       Hartree =    6105.874086
siesta:    Ext. field =       0.000000
siesta:   Exch.-corr. =   -3719.164555
siesta:  Ion-electron =  -16899.171611
siesta:       Ion-ion =   -1736.513067
siesta:       Ekinion =       0.000000
siesta:         Total =  -10245.349911

siesta: Atomic forces (eV/Ang):
siesta:      1   -0.000026   -0.000000    0.000603
siesta:      2   -0.000350   -0.000000   -0.001478
siesta:      3    0.085240   -0.000000    0.143179
siesta:      4    0.857869    0.000000   -0.065733
siesta:      5   -1.516943    0.000000    0.000001
siesta:      6    0.857860   -0.000000    0.065729
siesta:      7    0.085239   -0.000000   -0.143187
siesta:      8   -0.000350   -0.000000    0.001468
siesta:      9   -0.000023    0.000000   -0.000603
siesta: ----------------------------------------
siesta:    Tot    0.368516    0.000000   -0.000022

siesta: Constrained forces (eV/Ang):
siesta:      1    0.000000    0.000000    0.000000
siesta:      2    0.000000    0.000000    0.000000
siesta:      3    0.000000    0.000000    0.000000
siesta:      4    0.857869    0.000000   -0.065733
siesta:      5   -1.516943    0.000000    0.000001
siesta:      6    0.857860   -0.000000    0.065729
siesta:      7    0.000000    0.000000    0.000000
siesta:      8    0.000000    0.000000    0.000000
siesta:      9    0.000000    0.000000    0.000000
siesta: ----------------------------------------
siesta:  Tot    0.198785    0.000000   -0.000003

siesta: Stress tensor (static) (eV/Ang**3):
siesta:     0.002409    0.000000   -0.000000
siesta:     0.000000    0.001365   -0.000000
siesta:    -0.000000   -0.000000    0.044728

siesta: Cell volume =       1778.112000 Ang**3

siesta: Pressure (static):
siesta:                Solid            Molecule  Units
siesta:          -0.00017609         -0.00017041  Ry/Bohr**3
siesta:          -0.01616761         -0.01564605  eV/Ang**3
siesta:         -25.90364760        -25.06800021  kBar
(Free)E+ p_basis*V_orbitals  =      -10241.927469
(Free)Eharris+ p_basis*V_orbitals  =      -10241.927585

siesta: Electric dipole (a.u.)  =   -0.020515    0.000000    0.000000
siesta: Electric dipole (Debye) =   -0.052144    0.000000    0.000000
SMEAGOL: average =  -0.13227, shift =  -0.13504, count =   5184
SMEAGOL: minL =   0.00000, maxR =   0.00000

* Maximum dynamic memory allocated : Node    0 =    57 MB
* Maximum dynamic memory allocated : Node    1 =    57 MB

* Maximum memory occured during redistribXZ                   

timer: CPU execution times:
timer:  Routine       Calls   Time/call    Tot.time        %
timer:  siesta            1      17.683      17.683   100.00
timer:  Setup             1       0.210       0.210     1.19
timer:  bands             1       0.001       0.001     0.00
timer:  writewave         1       0.001       0.001     0.01
timer:  KSV_init          1       0.000       0.000     0.00
timer:  IterMD            1      17.002      17.002    96.15
timer:  hsparse           1       0.001       0.001     0.00
timer:  overlap           1       0.065       0.065     0.37
timer:  IterSCF          30       0.415      12.444    70.37
timer:  kinefsm           2       0.030       0.060     0.34
timer:  nlefsm            2       0.127       0.254     1.43
timer:  DHSCF            32       0.379      12.129    68.59
timer:  DHSCF1            1       0.101       0.101     0.57
timer:  DHSCF2            1       0.642       0.642     3.63
timer:  REORD           326       0.001       0.307     1.74
timer:  POISON           33       0.149       4.901    27.71
timer:  DHSCF3           32       0.342      10.936    61.84
timer:  rhoofd           32       0.050       1.593     9.01
timer:  cellXC           32       0.072       2.301    13.01
timer:  vmat             31       0.039       1.210     6.84
timer:  MolMec            2       0.000       0.000     0.00
timer:  emtrans          31       0.151       4.671    26.41
timer:  NEGFK           124       0.037       4.627    26.17
timer:  RE_SENE         128       0.000       0.000     0.00
timer:  IM_SENE           4       0.073       0.293     1.66
timer:  DHSCF4            1       0.382       0.382     2.16
timer:  dfscf             1       0.295       0.295     1.67
timer:  overfsm           1       0.001       0.001     0.00
timer:  TRANSM            4       0.927       3.708    20.97
timer:  senetrc           4       0.924       3.694    20.89
timer:  CURRENT           4       0.003       0.012     0.07
timer:  optical           1       0.019       0.019     0.11
  

elaps: ELAPSED times:
elaps:  Routine       Calls   Time/call    Tot.time        %
elaps:  siesta            1       8.975       8.975   100.00
elaps:  Setup             1       0.141       0.141     1.57
elaps:  bands             1       0.000       0.000     0.00
elaps:  writewave         1       0.001       0.001     0.01
elaps:  KSV_init          1       0.000       0.000     0.00
elaps:  IterMD            1       8.583       8.583    95.63
elaps:  hsparse           1       0.000       0.000     0.00
elaps:  overlap           1       0.034       0.034     0.38
elaps:  IterSCF          30       0.209       6.278    69.96
elaps:  kinefsm           2       0.016       0.031     0.35
elaps:  nlefsm            2       0.066       0.132     1.48
elaps:  DHSCF            32       0.190       6.085    67.80
elaps:  DHSCF1            1       0.052       0.052     0.58
elaps:  DHSCF2            1       0.320       0.320     3.57
elaps:  REORD           326       0.000       0.155     1.73
elaps:  POISON           33       0.075       2.461    27.42
elaps:  DHSCF3           32       0.172       5.503    61.31
elaps:  rhoofd           32       0.026       0.823     9.17
elaps:  cellXC           32       0.036       1.151    12.82
elaps:  vmat             31       0.020       0.607     6.76
elaps:  MolMec            2       0.000       0.000     0.00
elaps:  emtrans          31       0.076       2.353    26.21
elaps:  NEGFK           124       0.019       2.338    26.05
elaps:  RE_SENE         128       0.000       0.000     0.00
elaps:  IM_SENE           4       0.038       0.151     1.69
elaps:  DHSCF4            1       0.191       0.191     2.13
elaps:  dfscf             1       0.147       0.147     1.64
elaps:  overfsm           1       0.000       0.000     0.00
elaps:  TRANSM            4       0.468       1.870    20.84
elaps:  senetrc           4       0.462       1.849    20.61
elaps:  CURRENT           4       0.002       0.009     0.10
elaps:  optical           1       0.000       0.000     0.00
  
>> End of run:  30-OCT-2023  17:39:16
