     268
 i =        1, E =     -8574.7488377205
 Au         1.0428271663        1.0430361839        2.0836484974
 Au         1.0428246134        3.1281249104        4.1710903062
 Au         3.1283547372        1.0424404161        4.1718613789
 Au         3.1273530156        3.1290825866        2.0834699010
 Au         1.0428327589        1.0405900934        6.2556756747
 Au         5.2150185591        1.0417617247        2.0834868168
 Au        13.5557735953        1.0417525944        2.0834706801
 Au         1.0428307986        5.2137871620        2.0825414051
 Au         1.0428248086       13.5564615867        2.0836139542
 Au         1.0428292294        3.1289600692        8.3206540113
 Au         5.2135288552        3.1280139987        4.1718488748
 Au        13.5572603873        3.1280183040        4.1718505175
 Au         1.0428327338        7.2997664218        4.1705434402
 Au         1.0428363297       15.6422992547        4.1731229091
 Au         3.1286676665        1.0437989195        8.3210924365
 Au         7.2999133554        1.0422907988        4.1710987652
 Au        15.6424354114        1.0424497695        4.1718656540
 Au         3.1277008448        5.2137981624        4.1714479235
 Au         3.1283645130       13.5570997548        4.1718803942
 Au         3.1280299376        3.1277502781        6.2543916801
 Au         7.3006731998        3.1275464854        2.0838640613
 Au        15.6434332488        3.1290759357        2.0834850308
 Au         3.1281480110        7.2997488104        2.0829362350
 Au         3.1287726115       15.6423281251        2.0831649109
 Au         1.0428294945        5.2155392127        6.2560762750
 Au         1.0428333247       13.5589727744        6.2556651671
 Au         5.2141974739        1.0420004588        6.2559670605
 Au        13.5565901800        1.0419984731        6.2559592967
 Au         5.2136116483        5.2151678933        2.0844970159
 Au        13.5557887841       13.5577353412        2.0835395274
 Au        13.5571746472        5.2151664176        2.0845017085
 Au         5.2150080405       13.5577262851        2.0835555074
 Au         1.0428101687        7.2997077668        8.3193283306
 Au         1.0428062508       15.6421436950        8.3206811338
 Au         5.2149869826        3.1299618249        8.3212846683
 Au        13.5558154502        3.1299671022        8.3212813463
 Au         5.2153814807        7.2997394582        4.1720474084
 Au        13.5575437606       15.6423213487        4.1703139109
 Au        13.5554367340        7.2997394205        4.1720378638
 Au         5.2132500052       15.6423211230        4.1703113056
 Au         3.1295020908        5.2108484471        8.3205781873
 Au         3.1285942031       13.5557156993        8.3211225592
 Au         7.2988949859        1.0453759151        8.3201505346
 Au        15.6421259302        1.0437903197        8.3211064994
 Au         7.2997526336        5.2134868394        4.1707597487
 Au        15.6424288619       13.5570937029        4.1718783677
 Au        15.6430770855        5.2138005162        4.1714529632
 Au         7.2999207490       13.5571652865        4.1711275220
 Au         3.1291981495        7.2997354797        6.2529781218
 Au         3.1261064590       15.6423659957        6.2528813383
 Au         7.2994374078        3.1297450021        6.2556298057
 Au        15.6427549841        3.1277429484        6.2543985406
 Au         7.2995545771        7.2997420472        2.0849299625
 Au        15.6420048791       15.6423256950        2.0831716023
 Au        15.6426475319        7.2997467083        2.0829236841
 Au         7.2993830640       15.6423425745        2.0819566601
 Au         1.0428328385        9.3857461441        2.0825657277
 Au         9.3854072082        1.0426975004        2.0834142267
 Au         1.0428249177       11.4713484100        4.1711074175
 Au         9.3853984557        3.1299652781        4.1739362445
 Au         3.1276980285        9.3857269784        4.1714752065
 Au        11.4708720658        1.0422917979        4.1710948239
 Au         3.1273435141       11.4704203730        2.0834436778
 Au        11.4701132740        3.1275441146        2.0838477759
 Au         1.0428284708        9.3840262641        6.2561170959
 Au         9.3854048023        5.2141573520        2.0852121730
 Au         9.3854050839       13.5568191632        2.0833650398
 Au         9.3854028148        1.0433254486        6.2554700487
 Au         5.2135971039        9.3843439191        2.0844919402
 Au        13.5571845941        9.3843457146        2.0844968293
 Au         1.0428286896       11.4705579768        8.3206645252
 Au         9.3854042788        7.2997717145        4.1700685372
 Au         9.3854077048       15.6423435692        4.1718647538
 Au         9.3854050011        3.1262299645        8.3208344144
 Au         5.2135344230       11.4714994843        4.1718318919
 Au        13.5572547400       11.4714951165        4.1718335792
 Au         3.1295242891        9.3886645126        8.3205660159
 Au        11.4710358008        5.2134860192        4.1707679079
 Au        11.4708681082       13.5571610378        4.1711298819
 Au        11.4718971088        1.0453835542        8.3201453489
 Au         7.2997560343        9.3859804084        4.1708164871
 Au        15.6430767260        9.3857279653        4.1714866490
 Au         3.1280289424       11.4717608490        6.2543685002
 Au        11.4712325081        7.2997441717        2.0849312305
 Au        11.4714137725       15.6423446896        2.0819560082
 Au        11.4713556097        3.1297685930        6.2556287765
 Au         7.3006603106       11.4719798613        2.0838832707
 Au        15.6434426098       11.4704315301        2.0834589419
 Au         5.2165367282        5.2152875254        6.2584296428
 Au        13.5566153629       13.5574873391        6.2560401422
 Au        13.5542305532        5.2152936984        6.2584415206
 Au         5.2141710113       13.5574848429        6.2560478008
 Au         5.2114494244        7.2997987066        8.3188498295
 Au        13.5570801854       15.6423122615        8.3202543888
 Au        13.5593767063        7.2997993594        8.3188531290
 Au         5.2137214726       15.6423126305        8.3202505650
 Au         7.2946610621        5.2074477940        8.3256537815
 Au        15.6422005767       13.5557248109        8.3211346371
 Au        15.6412890479        5.2108579134        8.3205870198
 Au         7.2989281372       13.5541028255        8.3201560893
 Au         7.3043889048        7.2997071570        6.2529963789
 Au        15.6446677051       15.6423666172        6.2528798465
 Au        15.6415969316        7.2997363852        6.2529654883
 Au         7.2997050179       15.6423503175        6.2541417013
 Au         5.2166024683        9.3842105355        6.2584714942
 Au        13.5541666261        9.3842050484        6.2584838532
 Au         9.3854018514        5.2215833005        6.2581782121
 Au         9.3854035072       13.5561325835        6.2554524182
 Au         5.2150396477       11.4695853725        8.3212400189
 Au        13.5557621110       11.4695797597        8.3212360372
 Au         9.3856799300        7.3005407757        8.3316742510
 Au         9.3853840201       15.6422533610        8.3199757758
 Au         7.2947519466        9.3918772436        8.3258245566
 Au        15.6412658583        9.3886552188        8.3205765812
 Au        11.4760858555        5.2074572243        8.3257074031
 Au        11.4718647515       13.5540943970        8.3201523304
 Au         7.2994389647       11.4697299061        6.2556482198
 Au        15.6427564548       11.4717670635        6.2543753926
 Au        11.4664962109        7.2997065612        6.2528824830
 Au        11.4710873936       15.6423493439        6.2541457494
 Au         9.3854069315        9.3853207317        2.0852053489
 Au         9.3853984662       11.4696503347        4.1739464918
 Au        11.4710292012        9.3859781917        4.1708179165
 Au        11.4701264129       11.4719775271        2.0838672513
 Au         9.3854013927        9.3780652946        6.2579200859
 Au         9.3854055815       11.4734110066        8.3209010944
 Au        11.4759923921        9.3918653108        8.3258768465
 Au        11.4713546539       11.4697079961        6.2556478411
  S         9.3734992283        7.2974240098       17.1425115641
  C         9.3759195843        7.2811293227       15.3824629300
  C         8.1654803547        7.2935965124       14.6661817846
  C        10.5919751727        7.2937014874       14.6682689245
  S         9.3848815804        7.2995660033       10.7894148130
  C         9.3844845305        7.3164583713       12.5494536710
  C        10.5948717073        7.3038258725       13.2657425067
  C         8.1683769784        7.3037045471       13.2636200701
  H         7.2306032238        7.2722116888       15.2042242753
  H        11.5218244302        7.2720041155       15.2141202543
  H        11.5297131951        7.3250821275       12.7276693680
  H         7.2384733613        7.3252911947       12.7178358020
 Au         1.0428259093        1.0430464414       25.8483240246
 Au         1.0428127591        3.1289499077       19.6112763800
 Au         3.1285833020        1.0437651194       19.6108052416
 Au         3.1273487762        3.1290850910       25.8484755000
 Au         1.0428216342        1.0405336671       21.6762757657
 Au         5.2150067303        1.0417790288       25.8484010722
 Au        13.5557846686        1.0417757591       25.8483797010
 Au         1.0428239752        5.2137620104       25.8493753252
 Au         1.0428237172       13.5564721008       25.8482935048
 Au         1.0428259553        3.1281622448       23.7608332105
 Au         5.2150401856        3.1299291472       19.6107052175
 Au        13.5557701276        3.1299308349       19.6106990348
 Au         1.0428309160        7.2997994013       19.6126116564
 Au         1.0428363026       15.6425072359       19.6112588867
 Au         3.1283632489        1.0424164506       23.7600649800
 Au         7.2989311347        1.0454192610       19.6117818976
 Au        15.6421972780        1.0438088233       19.6108114608
 Au         3.1295359718        5.2108604434       19.6113710414
 Au         3.1286653304       13.5557341066       19.6108392880
 Au         3.1280347636        3.1277551016       21.6775509584
 Au         7.3006622510        3.1275390626       25.8480744970
 Au        15.6434478790        3.1290891556       25.8485042174
 Au         3.1281409039        7.2997489938       25.8490132009
 Au         3.1287782680       15.6423192500       25.8487817402
 Au         1.0428265247        5.2154775541       21.6758217041
 Au         1.0428224194       13.5589164096       21.6762634142
 Au         5.2141790347        1.0420230044       21.6758960928
 Au        13.5566201676        1.0420160760       21.6758902200
 Au         5.2136088809        5.2151643116       25.8474403041
 Au        13.5557766540       13.5577522673       25.8484527690
 Au        13.5571949185        5.2151628771       25.8474541208
 Au         5.2150188696       13.5577493262       25.8484741503
 Au         1.0428220149        7.2997297485       23.7613965558
 Au         1.0428323501       15.6423452290       23.7588171713
 Au         5.2135240564        3.1280105866       23.7601082998
 Au        13.5572463275        3.1280162836       23.7601066870
 Au         5.2113738344        7.2997001182       19.6130790432
 Au        13.5570465945       15.6423319827       19.6116823016
 Au        13.5593010476        7.2997009018       19.6130973561
 Au         5.2136878402       15.6423330233       19.6116928252
 Au         3.1277112865        5.2137725060       23.7604615996
 Au         3.1283532002       13.5570588086       23.7600800363
 Au         7.2999183397        1.0423382958       23.7608038359
 Au        15.6424240572        1.0424088587       23.7600537541
 Au         7.2947891467        5.2076267191       19.6058952014
 Au        15.6421154054       13.5556909583       19.6108477787
 Au        15.6412685087        5.2108293876       19.6113742323
 Au         7.2988889938       13.5541140662       19.6117949851
 Au         3.1292108536        7.2997624891       21.6789848830
 Au         3.1261214620       15.6422814242       21.6790764260
 Au         7.2994307108        3.1298222294       21.6763002492
 Au        15.6427615128        3.1277501510       21.6775819498
 Au         7.2995575910        7.2997499121       25.8469990854
 Au        15.6420108075       15.6423171215       25.8487618176
 Au        15.6426405739        7.2997470734       25.8490066111
 Au         7.2993760788       15.6423030135       25.8499776762
 Au         1.0428259296        9.3857208032       25.8493973207
 Au         9.3854064540        1.0426891560       25.8485723548
 Au         1.0428118359       11.4705478811       19.6112852349
 Au         9.3853981077        3.1260980420       19.6110377462
 Au         3.1295038391        9.3886359508       19.6113527580
 Au        11.4718584996        1.0453946028       19.6117836721
 Au         3.1273583351       11.4704337214       25.8484471192
 Au        11.4701272098        3.1275287557       25.8480520755
 Au         1.0428254902        9.3839646771       21.6758650781
 Au         9.3853881061        5.2141866438       25.8467350512
 Au         9.3854047461       13.5568109314       25.8485282011
 Au         9.3853985872        1.0433725624       21.6764881354
 Au         5.2136174880        9.3843406024       25.8474323441
 Au        13.5571818290        9.3843424509       25.8474455540
 Au         1.0428266015       11.4713857970       23.7608492410
 Au         9.3860456484        7.2991522422       19.6002610091
 Au         9.3854143492       15.6424040955       19.6119642642
 Au         9.3854061514        3.1298652568       23.7579939902
 Au         5.2149937991       11.4695498628       19.6106594529
 Au        13.5558155917       11.4695471518       19.6106544860
 Au         3.1277136479        9.3857143496       23.7604873603
 Au        11.4760369373        5.2076318946       19.6062283287
 Au        11.4719005018       13.5541375479       19.6117955002
 Au        11.4708690094        1.0423464678       23.7608132688
 Au         7.2947027811        9.3920518243       19.6061197693
 Au        15.6412994673        9.3886672391       19.6113545905
 Au         3.1280356785       11.4717678310       21.6775308828
 Au        11.4712357207        7.2997521651       25.8470196666
 Au        11.4714066842       15.6423047817       25.8499894514
 Au        11.4713465298        3.1297787126       21.6762788336
 Au         7.3006740579       11.4719642668       25.8480969487
 Au        15.6434380085       11.4704339748       25.8484756774
 Au         5.2166340766        5.2152995873       21.6734484285
 Au        13.5565972470       13.5575100576       21.6759765917
 Au        13.5541928502        5.2152965216       21.6734821782
 Au         5.2142013054       13.5575022301       21.6759824657
 Au         5.2153714827        7.2997611843       23.7599047646
 Au        13.5575516841       15.6423311790       23.7616267996
 Au        13.5554269270        7.2997612261       23.7598900998
 Au         5.2132578216       15.6423305246       23.7616280787
 Au         7.2997583845        5.2135259786       23.7611355730
 Au        15.6424372964       13.5570696788       23.7600750569
 Au        15.6430927919        5.2137880279       23.7604645650
 Au         7.2999178714       13.5572201395       23.7608445483
 Au         7.3043178444        7.2997889787       21.6790165546
 Au        15.6446828510       15.6422820436       21.6790423738
 Au        15.6416096009        7.2997633909       21.6789510064
 Au         7.2997063179       15.6423020663       21.6777785467
 Au         5.2165648437        9.3842130697       21.6734850534
 Au        13.5542638476        9.3842175577       21.6735175913
 Au         9.3853880026        5.2214384835       21.6740161219
 Au         9.3853994745       13.5561796677       21.6764690031
 Au         5.2135202896       11.4714974064       23.7600908671
 Au        13.5572502724       11.4714919161       23.7600893427
 Au         9.3853985420        7.2997269943       23.7618716197
 Au         9.3853950505       15.6423067799       23.7600751573
 Au         7.2997512770        9.3860188824       23.7611738254
 Au        15.6430867553        9.3857024534       23.7604838585
 Au        11.4710309715        5.2135243566       23.7611217668
 Au        11.4708731322       13.5572081755       23.7608474315
 Au         7.2994301786       11.4697398918       21.6763245755
 Au        15.6427614596       11.4717719426       21.6775617972
 Au        11.4664265464        7.2997891626       21.6789845188
 Au        11.4710886586       15.6423010301       21.6778140498
 Au         9.3853903193        9.3853501705       25.8467274034
 Au         9.3853991527       11.4732791207       19.6111067758
 Au        11.4761176798        9.3920404837       19.6064486367
 Au        11.4701158837       11.4719702713       25.8480739701
 Au         9.3853880245        9.3779212069       21.6737649426
 Au         9.3854061149       11.4695503781       23.7580032200
 Au        11.4710346081        9.3860169562       23.7611668826
 Au        11.4713484614       11.4697851628       21.6763016292
     268
 i =        2, E =     -8574.7607555019
 Au         1.0428320376        1.0424982515        2.0811711863
 Au         1.0428251415        3.1273164777        4.1690225082
 Au         3.1285120635        1.0426721269        4.1683090233
 Au         3.1268651581        3.1294131659        2.0806031056
 Au         1.0428323714        1.0401630652        6.2432290587
 Au         5.2158298646        1.0414009575        2.0804357461
 Au        13.5549629667        1.0413835570        2.0804112621
 Au         1.0428328236        5.2140085134        2.0777151901
 Au         1.0428305397       13.5569394268        2.0810695370
 Au         1.0428232645        3.1291981276        8.2899504858
 Au         5.2127691130        3.1279496011        4.1697969948
 Au        13.5580134069        3.1279482668        4.1697961406
 Au         1.0428249547        7.2998162426        4.1655362441
 Au         1.0428430336       15.6422805924        4.1683851375
 Au         3.1287085582        1.0449359097        8.2907694365
 Au         7.3001977560        1.0423005953        4.1681075168
 Au        15.6422668871        1.0426820229        4.1683187647
 Au         3.1279355465        5.2131796121        4.1695235630
 Au         3.1285360601       13.5569058210        4.1684007205
 Au         3.1280803177        3.1268274214        6.2382672995
 Au         7.3015580891        3.1260194930        2.0820026452
 Au        15.6439214599        3.1294062052        2.0806274385
 Au         3.1276303956        7.2997590587        2.0793124010
 Au         3.1281631311       15.6423388576        2.0796492842
 Au         1.0428257832        5.2174071109        6.2430290005
 Au         1.0428313788       13.5594100715        6.2430798702
 Au         5.2139804116        1.0409836433        6.2423334332
 Au        13.5568089865        1.0409849023        6.2423258002
 Au         5.2125920168        5.2159266117        2.0835331032
 Au        13.5549982560       13.5580823362        2.0806104793
 Au        13.5581813829        5.2159355929        2.0835282909
 Au         5.2158100215       13.5580706034        2.0806318718
 Au         1.0428156469        7.2995622839        8.2868485878
 Au         1.0428214834       15.6418112559        8.2923268278
 Au         5.2141247354        3.1299766225        8.2928211852
 Au        13.5566731957        3.1299890560        8.2928143772
 Au         5.2161142649        7.2997348199        4.1706430301
 Au        13.5584542986       15.6422897841        4.1663586330
 Au        13.5547175851        7.2997356311        4.1706074188
 Au         5.2123473580       15.6422899002        4.1663552140
 Au         3.1294218241        5.2063232901        8.2899397679
 Au         3.1284947254       13.5545295105        8.2909011647
 Au         7.2979872663        1.0477378495        8.2889814758
 Au        15.6420947577        1.0449492667        8.2907859710
 Au         7.2989867745        5.2110150124        4.1672870208
 Au        15.6422494575       13.5569023553        4.1684047438
 Au        15.6428575936        5.2131812752        4.1695250758
 Au         7.3001840272       13.5571157017        4.1682438975
 Au         3.1301020509        7.2997503154        6.2352958572
 Au         3.1256460151       15.6424634579        6.2371706730
 Au         7.3006791912        3.1317744699        6.2391317243
 Au        15.6427013775        3.1268249716        6.2382744075
 Au         7.2991059244        7.2997394032        2.0837646899
 Au        15.6425962859       15.6423371453        2.0796879762
 Au        15.6431720128        7.2997580893        2.0793077946
 Au         7.2996607135       15.6423606172        2.0765489449
 Au         1.0428338832        9.3855923350        2.0778075065
 Au         9.3854191951        1.0425110170        2.0808635929
 Au         1.0428254190       11.4721741582        4.1690310484
 Au         9.3854036733        3.1320915469        4.1761518817
 Au         3.1279802714        9.3863526582        4.1696156165
 Au        11.4705788930        1.0423066699        4.1680950953
 Au         3.1268155614       11.4700774597        2.0805292606
 Au        11.4692151744        3.1260160679        2.0819782748
 Au         1.0428256734        9.3822070069        6.2432334295
 Au         9.3854135118        5.2137337287        2.0847549598
 Au         9.3854182904       13.5570502568        2.0807018763
 Au         9.3854145303        1.0436125401        6.2409275208
 Au         5.2125442768        9.3835853649        2.0834874007
 Au        13.5582142287        9.3835829929        2.0834857223
 Au         1.0428227426       11.4704350121        8.2899817525
 Au         9.3853878981        7.2997462036        4.1623740277
 Au         9.3854174176       15.6423533509        4.1687587005
 Au         9.3854067048        3.1255025352        8.2903868381
 Au         5.2127793116       11.4715470195        4.1697957123
 Au        13.5580022670       11.4715473844        4.1697953764
 Au         3.1295297084        9.3931933110        8.2898581316
 Au        11.4718020156        5.2109883531        4.1672643718
 Au        11.4705978527       13.5571046622        4.1682363498
 Au        11.4728016788        1.0477368235        8.2889744104
 Au         7.2989572302        9.3884014081        4.1673660077
 Au        15.6428077515        9.3863571969        4.1696228115
 Au         3.1280914893       11.4726825384        6.2381923778
 Au        11.4716932188        7.2997399121        2.0837545996
 Au        11.4711229584       15.6423617146        2.0765317505
 Au        11.4701133051        3.1318027401        6.2391413234
 Au         7.3015320669       11.4735015672        2.0820569202
 Au        15.6439664773       11.4701012218        2.0805561907
 Au         5.2190374603        5.2177563375        6.2452404066
 Au        13.5568865156       13.5584765739        6.2425833348
 Au        13.5517339428        5.2177471563        6.2452720203
 Au         5.2139055290       13.5584775689        6.2425914012
 Au         5.2096362571        7.2998666114        8.2855342206
 Au        13.5581763592       15.6422888038        8.2883290921
 Au        13.5611816199        7.2998687996        8.2855314385
 Au         5.2125990182       15.6422886748        8.2883197901
 Au         7.2906221391        5.2009735621        8.3022847222
 Au        15.6423120062       13.5545175721        8.2909142997
 Au        15.6413755637        5.2063197345        8.2899401839
 Au         7.2981105526       13.5517027799        8.2890549976
 Au         7.3100264455        7.2995931453        6.2423440016
 Au        15.6451082532       15.6424612415        6.2371661165
 Au        15.6407024443        7.2997492169        6.2352863270
 Au         7.2995384675       15.6423668723        6.2391963040
 Au         5.2192719565        9.3817262733        6.2453266390
 Au        13.5514963038        9.3817364841        6.2453588441
 Au         9.3853995488        5.2306613172        6.2542046067
 Au         9.3854141686       13.5558305434        6.2408148046
 Au         5.2143221002       11.4696423197        8.2926960828
 Au        13.5564748800       11.4696299179        8.2926885260
 Au         9.3857325145        7.3026580615        8.3326661338
 Au         9.3853943813       15.6420488261        8.2882106730
 Au         7.2906289093        9.3982479431        8.3027509145
 Au        15.6412664005        9.3931974483        8.2898620155
 Au        11.4801661708        5.2009414161        8.3023393582
 Au        11.4726809877       13.5517025538        8.2890516233
 Au         7.3006818571       11.4675262930        6.2392985688
 Au        15.6426901663       11.4726875216        6.2381993487
 Au        11.4609179545        7.2995968241        6.2421822293
 Au        11.4712368004       15.6423674154        6.2392022380
 Au         9.3854139772        9.3857314932        2.0847778899
 Au         9.3854046220       11.4677122662        4.1760350799
 Au        11.4718256644        9.3884217612        4.1673373963
 Au        11.4692479500       11.4734908038        2.0820357437
 Au         9.3853990881        9.3697929693        6.2530855518
 Au         9.3854071488       11.4744496557        8.2905017344
 Au        11.4801603208        9.3982815093        8.3028101056
 Au        11.4701114807       11.4674950160        6.2393089548
  S         9.3694922404        7.2954247835       17.1345027934
  C         9.3778124364        7.2925045309       15.3845183914
  C         8.1550142981        7.2766780741       14.6530477910
  C        10.6028073553        7.2763617774       14.6590857939
  S         9.3846632312        7.3009190378       10.7973904575
  C         9.3829241990        7.3051895501       12.5473485699
  C        10.6056618202        7.3210778447       13.2788243957
  C         8.1578923755        7.3214294282       13.2728155329
  H         7.1982018320        7.2813268068       15.2158598289
  H        11.5571136163        7.2811340934       15.2256364569
  H        11.5624100515        7.3159789627       12.7159601604
  H         7.2034824269        7.3161469754       12.7063561950
 Au         1.0428276291        1.0425657088       25.8508596367
 Au         1.0428151573        3.1290753797       19.6419586152
 Au         3.1284509629        1.0449440395       19.6410351537
 Au         3.1268188598        3.1294304073       25.8513871472
 Au         1.0428436048        1.0400925213       21.6888660076
 Au         5.2158033127        1.0414479269       25.8513229009
 Au        13.5549905109        1.0414255829       25.8512921141
 Au         1.0428426996        5.2139161239       25.8541411689
 Au         1.0428266227       13.5570071901       25.8507796476
 Au         1.0428244463        3.1273394046       23.7629089263
 Au         5.2143486246        3.1298640709       19.6392389975
 Au        13.5565241491        3.1298926898       19.6392517293
 Au         1.0428126189        7.2999452436       19.6450916970
 Au         1.0428163845       15.6428307812       19.6396131008
 Au         3.1285481363        1.0426058553       23.7635409114
 Au         7.2981154763        1.0478269891       19.6428944395
 Au        15.6422834589        1.0450215025       19.6410385442
 Au         3.1295352859        5.2063326897       19.6420798110
 Au         3.1286822769       13.5546022993       19.6411539666
 Au         3.1280994472        3.1268514054       21.6937001992
 Au         7.3015314759        3.1260343983       25.8498990331
 Au        15.6439640986        3.1294274132       25.8514125156
 Au         3.1276123797        7.2997291346       25.8526181677
 Au         3.1281711566       15.6422962641       25.8522959990
 Au         1.0428475426        5.2172950102       21.6887021867
 Au         1.0428429254       13.5593390745       21.6887061930
 Au         5.2139107623        1.0410399349       21.6893423254
 Au        13.5568847439        1.0410132574       21.6893379704
 Au         5.2125743404        5.2159327737       25.8484585174
 Au        13.5549711857       13.5581285235       25.8515114310
 Au        13.5582482349        5.2159292263       25.8484720841
 Au         5.2158372310       13.5581125681       25.8515445910
 Au         1.0428505821        7.2996798642       23.7664038219
 Au         1.0428502842       15.6423623263       23.7635549027
 Au         5.2127568817        3.1279535505       23.7621436078
 Au        13.5579846032        3.1279795595       23.7621443417
 Au         5.2095763907        7.2996226922       19.6463783713
 Au        13.5581362579       15.6423390801       19.6436034363
 Au        13.5611209603        7.2996253611       19.6464346392
 Au         5.2125587576       15.6423414085       19.6436280064
 Au         3.1279764439        5.2131372424       23.7623334923
 Au         3.1285267839       13.5568285845       23.7636339469
 Au         7.3001842433        1.0423844609       23.7636921571
 Au        15.6422572038        1.0426049684       23.7635264853
 Au         7.2907332830        5.2013365060       19.6287639768
 Au        15.6420521673       13.5545262091       19.6411617214
 Au        15.6412519638        5.2062858614       19.6420824309
 Au         7.2979748238       13.5517434314       19.6429645602
 Au         3.1301234578        7.2997420394       21.6966986057
 Au         3.1256676566       15.6421878275       21.6948270140
 Au         7.3006686535        3.1320808194       21.6926391667
 Au        15.6426950868        3.1268297805       21.6937808888