ATOMS
H             0.00000000      0.00000000     -0.01586883            -0.00000240     -0.00001216     -0.70710678
H             0.00000000      0.00000000      0.74588125             0.00000240      0.00001216      0.70710678
