ATOMS
H             0.00000000      0.00000000     -0.01586883            -0.70644218     -0.02925076     -0.00915630
H             0.00000000      0.00000000      0.74588125            -0.70644218     -0.02925076     -0.00915630
