 DBCSR| CPU Multiplication driver                                           BLAS
 DBCSR| Multrec recursion limit                                              512
 DBCSR| Multiplication stack size                                           1000
 DBCSR| Maximum elements for images                                    UNLIMITED
 DBCSR| Multiplicative factor virtual images                                   1
 DBCSR| Use multiplication densification                                       T
 DBCSR| Multiplication size stacks                                             3
 DBCSR| Use memory pool for CPU allocation                                     F
 DBCSR| Number of 3D layers                                               SINGLE
 DBCSR| Use MPI memory allocation                                              F
 DBCSR| Use RMA algorithm                                                      F
 DBCSR| Use Communication thread                                               T
 DBCSR| Communication thread load                                             83
 DBCSR| MPI: My node id                                                        0
 DBCSR| MPI: Number of nodes                                                 576
 DBCSR| OMP: Current number of threads                                         2
 DBCSR| OMP: Max number of threads                                             2
 DBCSR| Split modifier for TAS multiplication algorithm                  1.0E+00


  **** **** ******  **  PROGRAM STARTED AT               2023-11-16 16:38:38.391
 ***** ** ***  *** **   PROGRAM STARTED ON                             nid001027
 **    ****   ******    PROGRAM STARTED BY                                cahart
 ***** **    ** ** **   PROGRAM PROCESS ID                                169251
  **** **  *******  **  PROGRAM STARTED IN /mnt/lustre/a2fs-work2/work/e05/e05/c
                                           ahart/postdoc/transport/cp2k-smeagol-
                                           examples/au-h2/cp2k-smeagol/transmiss
                                           ion_all/kpoints-3-3-20_omp-2_Parallel
                                           OverKNum-9_contour-single/kpoints-3-3
                                           -20_omp-2_ParallelOverKNum-9_contour-
                                           double/1.7

 CP2K| version string:                 CP2K version 2022.1 (Development Version)
 CP2K| source code revision number:                                  git:3a6d0d5
 CP2K| cp2kflags: omp libint fftw3 libxc elpa parallel mpi3 scalapack mkl       
 CP2K| is freely available from                            https://www.cp2k.org/
 CP2K| Program compiled at                          Fri  3 Nov 17:12:21 GMT 2023
 CP2K| Program compiled on                                                  ln01
 CP2K| Program compiled for                                                local
 CP2K| Data directory path    /work/e05/e05/cahart/smeagol/smgl/cp2k-private-ser
 CP2K| Input file name                                                4_1.7V.inp

 GLOBAL| Force Environment number                                              1
 GLOBAL| Basis set file name                                        BASIS_MOLOPT
 GLOBAL| Potential file name                                      GTH_POTENTIALS
 GLOBAL| MM Potential file name                                     MM_POTENTIAL
 GLOBAL| Coordinate file name                                             em.xyz
 GLOBAL| Method name                                                        CP2K
 GLOBAL| Project name                                                       1.7V
 GLOBAL| Run type                                                             MD
 GLOBAL| FFT library                                                       FFTW3
 GLOBAL| Diagonalization library                                            ELPA
 GLOBAL| Minimum number of eigenvectors for ELPA usage                        16
 GLOBAL| Orthonormality check for eigenvectors                          DISABLED
 GLOBAL| Matrix multiplication library                                 ScaLAPACK
 GLOBAL| All-to-all communication in single precision                          F
 GLOBAL| FFTs using library dependent lengths                                  T
 GLOBAL| Grid backend                                                       AUTO
 GLOBAL| Global print level                                               MEDIUM
 GLOBAL| MPI I/O enabled                                                       T
 GLOBAL| Total number of message passing processes                           576
 GLOBAL| Number of threads for this process                                    2
 GLOBAL| This output is from process                                           0
 GLOBAL| Stack size for threads created by OpenMP (OMP_STACKSIZE)        default
 GLOBAL| CPU model name                          AMD EPYC 7742 64-Core Processor
 GLOBAL| CPUID                                                              1002

 MEMORY| system memory details [Kb]
 MEMORY|                        rank 0           min           max       average
 MEMORY| MemTotal            263341712     263341448     263341976     263341888
 MEMORY| MemFree             237861828     237861828     242452044     241383658
 MEMORY| Buffers                     0             0             0             0
 MEMORY| Cached                5566328       1401728       5566328       1909688
 MEMORY| Slab                  3243240       2806776       3243240       2869874
 MEMORY| SReclaimable           141812        112656        141812        117467
 MEMORY| MemLikelyFree       243569968     243149756     244168688     243410814


 *** Fundamental physical constants (SI units) ***

 *** Literature: B. J. Mohr and B. N. Taylor,
 ***             CODATA recommended values of the fundamental physical
 ***             constants: 2006, Web Version 5.1
 ***             http://physics.nist.gov/constants

 Speed of light in vacuum [m/s]                             2.99792458000000E+08
 Magnetic constant or permeability of vacuum [N/A**2]       1.25663706143592E-06
 Electric constant or permittivity of vacuum [F/m]          8.85418781762039E-12
 Planck constant (h) [J*s]                                  6.62606896000000E-34
 Planck constant (h-bar) [J*s]                              1.05457162825177E-34
 Elementary charge [C]                                      1.60217648700000E-19
 Electron mass [kg]                                         9.10938215000000E-31
 Electron g factor [ ]                                     -2.00231930436220E+00
 Proton mass [kg]                                           1.67262163700000E-27
 Fine-structure constant                                    7.29735253760000E-03
 Rydberg constant [1/m]                                     1.09737315685270E+07
 Avogadro constant [1/mol]                                  6.02214179000000E+23
 Boltzmann constant [J/K]                                   1.38065040000000E-23
 Atomic mass unit [kg]                                      1.66053878200000E-27
 Bohr radius [m]                                            5.29177208590000E-11

 *** Conversion factors ***

 [u] -> [a.u.]                                              1.82288848426455E+03
 [Angstrom] -> [Bohr] = [a.u.]                              1.88972613288564E+00
 [a.u.] = [Bohr] -> [Angstrom]                              5.29177208590000E-01
 [a.u.] -> [s]                                              2.41888432650478E-17
 [a.u.] -> [fs]                                             2.41888432650478E-02
 [a.u.] -> [J]                                              4.35974393937059E-18
 [a.u.] -> [N]                                              8.23872205491840E-08
 [a.u.] -> [K]                                              3.15774647902944E+05
 [a.u.] -> [kJ/mol]                                         2.62549961709828E+03
 [a.u.] -> [kcal/mol]                                       6.27509468713739E+02
 [a.u.] -> [Pa]                                             2.94210107994716E+13
 [a.u.] -> [bar]                                            2.94210107994716E+08
 [a.u.] -> [atm]                                            2.90362800883016E+08
 [a.u.] -> [eV]                                             2.72113838565563E+01
 [a.u.] -> [Hz]                                             6.57968392072181E+15
 [a.u.] -> [1/cm] (wave numbers)                            2.19474631370540E+05
 [a.u./Bohr**2] -> [1/cm]                                   5.14048714338585E+03
 

 CELL_TOP| Volume [angstrom^3]:                                      3044.391638
 CELL_TOP| Vector a [angstrom     8.867     0.000     0.000   |a| =     8.867120
 CELL_TOP| Vector b [angstrom     0.000     8.867     0.000   |b| =     8.867120
 CELL_TOP| Vector c [angstrom     0.000     0.000    38.720   |c| =    38.720000
 CELL_TOP| Angle (b,c), alpha [degree]:                                90.000000
 CELL_TOP| Angle (a,c), beta  [degree]:                                90.000000
 CELL_TOP| Angle (a,b), gamma [degree]:                                90.000000
 CELL_TOP| Numerically orthorhombic:                                         YES
 CELL_TOP| Periodicity                                                       XYZ

 GENERATE|  Preliminary Number of Bonds generated:                             0
 GENERATE|  Achieved consistency in connectivity generation.

 CELL| Volume [angstrom^3]:                                          3044.391638
 CELL| Vector a [angstrom]:       8.867     0.000     0.000   |a| =     8.867120
 CELL| Vector b [angstrom]:       0.000     8.867     0.000   |b| =     8.867120
 CELL| Vector c [angstrom]:       0.000     0.000    38.720   |c| =    38.720000
 CELL| Angle (b,c), alpha [degree]:                                    90.000000
 CELL| Angle (a,c), beta  [degree]:                                    90.000000
 CELL| Angle (a,b), gamma [degree]:                                    90.000000
 CELL| Numerically orthorhombic:                                             YES
 CELL| Periodicity                                                           XYZ

 CELL_REF| Volume [angstrom^3]:                                      3044.391638
 CELL_REF| Vector a [angstrom     8.867     0.000     0.000   |a| =     8.867120
 CELL_REF| Vector b [angstrom     0.000     8.867     0.000   |b| =     8.867120
 CELL_REF| Vector c [angstrom     0.000     0.000    38.720   |c| =    38.720000
 CELL_REF| Angle (b,c), alpha [degree]:                                90.000000
 CELL_REF| Angle (a,c), beta  [degree]:                                90.000000
 CELL_REF| Angle (a,b), gamma [degree]:                                90.000000
 CELL_REF| Numerically orthorhombic:                                         YES
 CELL_REF| Periodicity                                                       XYZ

 *** WARNING in cryssym.F:165 :: Symmetry library SPGLIB not available ***


 *******************************************************************************
                                    Kpoints
 *******************************************************************************
 BRILLOUIN| K-point scheme                                        Monkhorst-Pack
 BRILLOUIN| K-Point grid                                             3    3    1
 BRILLOUIN| Accuracy in Symmetry determination                      0.100000E-07
 BRILLOUIN| K-Point point group symmetrization                               OFF
 BRILLOUIN| Wavefunction type                                            COMPLEX
 BRILLOUIN| Use full k-point grid     
 BRILLOUIN| List of Kpoints [2 Pi/Bohr]                                        9
 BRILLOUIN| Number           Weight            X              Y              Z
 BRILLOUIN|     1           0.11111       -0.33333       -0.33333        0.00000
 BRILLOUIN|     2           0.11111       -0.33333        0.00000        0.00000
 BRILLOUIN|     3           0.11111       -0.33333        0.33333        0.00000
 BRILLOUIN|     4           0.11111        0.00000       -0.33333        0.00000
 BRILLOUIN|     5           0.11111        0.00000        0.00000        0.00000
 BRILLOUIN|     6           0.11111        0.00000        0.33333        0.00000
 BRILLOUIN|     7           0.11111        0.33333       -0.33333        0.00000
 BRILLOUIN|     8           0.11111        0.33333        0.00000        0.00000
 BRILLOUIN|     9           0.11111        0.33333        0.33333        0.00000
 *******************************************************************************

 *******************************************************************************
 *******************************************************************************
 **                                                                           **
 **     #####                         ##              ##                      **
 **    ##   ##            ##          ##              ##                      **
 **   ##     ##                       ##            ######                    **
 **   ##     ##  ##   ##  ##   #####  ##  ##   ####   ##    #####    #####    **
 **   ##     ##  ##   ##  ##  ##      ## ##   ##      ##   ##   ##  ##   ##   **
 **   ##  ## ##  ##   ##  ##  ##      ####     ###    ##   ######   ######    **
 **    ##  ###   ##   ##  ##  ##      ## ##      ##   ##   ##       ##        **
 **     #######   #####   ##   #####  ##  ##  ####    ##    #####   ##        **
 **           ##                                                    ##        **
 **                                                                           **
 **                                                ... make the atoms dance   **
 **                                                                           **
 **            Copyright (C) by CP2K developers group (2000-2022)             **
 **                      J. Chem. Phys. 152, 194103 (2020)                    **
 **                                                                           **
 *******************************************************************************

 DFT| Spin restricted Kohn-Sham (RKS) calculation                            RKS
 DFT| Multiplicity                                                             2
 DFT| Number of spin states                                                    1
 DFT| Charge                                                                   0
 DFT| Self-interaction correction (SIC)                                       NO
 DFT| Cutoffs: density                                              1.000000E-10
 DFT|          gradient                                             1.000000E-10
 DFT|          tau                                                  1.000000E-10
 DFT|          cutoff_smoothing_range                               0.000000E+00
 DFT| XC density smoothing                                                  NONE
 DFT| XC derivatives                                                          PW

 FUNCTIONAL| PBE:
 FUNCTIONAL| J.P.Perdew, K.Burke, M.Ernzerhof, Phys. Rev. Letter, vol. 77, n 18,
 FUNCTIONAL|  pp. 3865-3868, (1996){spin unpolarized}                           


 QS| Method:                                                                 GPW
 QS| Density plane wave grid type                        NON-SPHERICAL FULLSPACE
 QS| Number of grid levels:                                                    4
 QS| Density cutoff [a.u.]:                                                300.0
 QS| Multi grid cutoff [a.u.]: 1) grid level                               300.0
 QS|                           2) grid level                               100.0
 QS|                           3) grid level                                33.3
 QS|                           4) grid level                                11.1
 QS| Grid level progression factor:                                          3.0
 QS| Relative density cutoff [a.u.]:                                        30.0
 QS| Interaction thresholds: eps_pgf_orb:                                1.0E-05
 QS|                         eps_filter_matrix:                          0.0E+00
 QS|                         eps_core_charge:                            1.0E-12
 QS|                         eps_rho_gspace:                             1.0E-10
 QS|                         eps_rho_rspace:                             1.0E-10
 QS|                         eps_gvg_rspace:                             1.0E-05
 QS|                         eps_ppl:                                    1.0E-02
 QS|                         eps_ppnl:                                   1.0E-07


 ATOMIC KIND INFORMATION

  1. Atomic kind: Au                                    Number of atoms:     111

     Orbital Basis Set                                         SZV-MOLOPT-SR-GTH

       Number of orbital shell sets:                                           1
       Number of orbital shells:                                               3
       Number of primitive Cartesian functions:                                5
       Number of Cartesian basis functions:                                   10
       Number of spherical basis functions:                                    9
       Norm type:                                                              2

       Normalised Cartesian orbitals:

                        Set   Shell   Orbital            Exponent    Coefficient

                          1       1    2s                2.950008       0.074626
                                                         1.563057      -0.007898
                                                         0.666664      -0.297688
                                                         0.251083       0.136809
                                                         0.081714       0.088198

                          1       2    3px               2.950008       0.148824
                                                         1.563057       0.025430
                                                         0.666664      -0.123003
                                                         0.251083       0.033648
                                                         0.081714       0.059008
                          1       2    3py               2.950008       0.148824
                                                         1.563057       0.025430
                                                         0.666664      -0.123003
                                                         0.251083       0.033648
                                                         0.081714       0.059008
                          1       2    3pz               2.950008       0.148824
                                                         1.563057       0.025430
                                                         0.666664      -0.123003
                                                         0.251083       0.033648
                                                         0.081714       0.059008

                          1       3    4dx2              2.950008      -0.139595
                                                         1.563057       1.319655
                                                         0.666664       0.377081
                                                         0.251083       0.046872
                                                         0.081714       0.001393
                          1       3    4dxy              2.950008      -0.241786
                                                         1.563057       2.285709
                                                         0.666664       0.653124
                                                         0.251083       0.081185
                                                         0.081714       0.002412
                          1       3    4dxz              2.950008      -0.241786
                                                         1.563057       2.285709
                                                         0.666664       0.653124
                                                         0.251083       0.081185
                                                         0.081714       0.002412
                          1       3    4dy2              2.950008      -0.139595
                                                         1.563057       1.319655
                                                         0.666664       0.377081
                                                         0.251083       0.046872
                                                         0.081714       0.001393
                          1       3    4dyz              2.950008      -0.241786
                                                         1.563057       2.285709
                                                         0.666664       0.653124
                                                         0.251083       0.081185
                                                         0.081714       0.002412
                          1       3    4dz2              2.950008      -0.139595
                                                         1.563057       1.319655
                                                         0.666664       0.377081
                                                         0.251083       0.046872
                                                         0.081714       0.001393

       Atomic covalent radius [Angstrom]:                                  1.340

       Atomic van der Waals radius [Angstrom]:                             1.660

     GTH Potential information for                                   GTH-PBE-q11

       Description:                       Goedecker-Teter-Hutter pseudopotential
                                           Goedecker et al., PRB 54, 1703 (1996)
                                          Hartwigsen et al., PRB 58, 3641 (1998)
                                                      Krack, TCA 114, 145 (2005)

       Gaussian exponent of the core charge distribution:               1.436369
       Electronic configuration (s p d ...):                           1   0  10

       Parameters of the local part of the GTH pseudopotential:

                          rloc        C1          C2          C3          C4
                        0.590000   10.517179

       Parameters of the non-local part of the GTH pseudopotential:

                   l      r(l)      h(i,j,l)

                   0    0.543847    5.786811   -2.250680
                                   -2.250680    2.905615
                   1    0.609173    4.284049   -4.071285
                                   -4.071285    4.817210
                   2    0.437309   -7.403281    3.010193
                                    3.010193   -3.413238

  2. Atomic kind: H                                     Number of atoms:       2

     Orbital Basis Set                                        DZVP-MOLOPT-SR-GTH

       Number of orbital shell sets:                                           1
       Number of orbital shells:                                               3
       Number of primitive Cartesian functions:                                5
       Number of Cartesian basis functions:                                    5
       Number of spherical basis functions:                                    5
       Norm type:                                                              2

       Normalised Cartesian orbitals:

                        Set   Shell   Orbital            Exponent    Coefficient

                          1       1    2s               10.068468      -0.133023
                                                         2.680223      -0.177618
                                                         0.791502      -0.258419
                                                         0.239116      -0.107525
                                                         0.082193      -0.014019

                          1       2    3s               10.068468       0.344673
                                                         2.680223       1.819821
                                                         0.791502      -0.999069
                                                         0.239116       0.017430
                                                         0.082193       0.082660

                          1       3    3px              10.068468       0.155326
                                                         2.680223       0.367157
                                                         0.791502       0.311480
                                                         0.239116       0.080105
                                                         0.082193       0.033440
                          1       3    3py              10.068468       0.155326
                                                         2.680223       0.367157
                                                         0.791502       0.311480
                                                         0.239116       0.080105
                                                         0.082193       0.033440
                          1       3    3pz              10.068468       0.155326
                                                         2.680223       0.367157
                                                         0.791502       0.311480
                                                         0.239116       0.080105
                                                         0.082193       0.033440

       Atomic covalent radius [Angstrom]:                                  0.320

       Atomic van der Waals radius [Angstrom]:                             1.090

     GTH Potential information for                                    GTH-PBE-q1

       Description:                       Goedecker-Teter-Hutter pseudopotential
                                           Goedecker et al., PRB 54, 1703 (1996)
                                          Hartwigsen et al., PRB 58, 3641 (1998)
                                                      Krack, TCA 114, 145 (2005)

       Gaussian exponent of the core charge distribution:              12.500000
       Electronic configuration (s p d ...):                                   1

       Parameters of the local part of the GTH pseudopotential:

                          rloc        C1          C2          C3          C4
                        0.200000   -4.178900    0.724463


 MOLECULE KIND INFORMATION


 All atoms are their own molecule, skipping detailed information


 TOTAL NUMBERS AND MAXIMUM NUMBERS

  Total number of            - Atomic kinds:                                   2
                             - Atoms:                                        113
                             - Shell sets:                                   113
                             - Shells:                                       339
                             - Primitive Cartesian functions:                565
                             - Cartesian basis functions:                   1120
                             - Spherical basis functions:                   1009

  Maximum angular momentum of- Orbital basis functions:                        2
                             - Local part of the GTH pseudopotential:          2
                             - Non-local part of the GTH pseudopotential:      4


 MODULE QUICKSTEP: ATOMIC COORDINATES IN ANGSTROM

   Atom Kind Element         X             Y             Z       Z(eff)     Mass
      1    1 Au   79      1.787000      1.281000      0.000000  11.0000 196.9666
      2    1 Au   79      0.309000      2.759000      2.090000  11.0000 196.9666
      3    1 Au   79      1.787000      1.281000      4.180000  11.0000 196.9666
      4    1 Au   79      0.309000      2.759000      6.270000  11.0000 196.9666
      5    1 Au   79      4.743000      1.281000      0.000000  11.0000 196.9666
      6    1 Au   79      3.265000      2.759000      2.090000  11.0000 196.9666
      7    1 Au   79      4.743000      1.281000      4.180000  11.0000 196.9666
      8    1 Au   79      3.265000      2.759000      6.270000  11.0000 196.9666
      9    1 Au   79      7.699000      1.281000      0.000000  11.0000 196.9666
     10    1 Au   79      6.221000      2.759000      2.090000  11.0000 196.9666
     11    1 Au   79      7.699000      1.281000      4.180000  11.0000 196.9666
     12    1 Au   79      6.221000      2.759000      6.270000  11.0000 196.9666
     13    1 Au   79      1.787000      4.236000      0.000000  11.0000 196.9666
     14    1 Au   79      0.309000      5.714000      2.090000  11.0000 196.9666
     15    1 Au   79      1.787000      4.236000      4.180000  11.0000 196.9666
     16    1 Au   79      0.309000      5.714000      6.270000  11.0000 196.9666
     17    1 Au   79      4.743000      4.236000      0.000000  11.0000 196.9666
     18    1 Au   79      3.265000      5.714000      2.090000  11.0000 196.9666
     19    1 Au   79      4.743000      4.236000      4.180000  11.0000 196.9666
     20    1 Au   79      3.265000      5.714000      6.270000  11.0000 196.9666
     21    1 Au   79      7.699000      4.236000      0.000000  11.0000 196.9666
     22    1 Au   79      6.221000      5.714000      2.090000  11.0000 196.9666
     23    1 Au   79      7.699000      4.236000      4.180000  11.0000 196.9666
     24    1 Au   79      6.221000      5.714000      6.270000  11.0000 196.9666
     25    1 Au   79      1.787000      7.192000      0.000000  11.0000 196.9666
     26    1 Au   79      0.309000      8.670000      2.090000  11.0000 196.9666
     27    1 Au   79      1.787000      7.192000      4.180000  11.0000 196.9666
     28    1 Au   79      0.309000      8.670000      6.270000  11.0000 196.9666
     29    1 Au   79      4.743000      7.192000      0.000000  11.0000 196.9666
     30    1 Au   79      3.265000      8.670000      2.090000  11.0000 196.9666
     31    1 Au   79      4.743000      7.192000      4.180000  11.0000 196.9666
     32    1 Au   79      3.265000      8.670000      6.270000  11.0000 196.9666
     33    1 Au   79      7.699000      7.192000      0.000000  11.0000 196.9666
     34    1 Au   79      6.221000      8.670000      2.090000  11.0000 196.9666
     35    1 Au   79      7.699000      7.192000      4.180000  11.0000 196.9666
     36    1 Au   79      6.221000      8.670000      6.270000  11.0000 196.9666
     37    1 Au   79      1.787000      1.281000      8.360000  11.0000 196.9666
     38    1 Au   79      1.787000      4.236000      8.360000  11.0000 196.9666
     39    1 Au   79      1.787000      7.192000      8.360000  11.0000 196.9666
     40    1 Au   79      4.743000      1.281000      8.360000  11.0000 196.9666
     41    1 Au   79      4.743000      4.236000      8.360000  11.0000 196.9666
     42    1 Au   79      4.743000      7.192000      8.360000  11.0000 196.9666
     43    1 Au   79      7.699000      1.281000      8.360000  11.0000 196.9666
     44    1 Au   79      7.699000      4.236000      8.360000  11.0000 196.9666
     45    1 Au   79      7.699000      7.192000      8.360000  11.0000 196.9666
     46    1 Au   79      0.309000      2.759000     10.450000  11.0000 196.9666
     47    1 Au   79      0.309000      5.714000     10.450000  11.0000 196.9666
     48    1 Au   79      0.309000      8.670000     10.450000  11.0000 196.9666
     49    1 Au   79      3.265000      2.759000     10.450000  11.0000 196.9666
     50    1 Au   79      3.265000      5.714000     10.450000  11.0000 196.9666
     51    1 Au   79      3.265000      8.670000     10.450000  11.0000 196.9666
     52    1 Au   79      6.221000      2.759000     10.450000  11.0000 196.9666
     53    1 Au   79      6.221000      5.714000     10.450000  11.0000 196.9666
     54    1 Au   79      6.221000      8.670000     10.450000  11.0000 196.9666
     55    1 Au   79      1.767000      4.215000     12.446000  11.0000 196.9666
     56    1 Au   79      1.766000      7.214000     12.446000  11.0000 196.9666
     57    1 Au   79      4.765000      4.213000     12.446000  11.0000 196.9666
     58    1 Au   79      4.767000      7.214000     12.445000  11.0000 196.9666
     59    1 Au   79      3.268000      5.717000     14.396000  11.0000 196.9666
     60    1 Au   79      3.267000      5.744000     17.050000  11.0000 196.9666
     61    2 H     1      3.254000      5.720000     18.927000   1.0000   1.0079
     62    2 H     1      3.260000      5.726000     19.796000   1.0000   1.0079
     63    1 Au   79      3.233000      5.712000     21.672000  11.0000 196.9666
     64    1 Au   79      3.264000      5.714000     24.326000  11.0000 196.9666
     65    1 Au   79      1.765000      4.213000     26.275000  11.0000 196.9666
     66    1 Au   79      1.765000      7.214000     26.274000  11.0000 196.9666
     67    1 Au   79      4.765000      4.214000     26.274000  11.0000 196.9666
     68    1 Au   79      4.765000      7.214000     26.275000  11.0000 196.9666
     69    1 Au   79      0.309000      2.759000     28.270000  11.0000 196.9666
     70    1 Au   79      0.309000      5.714000     28.270000  11.0000 196.9666
     71    1 Au   79      0.309000      8.670000     28.270000  11.0000 196.9666
     72    1 Au   79      3.265000      2.759000     28.270000  11.0000 196.9666
     73    1 Au   79      3.265000      5.714000     28.270000  11.0000 196.9666
     74    1 Au   79      3.265000      8.670000     28.270000  11.0000 196.9666
     75    1 Au   79      6.221000      2.759000     28.270000  11.0000 196.9666
     76    1 Au   79      6.221000      5.714000     28.270000  11.0000 196.9666
     77    1 Au   79      6.221000      8.670000     28.270000  11.0000 196.9666
     78    1 Au   79      1.787000      1.281000     30.360000  11.0000 196.9666
     79    1 Au   79      0.309000      2.759000     32.450000  11.0000 196.9666
     80    1 Au   79      1.787000      1.281000     34.540000  11.0000 196.9666
     81    1 Au   79      0.309000      2.759000     36.630000  11.0000 196.9666
     82    1 Au   79      4.743000      1.281000     30.360000  11.0000 196.9666
     83    1 Au   79      3.265000      2.759000     32.450000  11.0000 196.9666
     84    1 Au   79      4.743000      1.281000     34.540000  11.0000 196.9666
     85    1 Au   79      3.265000      2.759000     36.630000  11.0000 196.9666
     86    1 Au   79      7.699000      1.281000     30.360000  11.0000 196.9666
     87    1 Au   79      6.221000      2.759000     32.450000  11.0000 196.9666
     88    1 Au   79      7.699000      1.281000     34.540000  11.0000 196.9666
     89    1 Au   79      6.221000      2.759000     36.630000  11.0000 196.9666
     90    1 Au   79      1.787000      4.236000     30.360000  11.0000 196.9666
     91    1 Au   79      0.309000      5.714000     32.450000  11.0000 196.9666
     92    1 Au   79      1.787000      4.236000     34.540000  11.0000 196.9666
     93    1 Au   79      0.309000      5.714000     36.630000  11.0000 196.9666
     94    1 Au   79      4.743000      4.236000     30.360000  11.0000 196.9666
     95    1 Au   79      3.265000      5.714000     32.450000  11.0000 196.9666
     96    1 Au   79      4.743000      4.236000     34.540000  11.0000 196.9666
     97    1 Au   79      3.265000      5.714000     36.630000  11.0000 196.9666
     98    1 Au   79      7.699000      4.236000     30.360000  11.0000 196.9666
     99    1 Au   79      6.221000      5.714000     32.450000  11.0000 196.9666
    100    1 Au   79      7.699000      4.236000     34.540000  11.0000 196.9666
    101    1 Au   79      6.221000      5.714000     36.630000  11.0000 196.9666
    102    1 Au   79      1.787000      7.192000     30.360000  11.0000 196.9666
    103    1 Au   79      0.309000      8.670000     32.450000  11.0000 196.9666
    104    1 Au   79      1.787000      7.192000     34.540000  11.0000 196.9666
    105    1 Au   79      0.309000      8.670000     36.630000  11.0000 196.9666
    106    1 Au   79      4.743000      7.192000     30.360000  11.0000 196.9666
    107    1 Au   79      3.265000      8.670000     32.450000  11.0000 196.9666
    108    1 Au   79      4.743000      7.192000     34.540000  11.0000 196.9666
    109    1 Au   79      3.265000      8.670000     36.630000  11.0000 196.9666
    110    1 Au   79      7.699000      7.192000     30.360000  11.0000 196.9666
    111    1 Au   79      6.221000      8.670000     32.450000  11.0000 196.9666
    112    1 Au   79      7.699000      7.192000     34.540000  11.0000 196.9666
    113    1 Au   79      6.221000      8.670000     36.630000  11.0000 196.9666



 SCF PARAMETERS         Density guess:                                   RESTART
                        --------------------------------------------------------
                        max_scf:                                             500
                        max_scf_history:                                       0
                        max_diis:                                              4
                        --------------------------------------------------------
                        eps_scf:                                        1.00E-06
                        eps_scf_history:                                0.00E+00
                        eps_diis:                                       1.00E-01
                        eps_eigval:                                     1.00E-05
                        --------------------------------------------------------
                        level_shift [a.u.]:                             0.000000
                        added MOs                                       100    0
                        --------------------------------------------------------
                        Mixing method:                            BROYDEN_MIXING
                                                charge density mixing in g-space
                        --------------------------------------------------------
                        Smear method:                                FERMI_DIRAC
                        Electronic temperature [K]:                        300.0
                        Electronic temperature [a.u.]:                  9.50E-04
                        Accuracy threshold:                             1.00E-10
                        --------------------------------------------------------
                        No outer SCF

 PW_GRID| Information for grid number                                          1
 PW_GRID| Grid distributed over                                   576 processors
 PW_GRID| Real space group dimensions                                    24   24
 PW_GRID| the grid is blocked:                                               YES
 PW_GRID| Cutoff [a.u.]                                                    300.0
 PW_GRID| spherical cutoff:                                                   NO
 PW_GRID|   Bounds   1            -66      65                Points:         132
 PW_GRID|   Bounds   2            -66      65                Points:         132
 PW_GRID|   Bounds   3           -288     287                Points:         576
 PW_GRID| Volume element (a.u.^3)  0.2047E-02     Volume (a.u.^3)     20544.5734
 PW_GRID| Grid span                                                    FULLSPACE
 PW_GRID|   Distribution                         Average         Max         Min
 PW_GRID|   G-Vectors                            17424.0       19008       15840
 PW_GRID|   G-Rays                                 132.0         144         120
 PW_GRID|   Real Space Points                    17424.0       19008       15840

 PW_GRID| Information for grid number                                          2
 PW_GRID| Number of the reference grid                                         1
 PW_GRID| Grid distributed over                                   576 processors
 PW_GRID| Real space group dimensions                                    24   24
 PW_GRID| the grid is blocked:                                                NO
 PW_GRID| Cutoff [a.u.]                                                    100.0
 PW_GRID| spherical cutoff:                                                   NO
 PW_GRID|   Bounds   1            -37      37                Points:          75
 PW_GRID|   Bounds   2            -37      37                Points:          75
 PW_GRID|   Bounds   3           -165     164                Points:         330
 PW_GRID| Volume element (a.u.^3)  0.1107E-01     Volume (a.u.^3)     20544.5734
 PW_GRID| Grid span                                                    FULLSPACE
 PW_GRID|   Distribution                         Average         Max         Min
 PW_GRID|   G-Vectors                             3222.7       10800           0
 PW_GRID|   G-Rays                                  43.0         144           0
 PW_GRID|   Real Space Points                     3222.7        5280        2970

 PW_GRID| Information for grid number                                          3
 PW_GRID| Number of the reference grid                                         1
 PW_GRID| Grid distributed over                                   576 processors
 PW_GRID| Real space group dimensions                                    24   24
 PW_GRID| the grid is blocked:                                                NO
 PW_GRID| Cutoff [a.u.]                                                     33.3
 PW_GRID| spherical cutoff:                                                   NO
 PW_GRID|   Bounds   1            -22      21                Points:          44
 PW_GRID|   Bounds   2            -22      21                Points:          44
 PW_GRID|   Bounds   3            -96      95                Points:         192
 PW_GRID| Volume element (a.u.^3)  0.5527E-01     Volume (a.u.^3)     20544.5734
 PW_GRID| Grid span                                                    FULLSPACE
 PW_GRID|   Distribution                         Average         Max         Min
 PW_GRID|   G-Vectors                              645.3        6336           0
 PW_GRID|   G-Rays                                  14.7         144           0
 PW_GRID|   Real Space Points                      645.3         768         192

 PW_GRID| Information for grid number                                          4
 PW_GRID| Number of the reference grid                                         1
 PW_GRID| Grid distributed over                                   576 processors
 PW_GRID| Real space group dimensions                                    24   24
 PW_GRID| the grid is blocked:                                                NO
 PW_GRID| Cutoff [a.u.]                                                     11.1
 PW_GRID| spherical cutoff:                                                   NO
 PW_GRID|   Bounds   1            -12      12                Points:          25
 PW_GRID|   Bounds   2            -12      12                Points:          25
 PW_GRID|   Bounds   3            -55      54                Points:         110
 PW_GRID| Volume element (a.u.^3)  0.2988         Volume (a.u.^3)     20544.5734
 PW_GRID| Grid span                                                    FULLSPACE
 PW_GRID|   Distribution                         Average         Max         Min
 PW_GRID|   G-Vectors                              119.4        3600           0
 PW_GRID|   G-Rays                                   4.8         144           0
 PW_GRID|   Real Space Points                      119.4         440         110

 POISSON| Solver                                                        PERIODIC
 POISSON| Periodicity                                                        XYZ

 RS_GRID| Information for grid number                                          1
 RS_GRID|   Bounds   1            -66      65                Points:         132
 RS_GRID|   Bounds   2            -66      65                Points:         132
 RS_GRID|   Bounds   3           -288     287                Points:         576
 RS_GRID| Real space distribution over                                 12 groups
 RS_GRID| Real space distribution along direction                              2
 RS_GRID| Border size                                                         35
 RS_GRID| Real space distribution over                                 48 groups
 RS_GRID| Real space distribution along direction                              3
 RS_GRID| Border size                                                         35
 RS_GRID|   Distribution                         Average         Max         Min
 RS_GRID|   Planes                                  81.0          81          81
 RS_GRID|   Distribution                         Average         Max         Min
 RS_GRID|   Planes                                  82.0          82          82

 RS_GRID| Information for grid number                                          2
 RS_GRID|   Bounds   1            -37      37                Points:          75
 RS_GRID|   Bounds   2            -37      37                Points:          75
 RS_GRID|   Bounds   3           -165     164                Points:         330
 RS_GRID| Real space distribution over                                 12 groups
 RS_GRID| Real space distribution along direction                              2
 RS_GRID| Border size                                                         24
 RS_GRID| Real space distribution over                                 48 groups
 RS_GRID| Real space distribution along direction                              3
 RS_GRID| Border size                                                         24
 RS_GRID|   Distribution                         Average         Max         Min
 RS_GRID|   Planes                                  54.2          55          54
 RS_GRID|   Distribution                         Average         Max         Min
 RS_GRID|   Planes                                  54.9          55          54

 RS_GRID| Information for grid number                                          3
 RS_GRID|   Bounds   1            -22      21                Points:          44
 RS_GRID|   Bounds   2            -22      21                Points:          44
 RS_GRID|   Bounds   3            -96      95                Points:         192
 RS_GRID| Real space fully replicated
 RS_GRID| Group size                                                           1

 RS_GRID| Information for grid number                                          4
 RS_GRID|   Bounds   1            -12      12                Points:          25
 RS_GRID|   Bounds   2            -12      12                Points:          25
 RS_GRID|   Bounds   3            -55      54                Points:         110
 RS_GRID| Real space fully replicated
 RS_GRID| Group size                                                           1

 KPOINTS| Number of kpoint groups                                              1
 KPOINTS| Size of each kpoint group                                          576
 KPOINTS| Number of kpoints per group                                          9

 MD_PAR| Molecular dynamics protocol (MD input parameters)
 MD_PAR| Ensemble type                                                       NVE
 MD_PAR| Number of time steps                                                  0
 MD_PAR| Time step [fs]                                                 0.500000
 MD_PAR| Temperature [K]                                                0.000000
 MD_PAR| Temperature tolerance [K]                                      0.000000
 MD_PAR| Constraints activated
 MD_PAR| Tolerance for shake                                            0.000001
 MD_PAR| Print MD information every                                    1 step(s)
 MD_PAR| File type   Print frequency [steps]                          File names
 MD_PAR| Coordinates          1                                   1.7V-pos-1.xyz
 MD_PAR| Velocities           1                                   1.7V-vel-1.xyz
 MD_PAR| Energies             1                                      1.7V-1.ener
 MD_PAR| Dump                20                                   1.7V-1.restart

 ROT| Rotational analysis information
 ROT| Principal axes and moments of inertia [a.u.]
 ROT|                           1                   2                   3
 ROT| Eigenvalues      1.67160257134E+09   2.60885103588E+10   2.62353210267E+10
 ROT|      x             -0.008051021613     -0.707622635902     -0.706544680972
 ROT|      y              0.008039094341      0.706498944920     -0.707668434925
 ROT|      z              0.999935274912     -0.011377433211      0.000000606853
 ROT| Number of rotovibrational vectors                                        6

 DOF| Calculation of degrees of freedom
 DOF| Number of atoms                                                        113
 DOF| Number of intramolecular constraints                                   321
 DOF| Number of intermolecular constraints                                     0
 DOF| Invariants (translations + rotations)                                    3
 DOF| Degrees of freedom                                                      15

 DOF| Restraints information
 DOF| Number of intramolecular restraints                                      0
 DOF| Number of intermolecular restraints                                      0

 MD_VEL| Velocities initialization
 MD_VEL| Initial temperature [K]                                        0.000000
 MD_VEL| COM velocity             0.0000000000     0.0000000000     0.0000000000

 Number of electrons:                                                       1223
 Number of occupied orbitals:                                                612
 Number of molecular orbitals:                                               712

 Number of orbital functions:                                               1009
 Number of independent orbital functions:                                   1009

 Extrapolation method: initial_guess


 SCF WAVEFUNCTION OPTIMIZATION

  Step     Update method      Time    Convergence         Total energy    Change
  ------------------------------------------------------------------------------
     1 NoMix/SMGL  0.30E+00   45.8     0.27262012     -3690.6432614900 -3.69E+03
     2 Broy./SMGL  0.30E+00    5.0     9.65758587     -3691.8957990457 -1.25E+00
     3 Broy./SMGL  0.30E+00    4.9     9.66539500     -3784.5878699081 -9.27E+01
     4 Broy./SMGL  0.30E+00    4.8     0.50525905     -3690.3262078916  9.43E+01
     5 Broy./SMGL  0.30E+00    4.9     0.15981111     -3684.9615865545  5.36E+00
     6 Broy./SMGL  0.30E+00    4.9     0.06716461     -3689.5343147194 -4.57E+00
     7 Broy./SMGL  0.30E+00    4.9     0.02476161     -3687.7457784871  1.79E+00
     8 Broy./SMGL  0.30E+00    4.9     0.01223780     -3688.4947360797 -7.49E-01
     9 Broy./SMGL  0.30E+00    4.9     0.01971711     -3688.9638778225 -4.69E-01
    10 Broy./SMGL  0.30E+00    4.9     0.02374648     -3689.0170968277 -5.32E-02
    11 Broy./SMGL  0.30E+00    4.9     0.02343902     -3689.1071519609 -9.01E-02
    12 Broy./SMGL  0.30E+00    4.9     0.05163054     -3689.2045267643 -9.74E-02
    13 Broy./SMGL  0.30E+00    4.9     0.04856235     -3691.1584502719 -1.95E+00
    14 Broy./SMGL  0.30E+00    4.9     0.28058837     -3690.4865596929  6.72E-01
    15 Broy./SMGL  0.30E+00    4.9     0.27529525     -3690.6818327373 -1.95E-01
    16 Broy./SMGL  0.30E+00    4.9     0.02523976     -3690.6313600338  5.05E-02
    17 Broy./SMGL  0.30E+00    4.9     0.00680020     -3690.6110021860  2.04E-02
    18 Broy./SMGL  0.30E+00    4.9     0.00504861     -3690.6081869954  2.82E-03
    19 Broy./SMGL  0.30E+00    4.9     0.01520982     -3690.6026624396  5.52E-03
    20 Broy./SMGL  0.30E+00    4.9     0.02414850     -3690.6052190730 -2.56E-03
    21 Broy./SMGL  0.30E+00    4.9     0.00880882     -3690.6046499134  5.69E-04
    22 Broy./SMGL  0.30E+00    4.9     0.00224620     -3690.6015627244  3.09E-03
    23 Broy./SMGL  0.30E+00    4.9     0.00523985     -3690.6006278891  9.35E-04
    24 Broy./SMGL  0.30E+00    4.9     0.00472041     -3690.5996012659  1.03E-03
    25 Broy./SMGL  0.30E+00    4.9     0.00036221     -3690.5992055233  3.96E-04
    26 Broy./SMGL  0.30E+00    4.9     0.00115755     -3690.5993017789 -9.63E-05
    27 Broy./SMGL  0.30E+00    4.9     0.01429226     -3690.5990327786  2.69E-04
    28 Broy./SMGL  0.30E+00    4.9     0.00943089     -3690.5989333776  9.94E-05
    29 Broy./SMGL  0.30E+00    4.9     0.00574376     -3690.5991982367 -2.65E-04
    30 Broy./SMGL  0.30E+00    4.9     0.00149308     -3690.5989766506  2.22E-04
    31 Broy./SMGL  0.30E+00    4.9     0.00025608     -3690.5992024152 -2.26E-04
    32 Broy./SMGL  0.30E+00    4.9     0.00100497     -3690.5992707321 -6.83E-05
    33 Broy./SMGL  0.30E+00    4.9     0.00056063     -3690.5993910491 -1.20E-04
    34 Broy./SMGL  0.30E+00    4.9     0.00066881     -3690.5994482131 -5.72E-05
    35 Broy./SMGL  0.30E+00    4.9     0.00022870     -3690.5994528557 -4.64E-06
    36 Broy./SMGL  0.30E+00    4.9     0.00156726     -3690.5994916728 -3.88E-05
    37 Broy./SMGL  0.30E+00    4.9     0.00035752     -3690.5994535083  3.82E-05
    38 Broy./SMGL  0.30E+00    4.9     0.00049582     -3690.5994167839  3.67E-05
    39 Broy./SMGL  0.30E+00    4.9     0.00098940     -3690.5994403055 -2.35E-05
    40 Broy./SMGL  0.30E+00    4.9     0.00051965     -3690.5994536693 -1.34E-05
    41 Broy./SMGL  0.30E+00    4.9     0.00013966     -3690.5994748362 -2.12E-05
    42 Broy./SMGL  0.30E+00    4.9     0.00001698     -3690.5994640619  1.08E-05
    43 Broy./SMGL  0.30E+00    4.9     0.00034486     -3690.5994600595  4.00E-06
    44 Broy./SMGL  0.30E+00    4.9     0.00012451     -3690.5994637779 -3.72E-06
    45 Broy./SMGL  0.30E+00    4.9     0.00011026     -3690.5994659719 -2.19E-06
    46 Broy./SMGL  0.30E+00    4.9     0.00008910     -3690.5994679250 -1.95E-06
    47 Broy./SMGL  0.30E+00    4.9     0.00025388     -3690.5994663514  1.57E-06
    48 Broy./SMGL  0.30E+00    4.9     0.00003788     -3690.5994820633 -1.57E-05
    49 Broy./SMGL  0.30E+00    4.9     0.00015416     -3690.5994778531  4.21E-06
    50 Broy./SMGL  0.30E+00    4.9     0.00010814     -3690.5994684163  9.44E-06
    51 Broy./SMGL  0.30E+00    4.9     0.00002813     -3690.5994609248  7.49E-06
    52 Broy./SMGL  0.30E+00    5.1     0.00011170     -3690.5994707191 -9.79E-06
    53 Broy./SMGL  0.30E+00    4.9     0.00059364     -3690.5994670318  3.69E-06
    54 Broy./SMGL  0.30E+00    4.9     0.00051734     -3690.5994525910  1.44E-05
    55 Broy./SMGL  0.30E+00    4.9     0.00125067     -3690.5994503416  2.25E-06
    56 Broy./SMGL  0.30E+00    4.9     0.00031037     -3690.5994682763 -1.79E-05
    57 Broy./SMGL  0.30E+00    4.9     0.00029201     -3690.5994540833  1.42E-05
    58 Broy./SMGL  0.30E+00    4.9     0.00020616     -3690.5994747644 -2.07E-05
    59 Broy./SMGL  0.30E+00    4.9     0.00004734     -3690.5994544879  2.03E-05
    60 Broy./SMGL  0.30E+00    4.9     0.00012733     -3690.5994658206 -1.13E-05
    61 Broy./SMGL  0.30E+00    4.9     0.00009919     -3690.5994585283  7.29E-06
    62 Broy./SMGL  0.30E+00    4.9     0.00010360     -3690.5994648960 -6.37E-06
    63 Broy./SMGL  0.30E+00    4.9     0.00002897     -3690.5994632111  1.68E-06
    64 Broy./SMGL  0.30E+00    4.9     0.00008414     -3690.5994632687 -5.77E-08
    65 Broy./SMGL  0.30E+00    4.9     0.00007354     -3690.5994630409  2.28E-07
    66 Broy./SMGL  0.30E+00    4.9     0.00007603     -3690.5994630909 -5.01E-08
    67 Broy./SMGL  0.30E+00    4.9     0.00003954     -3690.5994649942 -1.90E-06
    68 Broy./SMGL  0.30E+00    4.9     0.00023570     -3690.5994697210 -4.73E-06
    69 Broy./SMGL  0.30E+00    4.9     0.00022420     -3690.5994575831  1.21E-05
    70 Broy./SMGL  0.30E+00    4.9     0.00006524     -3690.5994741835 -1.66E-05
    71 Broy./SMGL  0.30E+00    4.9     0.00029998     -3690.5994711816  3.00E-06
    72 Broy./SMGL  0.30E+00    4.9     0.00023117     -3690.5994713201 -1.39E-07
    73 Broy./SMGL  0.30E+00    4.9     0.00003028     -3690.5994630009  8.32E-06
    74 Broy./SMGL  0.30E+00    4.9     0.00008657     -3690.5994609061  2.09E-06
    75 Broy./SMGL  0.30E+00    4.9     0.00004743     -3690.5994634074 -2.50E-06
    76 Broy./SMGL  0.30E+00    4.9     0.00010944     -3690.5994640600 -6.53E-07
    77 Broy./SMGL  0.30E+00    4.9     0.00005105     -3690.5994669512 -2.89E-06
    78 Broy./SMGL  0.30E+00    4.9     0.00007597     -3690.5994689489 -2.00E-06
    79 Broy./SMGL  0.30E+00    4.9     0.00005135     -3690.5994696268 -6.78E-07
    80 Broy./SMGL  0.30E+00    4.9     0.00009852     -3690.5994704847 -8.58E-07
    81 Broy./SMGL  0.30E+00    4.9     0.00013056     -3690.5994698064  6.78E-07
    82 Broy./SMGL  0.30E+00    4.9     0.00000981     -3690.5994706213 -8.15E-07
    83 Broy./SMGL  0.30E+00    4.9     0.00001753     -3690.5994688914  1.73E-06
    84 Broy./SMGL  0.30E+00    4.9     0.00021382     -3690.5994665915  2.30E-06
    85 Broy./SMGL  0.30E+00    4.9     0.00004524     -3690.5994690977 -2.51E-06
    86 Broy./SMGL  0.30E+00    4.9     0.00031543     -3690.5994723255 -3.23E-06
    87 Broy./SMGL  0.30E+00    4.9     0.00011893     -3690.5994683164  4.01E-06
    88 Broy./SMGL  0.30E+00    4.9     0.00005737     -3690.5994659659  2.35E-06
    89 Broy./SMGL  0.30E+00    4.9     0.00017226     -3690.5994748608 -8.89E-06
    90 Broy./SMGL  0.30E+00    4.9     0.00027689     -3690.5994739407  9.20E-07
    91 Broy./SMGL  0.30E+00    4.9     0.00033094     -3690.5994692147  4.73E-06
    92 Broy./SMGL  0.30E+00    4.9     0.00035279     -3690.5994673200  1.89E-06
    93 Broy./SMGL  0.30E+00    4.9     0.00023835     -3690.5994687822 -1.46E-06
    94 Broy./SMGL  0.30E+00    4.9     0.00006178     -3690.5994757917 -7.01E-06
    95 Broy./SMGL  0.30E+00    4.9     0.00019621     -3690.5994653715  1.04E-05
    96 Broy./SMGL  0.30E+00    4.9     0.00005441     -3690.5994699064 -4.53E-06
    97 Broy./SMGL  0.30E+00    4.9     0.00008530     -3690.5994685022  1.40E-06
    98 Broy./SMGL  0.30E+00    4.9     0.00002780     -3690.5994701308 -1.63E-06
    99 Broy./SMGL  0.30E+00    4.9     0.00002366     -3690.5994671463  2.98E-06
   100 Broy./SMGL  0.30E+00    4.9     0.00001299     -3690.5994673794 -2.33E-07
   101 Broy./SMGL  0.30E+00    4.9     0.00003322     -3690.5994688774 -1.50E-06
   102 Broy./SMGL  0.30E+00    4.9     0.00018371     -3690.5994677643  1.11E-06
   103 Broy./SMGL  0.30E+00    4.9     0.00003654     -3690.5994633633  4.40E-06
   104 Broy./SMGL  0.30E+00    4.9     0.00002783     -3690.5994600024  3.36E-06
   105 Broy./SMGL  0.30E+00    4.9     0.00021720     -3690.5994603469 -3.44E-07
   106 Broy./SMGL  0.30E+00    4.9     0.00004842     -3690.5994615149 -1.17E-06
   107 Broy./SMGL  0.30E+00    4.9     0.00006258     -3690.5994726153 -1.11E-05
   108 Broy./SMGL  0.30E+00    4.9     0.00029085     -3690.5994660988  6.52E-06
   109 Broy./SMGL  0.30E+00    4.9     0.00016646     -3690.5994651718  9.27E-07
   110 Broy./SMGL  0.30E+00    4.9     0.00019106     -3690.5994619003  3.27E-06
   111 Broy./SMGL  0.30E+00    4.9     0.00045004     -3690.5994636863 -1.79E-06
   112 Broy./SMGL  0.30E+00    4.9     0.00083444     -3690.5994706444 -6.96E-06
   113 Broy./SMGL  0.30E+00    4.9     0.00027187     -3690.5994652785  5.37E-06
   114 Broy./SMGL  0.30E+00    4.9     0.00012596     -3690.5994663499 -1.07E-06
   115 Broy./SMGL  0.30E+00    4.9     0.00001208     -3690.5994727422 -6.39E-06
   116 Broy./SMGL  0.30E+00    4.9     0.00000809     -3690.5994698144  2.93E-06
   117 Broy./SMGL  0.30E+00    4.9     0.00002588     -3690.5994711094 -1.30E-06
   118 Broy./SMGL  0.30E+00    4.9     0.00008435     -3690.5994722735 -1.16E-06
   119 Broy./SMGL  0.30E+00    4.9     0.00003770     -3690.5994736310 -1.36E-06
   120 Broy./SMGL  0.30E+00    4.9     0.00007946     -3690.5994730590  5.72E-07
   121 Broy./SMGL  0.30E+00    4.9     0.00003549     -3690.5994707139  2.35E-06
   122 Broy./SMGL  0.30E+00    4.9     0.00004402     -3690.5994682499  2.46E-06
   123 Broy./SMGL  0.30E+00    4.9     0.00006118     -3690.5994655843  2.67E-06
   124 Broy./SMGL  0.30E+00    4.9     0.00005439     -3690.5994642307  1.35E-06
   125 Broy./SMGL  0.30E+00    4.9     0.00013303     -3690.5994667983 -2.57E-06
   126 Broy./SMGL  0.30E+00    4.9     0.00034917     -3690.5994697197 -2.92E-06
   127 Broy./SMGL  0.30E+00    4.9     0.00077382     -3690.5994677413  1.98E-06
   128 Broy./SMGL  0.30E+00    4.9     0.00093032     -3690.5994666094  1.13E-06
   129 Broy./SMGL  0.30E+00    4.9     0.00069925     -3690.5994734122 -6.80E-06
   130 Broy./SMGL  0.30E+00    4.9     0.00028952     -3690.5994628674  1.05E-05
   131 Broy./SMGL  0.30E+00    4.9     0.00011513     -3690.5994681739 -5.31E-06
   132 Broy./SMGL  0.30E+00    4.9     0.00011373     -3690.5994735014 -5.33E-06
   133 Broy./SMGL  0.30E+00    4.9     0.00033949     -3690.5994684465  5.05E-06
   134 Broy./SMGL  0.30E+00    4.9     0.00028293     -3690.5994696699 -1.22E-06
   135 Broy./SMGL  0.30E+00    4.9     0.00009194     -3690.5994714911 -1.82E-06
   136 Broy./SMGL  0.30E+00    4.9     0.00011117     -3690.5994675736  3.92E-06
   137 Broy./SMGL  0.30E+00    4.9     0.00003332     -3690.5994680536 -4.80E-07
   138 Broy./SMGL  0.30E+00    4.9     0.00002763     -3690.5994701667 -2.11E-06
   139 Broy./SMGL  0.30E+00    4.9     0.00005231     -3690.5994684589  1.71E-06
   140 Broy./SMGL  0.30E+00    4.9     0.00005183     -3690.5994688280 -3.69E-07
   141 Broy./SMGL  0.30E+00    4.9     0.00013478     -3690.5994702418 -1.41E-06
   142 Broy./SMGL  0.30E+00    4.9     0.00011583     -3690.5994697192  5.23E-07
   143 Broy./SMGL  0.30E+00    4.9     0.00009412     -3690.5994654991  4.22E-06
   144 Broy./SMGL  0.30E+00    4.9     0.00025946     -3690.5994728109 -7.31E-06
   145 Broy./SMGL  0.30E+00    4.9     0.00057822     -3690.5994662972  6.51E-06
   146 Broy./SMGL  0.30E+00    4.9     0.00110377     -3690.5994749993 -8.70E-06
   147 Broy./SMGL  0.30E+00    4.9     0.00185159     -3690.5994602163  1.48E-05
   148 Broy./SMGL  0.30E+00    4.9     0.00221186     -3690.5994713354 -1.11E-05
   149 Broy./SMGL  0.30E+00    4.9     0.00123519     -3690.5994605523  1.08E-05
   150 Broy./SMGL  0.30E+00    4.9     0.00033036     -3690.5994657434 -5.19E-06
   151 Broy./SMGL  0.30E+00    4.9     0.00040851     -3690.5994685141 -2.77E-06
   152 Broy./SMGL  0.30E+00    4.9     0.00032881     -3690.5994691875 -6.73E-07
   153 Broy./SMGL  0.30E+00    4.9     0.00016735     -3690.5994656833  3.50E-06
   154 Broy./SMGL  0.30E+00    4.9     0.00003368     -3690.5994703222 -4.64E-06
   155 Broy./SMGL  0.30E+00    4.9     0.00005916     -3690.5994681964  2.13E-06
   156 Broy./SMGL  0.30E+00    4.9     0.00011044     -3690.5994651466  3.05E-06
   157 Broy./SMGL  0.30E+00    4.9     0.00025636     -3690.5994656466 -5.00E-07
   158 Broy./SMGL  0.30E+00    4.9     0.00034401     -3690.5994685745 -2.93E-06
   159 Broy./SMGL  0.30E+00    4.9     0.00024272     -3690.5994671882  1.39E-06
   160 Broy./SMGL  0.30E+00    4.9     0.00006787     -3690.5994666310  5.57E-07
   161 Broy./SMGL  0.30E+00    4.9     0.00010255     -3690.5994670185 -3.87E-07
   162 Broy./SMGL  0.30E+00    4.9     0.00009470     -3690.5994681849 -1.17E-06
   163 Broy./SMGL  0.30E+00    4.9     0.00006486     -3690.5994665345  1.65E-06
   164 Broy./SMGL  0.30E+00    4.9     0.00003645     -3690.5994670411 -5.07E-07
   165 Broy./SMGL  0.30E+00    4.9     0.00002434     -3690.5994690747 -2.03E-06
   166 Broy./SMGL  0.30E+00    4.9     0.00000937     -3690.5994669629  2.11E-06
   167 Broy./SMGL  0.30E+00    4.9     0.00005235     -3690.5994667064  2.56E-07
   168 Broy./SMGL  0.30E+00    4.9     0.00007476     -3690.5994662148  4.92E-07
   169 Broy./SMGL  0.30E+00    4.9     0.00012890     -3690.5994636431  2.57E-06
   170 Broy./SMGL  0.30E+00    4.9     0.00008344     -3690.5994640766 -4.33E-07
   171 Broy./SMGL  0.30E+00    4.9     0.00009634     -3690.5994651282 -1.05E-06
   172 Broy./SMGL  0.30E+00    4.9     0.00012742     -3690.5994655448 -4.17E-07
   173 Broy./SMGL  0.30E+00    4.9     0.00016096     -3690.5994656920 -1.47E-07
   174 Broy./SMGL  0.30E+00    4.9     0.00027926     -3690.5994687059 -3.01E-06
   175 Broy./SMGL  0.30E+00    4.9     0.00009257     -3690.5994694135 -7.08E-07
   176 Broy./SMGL  0.30E+00    4.9     0.00010343     -3690.5994686016  8.12E-07
   177 Broy./SMGL  0.30E+00    4.9     0.00031106     -3690.5994682862  3.15E-07
   178 Broy./SMGL  0.30E+00    5.1     0.00028831     -3690.5994671140  1.17E-06
   179 Broy./SMGL  0.30E+00    4.9     0.00006760     -3690.5994616816  5.43E-06
   180 Broy./SMGL  0.30E+00    4.9     0.00040251     -3690.5994706783 -9.00E-06
   181 Broy./SMGL  0.30E+00    4.9     0.00039816     -3690.5994650022  5.68E-06
   182 Broy./SMGL  0.30E+00    4.9     0.00013109     -3690.5994558830  9.12E-06
   183 Broy./SMGL  0.30E+00    4.9     0.00023609     -3690.5994764620 -2.06E-05
   184 Broy./SMGL  0.30E+00    4.9     0.00019674     -3690.5994652949  1.12E-05
   185 Broy./SMGL  0.30E+00    4.9     0.00014251     -3690.5994693561 -4.06E-06
   186 Broy./SMGL  0.30E+00    4.9     0.00012224     -3690.5994720298 -2.67E-06
   187 Broy./SMGL  0.30E+00    4.9     0.00012631     -3690.5994645330  7.50E-06
   188 Broy./SMGL  0.30E+00    5.5     0.00039529     -3690.5994723476 -7.81E-06
   189 Broy./SMGL  0.30E+00    4.9     0.00061880     -3690.5994738822 -1.53E-06
   190 Broy./SMGL  0.30E+00    4.9     0.00062389     -3690.5994637671  1.01E-05
   191 Broy./SMGL  0.30E+00    4.9     0.00039394     -3690.5994722074 -8.44E-06
   192 Broy./SMGL  0.30E+00    4.9     0.00038256     -3690.5994727762 -5.69E-07
   193 Broy./SMGL  0.30E+00    4.9     0.00048696     -3690.5994640342  8.74E-06
   194 Broy./SMGL  0.30E+00    4.9     0.00044976     -3690.5994683755 -4.34E-06
   195 Broy./SMGL  0.30E+00    4.9     0.00034520     -3690.5994615063  6.87E-06
   196 Broy./SMGL  0.30E+00    4.9     0.00006901     -3690.5994759088 -1.44E-05
   197 Broy./SMGL  0.30E+00    4.9     0.00007716     -3690.5994732945  2.61E-06
   198 Broy./SMGL  0.30E+00    4.9     0.00022710     -3690.5994716092  1.69E-06
   199 Broy./SMGL  0.30E+00    4.9     0.00036186     -3690.5994730558 -1.45E-06
   200 Broy./SMGL  0.30E+00    4.9     0.00088598     -3690.5994816632 -8.61E-06
   201 Broy./SMGL  0.30E+00    4.9     0.00088127     -3690.5994695855  1.21E-05
   202 Broy./SMGL  0.30E+00    4.9     0.00041128     -3690.5994716949 -2.11E-06
   203 Broy./SMGL  0.30E+00    4.9     0.00000932     -3690.5994627945  8.90E-06
   204 Broy./SMGL  0.30E+00    4.9     0.00002650     -3690.5994694976 -6.70E-06
   205 Broy./SMGL  0.30E+00    4.9     0.00023080     -3690.5994673921  2.11E-06
   206 Broy./SMGL  0.30E+00    4.9     0.00026884     -3690.5994681937 -8.02E-07
   207 Broy./SMGL  0.30E+00    4.9     0.00035904     -3690.5994676672  5.26E-07
   208 Broy./SMGL  0.30E+00    4.9     0.00008429     -3690.5994800026 -1.23E-05
   209 Broy./SMGL  0.30E+00    4.9     0.00025492     -3690.5994696270  1.04E-05
   210 Broy./SMGL  0.30E+00    4.9     0.00010164     -3690.5994659636  3.66E-06
   211 Broy./SMGL  0.30E+00    4.9     0.00033403     -3690.5994671788 -1.22E-06
   212 Broy./SMGL  0.30E+00    4.9     0.00035932     -3690.5994725420 -5.36E-06
   213 Broy./SMGL  0.30E+00    4.9     0.00012189     -3690.5994677957  4.75E-06
   214 Broy./SMGL  0.30E+00    4.9     0.00014378     -3690.5994710508 -3.26E-06
   215 Broy./SMGL  0.30E+00    4.9     0.00032022     -3690.5994688853  2.17E-06
   216 Broy./SMGL  0.30E+00    4.9     0.00045989     -3690.5994717538 -2.87E-06
   217 Broy./SMGL  0.30E+00    4.9     0.00033118     -3690.5994673748  4.38E-06
   218 Broy./SMGL  0.30E+00    4.9     0.00035987     -3690.5994709657 -3.59E-06
   219 Broy./SMGL  0.30E+00    4.9     0.00045209     -3690.5994669569  4.01E-06
   220 Broy./SMGL  0.30E+00    4.9     0.00007544     -3690.5994731267 -6.17E-06
   221 Broy./SMGL  0.30E+00    4.9     0.00010072     -3690.5994714307  1.70E-06
   222 Broy./SMGL  0.30E+00    4.9     0.00036275     -3690.5994674478  3.98E-06
   223 Broy./SMGL  0.30E+00    4.9     0.00048102     -3690.5994655744  1.87E-06
   224 Broy./SMGL  0.30E+00    4.9     0.00075775     -3690.5994512268  1.43E-05
   225 Broy./SMGL  0.30E+00    4.9     0.00041422     -3690.5994701331 -1.89E-05
   226 Broy./SMGL  0.30E+00    4.9     0.00018862     -3690.5994671818  2.95E-06
