ATOMS
H             0.00000000      0.00000000     -0.00998254             0.00000060     -0.14410324     -0.69226748
H             0.00000000      0.00000000      0.73998166             0.00000060     -0.14410324     -0.69226748
