ATOMS
H             0.00000000      0.00000000     -0.00998254             0.70710678     -0.00000499      0.00000166
H             0.00000000      0.00000000      0.73998166             0.70710678     -0.00000499      0.00000166
