SIESTA 1.3.7  -- [1.3f1 release] (04 Feb 2004)
Architecture  : 
Compiler flags:  -O3
PARALLEL version

* Running on    4 nodes in parallel
>> Start of run:   9-OCT-2013  14:51:06

                           ***********************       
                           *  WELCOME TO SIESTA  *       
                           ***********************       

reinit: Reading from standard input
************************** Dump of input data file ****************************
#
SystemName                   mol            # Descriptive name of the system
SystemLabel                  mol            # Short name for naming files
NumberOfSpecies              1             # Number of species
NumberOfAtoms                2           # Number of atoms
%block ChemicalSpeciesLabel
 1    1   H
%endblock ChemicalSpeciesLabel
# ps
%block Ps.lmax
  H     3
%endblock Ps.lmax
# Basis
PAO.BasisType                split         # Type of basis ('nones', 'nonodes', 'split')
PAO.SplitNorm  0.15
%block PAO.Basis                           # basis
H     2      0.00
 n=1    0    2   E      2.07      0.50
   5.75  1.5
   1.000   1.000
 n=2    1    1   E      0.89      0.01
   5.500
   1.000
%endblock PAO.Basis
# lattice vectors
LatticeConstant              1.0 Ang
%block LatticeVectors
         20.00000        0.00000000       0.00000000
         0.00000        20.0000000        0.00000000
         0.00000000      0.00000000      20.0000
%endblock LatticeVectors
# coordinates
AtomicCoordinatesFormat      Ang
%block AtomicCoordinatesAndAtomicSpecies
    0.00000000    0.00000000   -0.01093506   1  H          1
    0.00000000    0.00000000    0.74094157   1  H          2
%endblock AtomicCoordinatesAndAtomicSpecies
# constrains in relaxation
#%block GeometryConstraints
#   position   from  1 to  54
#   position   from  -1 to  -45
#%endblock GeometryConstraints
# real space mesh grid
MeshCutoff                   800.0 Ry
%block GridCellSampling
  0.5  0.5   0.0
  0.5  0.0   0.5
  0.0  0.5   0.5
%endblock GridCellSampling
# reciprocal space
%block kgrid_Monkhorst_Pack
  1   0   0    0.0
  0   1   0    0.0
  0   0   1    0.0
%endblock kgrid_Monkhorst_Pack
#ProcessorY                   4
#BlockSize                    100
%block ExternalElectricField
   0.000 0.000 1.5000 V/Ang
%endblock ExternalElectricField
# functional
xc.functional                GGA           # 'LDA', 'GGA'
xc.authors                   PBE           # 'CA'='PZ', 'PW92', 'PBE'
# scf
MaxSCFIterations             300
DM.MixingWeight              0.02
DM.Tolerance                 2.0E-5
DM.UseSaveDM                 T
DM.NumberPulay               6             # Pulay convergency accelerator
SolutionMethod               diagon
ElectronicTemperature        300 K         # Default value
# MD options
MD.TypeOfRun                 cg            # Type of dynamics:
MD.VariableCell              false         # if vary cell
MD.NumCGsteps                300             # Number of CG steps for relaxation
MD.MaxCGDispl                0.08 Ang     # Maximum atomic displacement at one step
MD.MaxForceTol               0.01 eV/Ang   # Tolerance in the maximum force min(fx, fy, fz)
MD.MaxStressTol              0.1 Gpa
MD.FCDispl                 0.02 ang
MD.FCIR                    T
MD.FCEigenVectors          T
MD.FCRead                  F
MD.FCAtomRestart           46
MD.FCAxisRestart           1
MD.InitialTimeStep         1
MD.FinalTimeStep           10
MD.LengthTimeStep          1.0 fs
MD.InitialTemperature      100.0 K
MD.TargetTemperature       100.0 K
#MD.TargetPressure          3.0 Gpa
#Siesta Output Flags
SaveHS                       F           # Hamiltonian and overlap in sparse
SaveRHO                      F
WriteMullikenPop             1
WriteForces                  T
WriteCoorStep                T
SaveElectrostaticPotential   T             # Hartree Potential file
************************** End of input data file *****************************

reinit: -----------------------------------------------------------------------
reinit: System Name: mol                                                        
reinit: -----------------------------------------------------------------------
reinit: System Label: mol                 
reinit: -----------------------------------------------------------------------

initatom: Reading input for the pseudopotentials and atomic orbitals ----------
 Species number:            1  Label: H Atomic number:           1
Ground state valence configuration:   1s01
Reading pseudopotential information in formatted form from H.psf
relmxkb: Read Max KB Ang. Momentum=    3 for species H

<basis_specs>
===============================================================================
H                    Z=   1    Mass=  1.0100        Charge=  0.0000    
Lmxo=1 Lmxkb=3     BasisType=split      Semic=F
L=0  Nsemic=0  Cnfigmx=1
          n=1  nzeta=2  polorb=0
               vcte:    2.0700    
               rinn:   0.50000    
                rcs:    5.7500      1.5000    
            lambdas:    1.0000      1.0000    
L=1  Nsemic=0  Cnfigmx=2
          n=1  nzeta=1  polorb=0
               vcte:   0.89000    
               rinn:   0.10000E-01
                rcs:    5.5000    
            lambdas:    1.0000    
-------------------------------------------------------------------------------
L=0  Nkbl=1  erefs: 0.17977+309
L=1  Nkbl=1  erefs: 0.17977+309
L=2  Nkbl=1  erefs: 0.17977+309
L=3  Nkbl=1  erefs: 0.17977+309
===============================================================================
</basis_specs>

atom: Called for H   (Z =   1)

read_vps: Pseudopotential generation method:
read_vps: ATM3      Troullier-Martins                       

read_vps: Valence configuration (pseudopotential and basis set generation):
1s( 1.00) rc: 1.89
2p( 0.00) rc: 1.80
3d( 0.00) rc: 1.49
4f( 0.00) rc: 1.49
read_vps: Spin-orbit interaction is not included in this calculation
Total valence charge:    1.00000

xc_check: Exchange-correlation functional:
xc_check: GGA Perdew, Burke & Ernzerhof 1996
V l=0 = -2*Zval/r beyond r=  1.8658
V l=1 = -2*Zval/r beyond r=  1.7970
V l=2 = -2*Zval/r beyond r=  1.8196
V l=3 = -2*Zval/r beyond r=  1.8196
All V_l potentials equal beyond r=  1.8658
This should be close to max(r_c) in ps generation
All pots = -2*Zval/r beyond r=  1.8658

VLOCAL1: 99.0% of the norm of Vloc inside     12.470 Ry
VLOCAL1: 99.9% of the norm of Vloc inside     28.418 Ry
atom: Maximum radius for 4*pi*r*r*local-pseudopot. charge    2.16811
atom: Maximum radius for r*vlocal+2*Zval:    1.84256
GHOST: No ghost state for L =  0
GHOST: No ghost state for L =  1
GHOST: No ghost state for L =  2
GHOST: No ghost state for L =  3

KBgen: Kleinman-Bylander projectors: 
   l= 0   rc=  2.011274   el= -0.477200   Ekb= -1.572097   kbcos= -0.493163
   l= 1   rc=  2.141150   el=  0.001076   Ekb= -0.356432   kbcos= -0.050277
   l= 2   rc=  2.195416   el=  0.002010   Ekb= -0.177656   kbcos= -0.007774
   l= 3   rc=  2.251056   el=  0.003122   Ekb= -0.068270   kbcos= -0.002268

KBgen: Total number of  Kleinman-Bylander projectors:   16
atom: -------------------------------------------------------------------------

atom: SANKEY-TYPE ORBITALS:
atom: Selected multiple-zeta basis: split     

SPLIT: Orbitals with angular momentum L= 0

SPLIT: Basis orbitals for state 1s

   izeta = 1
                 lambda =    1.000000
                     rc =    5.752124
                 energy =   -0.469599
                kinetic =    0.919264
    potential(screened) =   -1.388863
       potential(ionic) =   -1.911599

   izeta = 2
                 rmatch =    1.527112
              splitnorm =    0.807394
                 energy =    2.126033
                kinetic =    5.261681
    potential(screened) =   -3.135649
       potential(ionic) =   -3.696632

SPLIT: Orbitals with angular momentum L= 1

SPLIT: Basis orbitals for state 2p

   izeta = 1
                 lambda =    1.000000
                     rc =    5.471469
                 energy =    0.371359
                kinetic =    0.737398
    potential(screened) =   -0.366040
       potential(ionic) =   -0.791603
atom: Total number of Sankey-type orbitals:  5

atm_pop: Valence configuration(local Pseudopot. screening):
 1s( 1.00)                                                            
 2p( 0.00)                                                            
Vna: chval, zval:    1.00000   1.00000

Vna:  Cut-off radius for the neutral-atom potential:   5.752124

atom: _________________________________________________________________________

prinput: Basis input ----------------------------------------------------------

PAO.BasisType split     

%block ChemicalSpeciesLabel
    1    1 H                       # Species index, atomic number, species label
%endblock ChemicalSpeciesLabel

%block PAO.Basis                 # Define Basis set
H           2                    # Species label, number of l-shells
 n=1   0   2                         # n, l, Nzeta 
   5.752      1.527   
   1.000      1.000   
 n=2   1   1                         # n, l, Nzeta 
   5.471   
   1.000   
%endblock PAO.Basis

prinput: ----------------------------------------------------------------------


siesta: ******************** Simulation parameters ****************************
siesta:
siesta: The following are some of the parameters of the simulation.
siesta: A complete list of the parameters used, including defect values,
siesta: can be found in file out.fdf
siesta:
coor:   Atomic-coordinates input format  =     Cartesian coordinates
coor:                                          (in Angstroms)
redata: Number of spin components        =     1
redata: SpinOrbit                        =     0
redata: Long output                      =     F
redata: Number of Atomic Species         =     1
redata: Charge density info will appear in .RHO file
redata: Write Mulliken Pop.              =     Atomic and Orbital charges
redata: Mesh Cutoff                      =   800.0000  Ry
redata: Net charge of the system         =     0.0000 |e|
redata: Max. number of SCF Iter          =   300
redata: One Pulay mixing every           =     6 iterations
redata: Mix DM in first SCF step ?       =     F
redata: Write Pulay info on disk?        =     F
redata: New DM Mixing Weight             =     0.0200
redata: No kicks to SCF
redata: DM Mixing Weight for Kicks       =     0.5000
redata: DM Tolerance for SCF             =     0.000020
redata: Use continuation files for DM    =     T
redata: Neglect nonoverlap interactions  =     F
redata: Method of Calculation            =     Diagonalization
redata: Divide and Conquer               =     F
redata: Electronic Temperature           =     0.0019  Ry
redata: Fix the spin of the system       =     F
redata: Dynamics option                  =     CG coord. optimization
redata: Variable cell                    =     F
redata: Use continuation files for CG    =     F
redata: Maximum number of CG moves       =   300
redata: Max atomic displ per move        =     0.1512  Bohr
redata: Force tolerance                  =     0.0004  Ry/Bohr
redata: ***********************************************************************

siesta: Atomic coordinates (Bohr) and species
siesta:      0.00000   0.00000  -0.02066  1        1
siesta:      0.00000   0.00000   1.40018  1        2

initatomlists: Number of atoms, orbitals, and projectors:      2    10    32

siesta: System type = molecule  
 Nodes, Orbitals           4          10
 blocksizedefault           2

* ProcessorY, Blocksize:    2   2

 Using EM.ParallelOverKNum =           1
 label:           1 H                              1 s      
 label:           2 H                              1 s      
 label:           3 H                              1 py     
 label:           4 H                              1 pz     
 label:           5 H                              1 px     
 label:           6 H                              2 s      
 label:           7 H                              2 s      
 label:           8 H                              2 py     
 label:           9 H                              2 pz     
 label:          10 H                              2 px     
 
* Maximum dynamic memory allocated =     1 MB

siesta:                 ==============================
                            Begin CG move =      0
                        ==============================

outcoor: Atomic coordinates (Ang):                          
    0.00000000    0.00000000   -0.01093506   1  H          1
    0.00000000    0.00000000    0.74094157   1  H          2

read_ldau The LDA+U method used is from Czyzky PRB 49 14211

InitMesh: MESH =   360 x   360 x   360 =    46656000
InitMesh: Mesh cutoff (required, used) =   800.000   895.461 Ry

efield: External electric field =    0.000000    0.000000    0.058340 Ry/Bohr/e
 
* Maximum dynamic memory allocated =   583 MB

stepf: Fermi-Dirac step function

siesta: Program's energy decomposition (eV):
siesta: Eions   =        26.074526
siesta: Ena     =         4.272337
siesta: Ekin    =        25.015182
siesta: Enl     =       -13.798643
siesta: DEna    =        -0.000001
siesta: DUscf   =         0.000000
siesta: DUext   =         0.000000
siesta: Exc     =       -16.102883
siesta: eta*DQ  =         0.000000
siesta: Emadel  =         0.000000
siesta: Eharris =       -31.545490
siesta: Eso     =         0.000000
siesta: Etot    =       -26.688533
siesta: FreeEng =       -26.688533

siesta: iscf   Eharris(eV)      E_KS(eV)   FreeEng(eV)     dDmax   Ef(eV)
siesta:    1      -31.5455      -26.6885      -26.6885   0.64124  -6.2991
timer: Routine,Calls,Time,% = IterSCF        1      99.767  96.78
siesta:    2      -31.4274      -31.3931      -31.3931   0.09960  -4.8547
siesta:    3      -31.4250      -31.2548      -31.2548   0.09163  -4.9034
siesta:    4      -31.4180      -31.4591      -31.4591   0.01260  -4.9435
siesta:    5      -31.4179      -31.4157      -31.4157   0.00579  -4.9544
siesta:    6      -31.4178      -31.4169      -31.4169   0.00217  -4.9832
siesta:    7      -31.4178      -31.4176      -31.4176   0.00008  -4.9904
siesta:    8      -31.4178      -31.4184      -31.4184   0.00008  -4.9904
siesta:    9      -31.4178      -31.4184      -31.4184   0.00007  -4.9904
siesta:   10      -31.4178      -31.4184      -31.4184   0.00007  -4.9904
siesta:   11      -31.4178      -31.4184      -31.4184   0.00007  -4.9904
siesta:   12      -31.4178      -31.4183      -31.4183   0.00007  -4.9904
siesta:   13      -31.4178      -31.4183      -31.4183   0.00007  -4.9904
siesta:   14      -31.4178      -31.4183      -31.4183   0.00007  -4.9904
siesta:   15      -31.4178      -31.4183      -31.4183   0.00007  -4.9904
siesta:   16      -31.4178      -31.4183      -31.4183   0.00007  -4.9904
siesta:   17      -31.4178      -31.4183      -31.4183   0.00007  -4.9904
siesta:   18      -31.4178      -31.4183      -31.4183   0.00007  -4.9904
siesta:   19      -31.4178      -31.4183      -31.4183   0.00007  -4.9904
siesta:   20      -31.4178      -31.4183      -31.4183   0.00007  -4.9904
siesta:   21      -31.4178      -31.4183      -31.4183   0.00006  -4.9904
siesta:   22      -31.4178      -31.4183      -31.4183   0.00006  -4.9904
siesta:   23      -31.4178      -31.4182      -31.4182   0.00006  -4.9904
siesta:   24      -31.4178      -31.4182      -31.4182   0.00006  -4.9904
siesta:   25      -31.4178      -31.4182      -31.4182   0.00006  -4.9904
siesta:   26      -31.4178      -31.4182      -31.4182   0.00006  -4.9904
siesta:   27      -31.4178      -31.4182      -31.4182   0.00006  -4.9904
siesta:   28      -31.4178      -31.4182      -31.4182   0.00006  -4.9904
siesta:   29      -31.4178      -31.4182      -31.4182   0.00006  -4.9904
siesta:   30      -31.4178      -31.4182      -31.4182   0.00006  -4.9904
siesta:   31      -31.4178      -31.4182      -31.4182   0.00006  -4.9904
siesta:   32      -31.4178      -31.4182      -31.4182   0.00006  -4.9904
siesta:   33      -31.4178      -31.4182      -31.4182   0.00006  -4.9904
siesta:   34      -31.4178      -31.4182      -31.4182   0.00005  -4.9904
siesta:   35      -31.4178      -31.4182      -31.4182   0.00005  -4.9904
siesta:   36      -31.4178      -31.4182      -31.4182   0.00005  -4.9904
siesta:   37      -31.4178      -31.4181      -31.4181   0.00005  -4.9904
siesta:   38      -31.4178      -31.4181      -31.4181   0.00005  -4.9904
siesta:   39      -31.4178      -31.4181      -31.4181   0.00005  -4.9904
siesta:   40      -31.4178      -31.4181      -31.4181   0.00005  -4.9904
siesta:   41      -31.4178      -31.4181      -31.4181   0.00005  -4.9904
siesta:   42      -31.4178      -31.4181      -31.4181   0.00005  -4.9904
siesta:   43      -31.4178      -31.4181      -31.4181   0.00005  -4.9904
siesta:   44      -31.4178      -31.4181      -31.4181   0.00005  -4.9904
siesta:   45      -31.4178      -31.4181      -31.4181   0.00005  -4.9904
siesta:   46      -31.4178      -31.4181      -31.4181   0.00005  -4.9904
siesta:   47      -31.4178      -31.4181      -31.4181   0.00004  -4.9904
siesta:   48      -31.4178      -31.4181      -31.4181   0.00004  -4.9904
siesta:   49      -31.4178      -31.4181      -31.4181   0.00004  -4.9904
siesta:   50      -31.4178      -31.4181      -31.4181   0.00004  -4.9904
siesta:   51      -31.4178      -31.4181      -31.4181   0.00004  -4.9904
siesta:   52      -31.4178      -31.4181      -31.4181   0.00004  -4.9904
siesta:   53      -31.4178      -31.4181      -31.4181   0.00004  -4.9904
siesta:   54      -31.4178      -31.4181      -31.4181   0.00004  -4.9904
siesta:   55      -31.4178      -31.4181      -31.4181   0.00004  -4.9904
siesta:   56      -31.4178      -31.4181      -31.4181   0.00004  -4.9904
siesta:   57      -31.4178      -31.4180      -31.4180   0.00004  -4.9904
siesta:   58      -31.4178      -31.4180      -31.4180   0.00004  -4.9904
siesta:   59      -31.4178      -31.4180      -31.4180   0.00004  -4.9904
siesta:   60      -31.4178      -31.4180      -31.4180   0.00004  -4.9904
siesta:   61      -31.4178      -31.4180      -31.4180   0.00004  -4.9904
siesta:   62      -31.4178      -31.4180      -31.4180   0.00004  -4.9904
siesta:   63      -31.4178      -31.4180      -31.4180   0.00003  -4.9904
siesta:   64      -31.4178      -31.4180      -31.4180   0.00003  -4.9904
siesta:   65      -31.4178      -31.4180      -31.4180   0.00003  -4.9904
siesta:   66      -31.4178      -31.4180      -31.4180   0.00003  -4.9904
siesta:   67      -31.4178      -31.4180      -31.4180   0.00003  -4.9904
siesta:   68      -31.4178      -31.4180      -31.4180   0.00003  -4.9904
siesta:   69      -31.4178      -31.4180      -31.4180   0.00003  -4.9904
siesta:   70      -31.4178      -31.4180      -31.4180   0.00003  -4.9904
siesta:   71      -31.4178      -31.4180      -31.4180   0.00003  -4.9904
siesta:   72      -31.4178      -31.4180      -31.4180   0.00003  -4.9904
siesta:   73      -31.4178      -31.4180      -31.4180   0.00003  -4.9904
siesta:   74      -31.4178      -31.4180      -31.4180   0.00003  -4.9904
siesta:   75      -31.4178      -31.4180      -31.4180   0.00003  -4.9904
siesta:   76      -31.4178      -31.4180      -31.4180   0.00003  -4.9904
siesta:   77      -31.4178      -31.4180      -31.4180   0.00003  -4.9904
siesta:   78      -31.4178      -31.4180      -31.4180   0.00003  -4.9904
siesta:   79      -31.4178      -31.4180      -31.4180   0.00003  -4.9904
siesta:   80      -31.4178      -31.4180      -31.4180   0.00003  -4.9904
siesta:   81      -31.4178      -31.4180      -31.4180   0.00003  -4.9904
siesta:   82      -31.4178      -31.4180      -31.4180   0.00003  -4.9904
siesta:   83      -31.4178      -31.4180      -31.4180   0.00003  -4.9904
siesta:   84      -31.4178      -31.4180      -31.4180   0.00002  -4.9904
siesta:   85      -31.4178      -31.4180      -31.4180   0.00002  -4.9904
siesta:   86      -31.4178      -31.4180      -31.4180   0.00002  -4.9904
siesta:   87      -31.4178      -31.4180      -31.4180   0.00002  -4.9904
siesta:   88      -31.4178      -31.4180      -31.4180   0.00002  -4.9904
siesta:   89      -31.4178      -31.4179      -31.4179   0.00002  -4.9904
siesta:   90      -31.4178      -31.4179      -31.4179   0.00002  -4.9904
siesta:   91      -31.4178      -31.4179      -31.4179   0.00002  -4.9904
siesta:   92      -31.4178      -31.4179      -31.4179   0.00002  -4.9904
siesta:   93      -31.4178      -31.4179      -31.4179   0.00002  -4.9904
siesta:   94      -31.4178      -31.4179      -31.4179   0.00002  -4.9904
siesta:   95      -31.4178      -31.4179      -31.4179   0.00002  -4.9904
siesta:   96      -31.4178      -31.4179      -31.4179   0.00002  -4.9904
grdsam: Reading %block GridCellSampling
grdsam: Grid-cell sampling, point   0
grdsam: Generating displacements for grid-cell sampling
grdsam: Grid-cell sampling, point   1
grdsam: Grid-cell sampling, point   2
grdsam: Grid-cell sampling, point   3

siesta: E_KS(eV) =              -31.4179

siesta: E_KS - E_eggbox =       -31.4179

siesta: Atomic forces (eV/Ang):
     1    0.000000    0.000000   -0.077410
     2    0.000000    0.000000    0.077556
----------------------------------------
 Tot    0.000000    0.000000    0.000146
----------------------------------------
 Max    0.077556
 Res    0.044735    sqrt( Sum f_i^2 / 3N )
----------------------------------------
 Max    0.077556    constrained
 
mulliken: Atomic and Orbital Populations:

Species: H                   
Atom  Qatom  Qorb
               1s      1s      2py     2pz     2px     
   1  1.044   0.961   0.082   0.000   0.001   0.000
   2  0.956   0.848   0.082   0.000   0.026   0.000

mulliken: Qtot =    2.000
 
* Maximum dynamic memory allocated =   583 MB

siesta:                 ==============================
                            Begin CG move =      1
                        ==============================

outcoor: Atomic coordinates (Ang):                          
    0.00000001    0.00000002   -0.06745039   1  H          1
    0.00000000    0.00000000    0.79756327   1  H          2

siesta: iscf   Eharris(eV)      E_KS(eV)   FreeEng(eV)     dDmax   Ef(eV)
siesta:    1      -31.2587      -31.2021      -31.2021   0.03226  -4.3532
siesta:    2      -31.2552      -31.2544      -31.2544   0.01380  -4.6366
siesta:    3      -31.2551      -31.2482      -31.2482   0.00894  -4.6007
siesta:    4      -31.2550      -31.2522      -31.2522   0.00057  -4.6111
siesta:    5      -31.2550      -31.2540      -31.2540   0.00093  -4.6199
siesta:    6      -31.2549      -31.2551      -31.2551   0.00006  -4.6170
siesta:    7      -31.2549      -31.2550      -31.2550   0.00005  -4.6170
siesta:    8      -31.2549      -31.2550      -31.2550   0.00005  -4.6170
siesta:    9      -31.2549      -31.2550      -31.2550   0.00005  -4.6170
siesta:   10      -31.2549      -31.2550      -31.2550   0.00005  -4.6170
siesta:   11      -31.2549      -31.2550      -31.2550   0.00005  -4.6170
siesta:   12      -31.2549      -31.2550      -31.2550   0.00005  -4.6170
siesta:   13      -31.2549      -31.2550      -31.2550   0.00005  -4.6170
siesta:   14      -31.2549      -31.2550      -31.2550   0.00005  -4.6170
siesta:   15      -31.2549      -31.2550      -31.2550   0.00005  -4.6170
siesta:   16      -31.2549      -31.2550      -31.2550   0.00004  -4.6170
siesta:   17      -31.2549      -31.2550      -31.2550   0.00004  -4.6170
siesta:   18      -31.2549      -31.2550      -31.2550   0.00004  -4.6170
siesta:   19      -31.2549      -31.2550      -31.2550   0.00004  -4.6169
siesta:   20      -31.2549      -31.2550      -31.2550   0.00004  -4.6169
siesta:   21      -31.2549      -31.2550      -31.2550   0.00004  -4.6169
siesta:   22      -31.2549      -31.2550      -31.2550   0.00004  -4.6169
siesta:   23      -31.2549      -31.2550      -31.2550   0.00004  -4.6169
siesta:   24      -31.2549      -31.2550      -31.2550   0.00004  -4.6169
siesta:   25      -31.2549      -31.2550      -31.2550   0.00004  -4.6169
siesta:   26      -31.2549      -31.2550      -31.2550   0.00004  -4.6169
siesta:   27      -31.2549      -31.2550      -31.2550   0.00004  -4.6169
siesta:   28      -31.2549      -31.2550      -31.2550   0.00003  -4.6169
siesta:   29      -31.2549      -31.2550      -31.2550   0.00003  -4.6169
siesta:   30      -31.2549      -31.2550      -31.2550   0.00003  -4.6169
siesta:   31      -31.2549      -31.2550      -31.2550   0.00003  -4.6169
siesta:   32      -31.2549      -31.2550      -31.2550   0.00003  -4.6169
siesta:   33      -31.2549      -31.2550      -31.2550   0.00003  -4.6169
siesta:   34      -31.2549      -31.2550      -31.2550   0.00003  -4.6169
siesta:   35      -31.2549      -31.2550      -31.2550   0.00003  -4.6169
siesta:   36      -31.2549      -31.2550      -31.2550   0.00003  -4.6169
siesta:   37      -31.2549      -31.2550      -31.2550   0.00003  -4.6169
siesta:   38      -31.2549      -31.2550      -31.2550   0.00003  -4.6169
siesta:   39      -31.2549      -31.2550      -31.2550   0.00003  -4.6169
siesta:   40      -31.2549      -31.2550      -31.2550   0.00003  -4.6169
siesta:   41      -31.2549      -31.2550      -31.2550   0.00003  -4.6169
siesta:   42      -31.2549      -31.2550      -31.2550   0.00003  -4.6169
siesta:   43      -31.2549      -31.2550      -31.2550   0.00003  -4.6168
siesta:   44      -31.2549      -31.2550      -31.2550   0.00002  -4.6168
siesta:   45      -31.2549      -31.2550      -31.2550   0.00002  -4.6168
siesta:   46      -31.2549      -31.2550      -31.2550   0.00002  -4.6168
siesta:   47      -31.2549      -31.2550      -31.2550   0.00002  -4.6168
siesta:   48      -31.2549      -31.2550      -31.2550   0.00002  -4.6168
siesta:   49      -31.2549      -31.2550      -31.2550   0.00002  -4.6168
siesta:   50      -31.2549      -31.2550      -31.2550   0.00002  -4.6168
siesta:   51      -31.2549      -31.2550      -31.2550   0.00002  -4.6168
siesta:   52      -31.2549      -31.2550      -31.2550   0.00002  -4.6168
siesta:   53      -31.2549      -31.2550      -31.2550   0.00002  -4.6168
siesta:   54      -31.2549      -31.2550      -31.2550   0.00002  -4.6168
siesta:   55      -31.2549      -31.2550      -31.2550   0.00002  -4.6168
grdsam: Grid-cell sampling, point   0
grdsam: Grid-cell sampling, point   1
grdsam: Grid-cell sampling, point   2
grdsam: Grid-cell sampling, point   3

siesta: E_KS(eV) =              -31.2550

siesta: Atomic forces (eV/Ang):
     1    0.000000    0.000000    2.539707
     2    0.000000    0.000000   -2.539608
----------------------------------------
 Tot    0.000000    0.000000    0.000099
----------------------------------------
 Max    2.539707
 Res    1.466272    sqrt( Sum f_i^2 / 3N )
----------------------------------------
 Max    2.539707    constrained
 
mulliken: Atomic and Orbital Populations:

Species: H                   
Atom  Qatom  Qorb
               1s      1s      2py     2pz     2px     
   1  1.045   0.989   0.059   0.000  -0.003   0.000
   2  0.955   0.869   0.058   0.000   0.028   0.000

mulliken: Qtot =    2.000
 
* Maximum dynamic memory allocated =   584 MB

siesta:                 ==============================
                            Begin CG move =      2
                        ==============================

outcoor: Atomic coordinates (Ang):                          
    0.00000000    0.00000000   -0.01260825   1  H          1
    0.00000000    0.00000000    0.74261791   1  H          2

siesta: iscf   Eharris(eV)      E_KS(eV)   FreeEng(eV)     dDmax   Ef(eV)
siesta:    1      -31.4226      -31.3690      -31.3690   0.03080  -5.2671
siesta:    2      -31.4181      -31.4172      -31.4172   0.01242  -4.9496
siesta:    3      -31.4179      -31.4113      -31.4113   0.00701  -4.9937
siesta:    4      -31.4179      -31.4168      -31.4168   0.00088  -4.9759
siesta:    5      -31.4179      -31.4169      -31.4169   0.00094  -4.9753
siesta:    6      -31.4179      -31.4169      -31.4169   0.00074  -4.9761
siesta:    7      -31.4179      -31.4169      -31.4169   0.00073  -4.9762
siesta:    8      -31.4179      -31.4170      -31.4170   0.00071  -4.9763
siesta:    9      -31.4179      -31.4170      -31.4170   0.00070  -4.9763
siesta:   10      -31.4179      -31.4170      -31.4170   0.00069  -4.9764
siesta:   11      -31.4179      -31.4170      -31.4170   0.00067  -4.9765
siesta:   12      -31.4179      -31.4170      -31.4170   0.00066  -4.9765
siesta:   13      -31.4179      -31.4170      -31.4170   0.00065  -4.9766
siesta:   14      -31.4179      -31.4171      -31.4171   0.00063  -4.9767
siesta:   15      -31.4179      -31.4171      -31.4171   0.00062  -4.9767
siesta:   16      -31.4179      -31.4171      -31.4171   0.00061  -4.9768
siesta:   17      -31.4179      -31.4171      -31.4171   0.00060  -4.9768
siesta:   18      -31.4179      -31.4171      -31.4171   0.00058  -4.9769
siesta:   19      -31.4179      -31.4171      -31.4171   0.00057  -4.9769
siesta:   20      -31.4179      -31.4172      -31.4172   0.00056  -4.9770
siesta:   21      -31.4179      -31.4172      -31.4172   0.00055  -4.9770
siesta:   22      -31.4179      -31.4172      -31.4172   0.00054  -4.9771
siesta:   23      -31.4179      -31.4172      -31.4172   0.00053  -4.9771
siesta:   24      -31.4179      -31.4172      -31.4172   0.00052  -4.9772
siesta:   25      -31.4179      -31.4172      -31.4172   0.00051  -4.9772
siesta:   26      -31.4179      -31.4172      -31.4172   0.00050  -4.9773
siesta:   27      -31.4179      -31.4172      -31.4172   0.00049  -4.9773
siesta:   28      -31.4179      -31.4173      -31.4173   0.00048  -4.9774
siesta:   29      -31.4179      -31.4173      -31.4173   0.00047  -4.9774
siesta:   30      -31.4179      -31.4173      -31.4173   0.00046  -4.9775
siesta:   31      -31.4179      -31.4173      -31.4173   0.00045  -4.9775
siesta:   32      -31.4179      -31.4173      -31.4173   0.00044  -4.9775
siesta:   33      -31.4179      -31.4173      -31.4173   0.00043  -4.9776
siesta:   34      -31.4179      -31.4173      -31.4173   0.00042  -4.9776
siesta:   35      -31.4179      -31.4173      -31.4173   0.00042  -4.9777
siesta:   36      -31.4179      -31.4173      -31.4173   0.00041  -4.9777
siesta:   37      -31.4179      -31.4174      -31.4174   0.00040  -4.9777
siesta:   38      -31.4179      -31.4174      -31.4174   0.00039  -4.9778
siesta:   39      -31.4179      -31.4174      -31.4174   0.00038  -4.9778
siesta:   40      -31.4179      -31.4174      -31.4174   0.00038  -4.9778
siesta:   41      -31.4179      -31.4174      -31.4174   0.00037  -4.9779
siesta:   42      -31.4179      -31.4174      -31.4174   0.00036  -4.9779
siesta:   43      -31.4179      -31.4174      -31.4174   0.00035  -4.9779
siesta:   44      -31.4179      -31.4174      -31.4174   0.00035  -4.9780
siesta:   45      -31.4179      -31.4174      -31.4174   0.00034  -4.9780
siesta:   46      -31.4179      -31.4174      -31.4174   0.00033  -4.9780
siesta:   47      -31.4179      -31.4175      -31.4175   0.00033  -4.9781
siesta:   48      -31.4179      -31.4175      -31.4175   0.00032  -4.9781
siesta:   49      -31.4179      -31.4175      -31.4175   0.00031  -4.9781
siesta:   50      -31.4179      -31.4175      -31.4175   0.00031  -4.9781
siesta:   51      -31.4179      -31.4175      -31.4175   0.00030  -4.9782
siesta:   52      -31.4179      -31.4175      -31.4175   0.00029  -4.9782
siesta:   53      -31.4179      -31.4175      -31.4175   0.00029  -4.9782
siesta:   54      -31.4179      -31.4175      -31.4175   0.00028  -4.9782
siesta:   55      -31.4179      -31.4175      -31.4175   0.00028  -4.9783
siesta:   56      -31.4179      -31.4175      -31.4175   0.00027  -4.9783
siesta:   57      -31.4179      -31.4175      -31.4175   0.00027  -4.9783
siesta:   58      -31.4179      -31.4175      -31.4175   0.00026  -4.9783
siesta:   59      -31.4179      -31.4175      -31.4175   0.00026  -4.9784
siesta:   60      -31.4179      -31.4175      -31.4175   0.00025  -4.9784
siesta:   61      -31.4179      -31.4176      -31.4176   0.00025  -4.9784
siesta:   62      -31.4179      -31.4176      -31.4176   0.00024  -4.9784
siesta:   63      -31.4179      -31.4176      -31.4176   0.00024  -4.9784
siesta:   64      -31.4179      -31.4176      -31.4176   0.00023  -4.9785
siesta:   65      -31.4179      -31.4176      -31.4176   0.00023  -4.9785
siesta:   66      -31.4179      -31.4176      -31.4176   0.00022  -4.9785
siesta:   67      -31.4179      -31.4176      -31.4176   0.00022  -4.9785
siesta:   68      -31.4179      -31.4176      -31.4176   0.00021  -4.9785
siesta:   69      -31.4179      -31.4176      -31.4176   0.00021  -4.9786
siesta:   70      -31.4179      -31.4176      -31.4176   0.00020  -4.9786
siesta:   71      -31.4179      -31.4176      -31.4176   0.00020  -4.9786
siesta:   72      -31.4179      -31.4176      -31.4176   0.00020  -4.9786
siesta:   73      -31.4179      -31.4176      -31.4176   0.00019  -4.9786
siesta:   74      -31.4179      -31.4176      -31.4176   0.00019  -4.9786
siesta:   75      -31.4179      -31.4176      -31.4176   0.00018  -4.9787
siesta:   76      -31.4179      -31.4176      -31.4176   0.00018  -4.9787
siesta:   77      -31.4179      -31.4176      -31.4176   0.00018  -4.9787
siesta:   78      -31.4179      -31.4176      -31.4176   0.00017  -4.9787
siesta:   79      -31.4179      -31.4176      -31.4176   0.00017  -4.9787
siesta:   80      -31.4179      -31.4177      -31.4177   0.00017  -4.9787
siesta:   81      -31.4179      -31.4177      -31.4177   0.00016  -4.9787
siesta:   82      -31.4179      -31.4177      -31.4177   0.00016  -4.9788
siesta:   83      -31.4179      -31.4177      -31.4177   0.00016  -4.9788
siesta:   84      -31.4179      -31.4177      -31.4177   0.00015  -4.9788
siesta:   85      -31.4179      -31.4177      -31.4177   0.00015  -4.9788
siesta:   86      -31.4179      -31.4177      -31.4177   0.00015  -4.9788
siesta:   87      -31.4179      -31.4177      -31.4177   0.00014  -4.9788
siesta:   88      -31.4179      -31.4177      -31.4177   0.00014  -4.9788
siesta:   89      -31.4179      -31.4177      -31.4177   0.00014  -4.9788
siesta:   90      -31.4179      -31.4177      -31.4177   0.00014  -4.9788
siesta:   91      -31.4179      -31.4177      -31.4177   0.00013  -4.9789
siesta:   92      -31.4179      -31.4177      -31.4177   0.00013  -4.9789
siesta:   93      -31.4179      -31.4177      -31.4177   0.00013  -4.9789
siesta:   94      -31.4179      -31.4177      -31.4177   0.00012  -4.9789
siesta:   95      -31.4179      -31.4177      -31.4177   0.00012  -4.9789
siesta:   96      -31.4179      -31.4177      -31.4177   0.00012  -4.9789
siesta:   97      -31.4179      -31.4177      -31.4177   0.00012  -4.9789
siesta:   98      -31.4179      -31.4177      -31.4177   0.00011  -4.9789
siesta:   99      -31.4179      -31.4177      -31.4177   0.00011  -4.9789
siesta:  100      -31.4179      -31.4177      -31.4177   0.00011  -4.9789
siesta:  101      -31.4179      -31.4177      -31.4177   0.00011  -4.9790
siesta:  102      -31.4179      -31.4177      -31.4177   0.00011  -4.9790
siesta:  103      -31.4179      -31.4177      -31.4177   0.00010  -4.9790
siesta:  104      -31.4179      -31.4177      -31.4177   0.00010  -4.9790
siesta:  105      -31.4179      -31.4177      -31.4177   0.00010  -4.9790
siesta:  106      -31.4179      -31.4177      -31.4177   0.00010  -4.9790
siesta:  107      -31.4179      -31.4177      -31.4177   0.00010  -4.9790
siesta:  108      -31.4179      -31.4177      -31.4177   0.00009  -4.9790
siesta:  109      -31.4179      -31.4177      -31.4177   0.00009  -4.9790
siesta:  110      -31.4179      -31.4178      -31.4178   0.00009  -4.9790
siesta:  111      -31.4179      -31.4178      -31.4178   0.00009  -4.9790
siesta:  112      -31.4179      -31.4178      -31.4178   0.00009  -4.9790
siesta:  113      -31.4179      -31.4178      -31.4178   0.00008  -4.9790
siesta:  114      -31.4179      -31.4178      -31.4178   0.00008  -4.9791
siesta:  115      -31.4179      -31.4178      -31.4178   0.00008  -4.9791
siesta:  116      -31.4179      -31.4178      -31.4178   0.00008  -4.9791
siesta:  117      -31.4179      -31.4178      -31.4178   0.00008  -4.9791
siesta:  118      -31.4179      -31.4178      -31.4178   0.00008  -4.9791
siesta:  119      -31.4179      -31.4178      -31.4178   0.00007  -4.9791
siesta:  120      -31.4179      -31.4178      -31.4178   0.00007  -4.9791
siesta:  121      -31.4179      -31.4178      -31.4178   0.00007  -4.9791
siesta:  122      -31.4179      -31.4178      -31.4178   0.00007  -4.9791
siesta:  123      -31.4179      -31.4178      -31.4178   0.00007  -4.9791
siesta:  124      -31.4179      -31.4178      -31.4178   0.00007  -4.9791
siesta:  125      -31.4179      -31.4178      -31.4178   0.00007  -4.9791
siesta:  126      -31.4179      -31.4178      -31.4178   0.00006  -4.9791
siesta:  127      -31.4179      -31.4178      -31.4178   0.00006  -4.9791
siesta:  128      -31.4179      -31.4178      -31.4178   0.00006  -4.9791
siesta:  129      -31.4179      -31.4178      -31.4178   0.00006  -4.9791
siesta:  130      -31.4179      -31.4178      -31.4178   0.00006  -4.9791
siesta:  131      -31.4179      -31.4178      -31.4178   0.00006  -4.9791
siesta:  132      -31.4179      -31.4178      -31.4178   0.00006  -4.9791
siesta:  133      -31.4179      -31.4178      -31.4178   0.00006  -4.9792
siesta:  134      -31.4179      -31.4178      -31.4178   0.00005  -4.9792
siesta:  135      -31.4179      -31.4178      -31.4178   0.00005  -4.9792
siesta:  136      -31.4179      -31.4178      -31.4178   0.00005  -4.9792
siesta:  137      -31.4179      -31.4178      -31.4178   0.00005  -4.9792
siesta:  138      -31.4179      -31.4178      -31.4178   0.00005  -4.9792
siesta:  139      -31.4179      -31.4178      -31.4178   0.00005  -4.9792
siesta:  140      -31.4179      -31.4178      -31.4178   0.00005  -4.9792
siesta:  141      -31.4179      -31.4178      -31.4178   0.00005  -4.9792
siesta:  142      -31.4179      -31.4178      -31.4178   0.00005  -4.9792
siesta:  143      -31.4179      -31.4178      -31.4178   0.00005  -4.9792
siesta:  144      -31.4179      -31.4178      -31.4178   0.00004  -4.9792
siesta:  145      -31.4179      -31.4178      -31.4178   0.00004  -4.9792
siesta:  146      -31.4179      -31.4178      -31.4178   0.00004  -4.9792
siesta:  147      -31.4179      -31.4178      -31.4178   0.00004  -4.9792
siesta:  148      -31.4179      -31.4178      -31.4178   0.00004  -4.9792
siesta:  149      -31.4179      -31.4178      -31.4178   0.00004  -4.9792
siesta:  150      -31.4179      -31.4178      -31.4178   0.00004  -4.9792
siesta:  151      -31.4179      -31.4178      -31.4178   0.00004  -4.9792
siesta:  152      -31.4179      -31.4178      -31.4178   0.00004  -4.9792
siesta:  153      -31.4179      -31.4178      -31.4178   0.00004  -4.9792
siesta:  154      -31.4179      -31.4178      -31.4178   0.00004  -4.9792
siesta:  155      -31.4179      -31.4178      -31.4178   0.00004  -4.9792
siesta:  156      -31.4179      -31.4178      -31.4178   0.00003  -4.9792
siesta:  157      -31.4179      -31.4178      -31.4178   0.00003  -4.9792
siesta:  158      -31.4179      -31.4178      -31.4178   0.00003  -4.9792
siesta:  159      -31.4179      -31.4178      -31.4178   0.00003  -4.9792
siesta:  160      -31.4179      -31.4178      -31.4178   0.00003  -4.9792
siesta:  161      -31.4179      -31.4178      -31.4178   0.00003  -4.9792
siesta:  162      -31.4179      -31.4178      -31.4178   0.00003  -4.9792
siesta:  163      -31.4179      -31.4178      -31.4178   0.00003  -4.9792
siesta:  164      -31.4179      -31.4178      -31.4178   0.00003  -4.9792
siesta:  165      -31.4179      -31.4178      -31.4178   0.00003  -4.9793
siesta:  166      -31.4179      -31.4178      -31.4178   0.00003  -4.9793
siesta:  167      -31.4179      -31.4178      -31.4178   0.00003  -4.9793
siesta:  168      -31.4179      -31.4178      -31.4178   0.00003  -4.9793
siesta:  169      -31.4179      -31.4178      -31.4178   0.00003  -4.9793
siesta:  170      -31.4179      -31.4178      -31.4178   0.00003  -4.9793
siesta:  171      -31.4179      -31.4178      -31.4178   0.00003  -4.9793
siesta:  172      -31.4179      -31.4178      -31.4178   0.00002  -4.9793
siesta:  173      -31.4179      -31.4178      -31.4178   0.00002  -4.9793
siesta:  174      -31.4179      -31.4178      -31.4178   0.00002  -4.9793
siesta:  175      -31.4179      -31.4178      -31.4178   0.00002  -4.9793
siesta:  176      -31.4179      -31.4178      -31.4178   0.00002  -4.9793
siesta:  177      -31.4179      -31.4178      -31.4178   0.00002  -4.9793
siesta:  178      -31.4179      -31.4178      -31.4178   0.00002  -4.9793
siesta:  179      -31.4179      -31.4178      -31.4178   0.00002  -4.9793
siesta:  180      -31.4179      -31.4178      -31.4178   0.00002  -4.9793
siesta:  181      -31.4179      -31.4178      -31.4178   0.00002  -4.9793
siesta:  182      -31.4179      -31.4178      -31.4178   0.00002  -4.9793
siesta:  183      -31.4179      -31.4178      -31.4178   0.00002  -4.9793
grdsam: Grid-cell sampling, point   0
grdsam: Grid-cell sampling, point   1
grdsam: Grid-cell sampling, point   2
grdsam: Grid-cell sampling, point   3

siesta: E_KS(eV) =              -31.4178

siesta: Atomic forces (eV/Ang):
     1    0.000000    0.000000    0.038710
     2    0.000000    0.000000   -0.038565
----------------------------------------
 Tot    0.000000    0.000000    0.000145
----------------------------------------
 Max    0.038710
 Res    0.022307    sqrt( Sum f_i^2 / 3N )
----------------------------------------
 Max    0.038710    constrained
 
mulliken: Atomic and Orbital Populations:

Species: H                   
Atom  Qatom  Qorb
               1s      1s      2py     2pz     2px     
   1  1.044   0.962   0.081   0.000   0.001   0.000
   2  0.956   0.848   0.081   0.000   0.027   0.000

mulliken: Qtot =    2.000

cgvc: Finished line minimization    1.  Mean atomic displacement =    0.0032
 
* Maximum dynamic memory allocated =   584 MB

siesta:                 ==============================
                            Begin CG move =      3
                        ==============================

outcoor: Atomic coordinates (Ang):                          
    0.00000000    0.00000000   -0.01092567   1  H          1
    0.00000000    0.00000000    0.74095099   1  H          2

siesta: iscf   Eharris(eV)      E_KS(eV)   FreeEng(eV)     dDmax   Ef(eV)
siesta:    1      -31.4178      -31.4178      -31.4178   0.00097  -4.9999
siesta:    2      -31.4178      -31.4178      -31.4178   0.00036  -4.9894
siesta:    3      -31.4178      -31.4178      -31.4178   0.00019  -4.9908
siesta:    4      -31.4178      -31.4178      -31.4178   0.00002  -4.9905
siesta:    5      -31.4178      -31.4178      -31.4178   0.00002  -4.9905
grdsam: Grid-cell sampling, point   0
grdsam: Grid-cell sampling, point   1
grdsam: Grid-cell sampling, point   2
grdsam: Grid-cell sampling, point   3

siesta: E_KS(eV) =              -31.4178

siesta: Atomic forces (eV/Ang):
     1    0.000000    0.000000   -0.078272
     2    0.000000    0.000000    0.078417
----------------------------------------
 Tot    0.000000    0.000000    0.000145
----------------------------------------
 Max    0.078417
 Res    0.045232    sqrt( Sum f_i^2 / 3N )
----------------------------------------
 Max    0.078417    constrained
 
mulliken: Atomic and Orbital Populations:

Species: H                   
Atom  Qatom  Qorb
               1s      1s      2py     2pz     2px     
   1  1.044   0.961   0.082   0.000   0.001   0.000
   2  0.956   0.848   0.082   0.000   0.026   0.000

mulliken: Qtot =    2.000
 
* Maximum dynamic memory allocated =   584 MB

siesta:                 ==============================
                            Begin CG move =      4
                        ==============================

outcoor: Atomic coordinates (Ang):                          
    0.00000000    0.00000000   -0.01205252   1  H          1
    0.00000000    0.00000000    0.74206735   1  H          2

siesta: iscf   Eharris(eV)      E_KS(eV)   FreeEng(eV)     dDmax   Ef(eV)
siesta:    1      -31.4179      -31.4179      -31.4179   0.00064  -4.9767
siesta:    2      -31.4179      -31.4179      -31.4179   0.00024  -4.9837
siesta:    3      -31.4179      -31.4179      -31.4179   0.00013  -4.9827
siesta:    4      -31.4179      -31.4179      -31.4179   0.00001  -4.9830
grdsam: Grid-cell sampling, point   0
grdsam: Grid-cell sampling, point   1
grdsam: Grid-cell sampling, point   2
grdsam: Grid-cell sampling, point   3

siesta: E_KS(eV) =              -31.4179

siesta: Atomic forces (eV/Ang):
     1    0.000000    0.000000    0.001443
     2    0.000000    0.000000   -0.001309
----------------------------------------
 Tot    0.000000    0.000000    0.000133
----------------------------------------
 Max    0.001443
 Res    0.000795    sqrt( Sum f_i^2 / 3N )
----------------------------------------
 Max    0.001443    constrained
 
mulliken: Atomic and Orbital Populations:

Species: H                   
Atom  Qatom  Qorb
               1s      1s      2py     2pz     2px     
   1  1.044   0.962   0.081   0.000   0.001   0.000
   2  0.956   0.848   0.081   0.000   0.027   0.000

mulliken: Qtot =    2.000

outcoor: Relaxed atomic coordinates (Ang):                  
    0.00000000    0.00000000   -0.01205252   1  H          1
    0.00000000    0.00000000    0.74206735   1  H          2

siesta: Eigenvalues (eV):
  ik is    eps
   1  1 -11.17   1.24   4.00   4.00   9.72  10.97  10.97  17.73  43.54  89.66
siesta: Fermi energy =      -4.982959 eV

siesta: Program's energy decomposition (eV):
siesta:-Eions   =     -26.074526
siesta: Ena     =       4.244494
siesta: Ekin    =      26.252994
siesta: Enl     =     -17.015977
siesta: DEna    =      -1.407950
siesta: DUscf   =       0.274522
siesta: DUext   =      -0.164942
siesta: Exc     =     -17.526520
siesta: eta*DQ  =       0.000000
siesta: Emadel  =       0.000000
siesta: Ekinion =       0.000000
siesta: Eharris =     -31.417902
siesta: Eso     =       0.000000
siesta: Etot    =     -31.417905
siesta: FreeEng =     -31.417905

siesta: Final energy (eV):
siesta:       Kinetic =      26.252994
siesta:       Hartree =      29.165006
siesta:    Ext. field =      -0.164942
siesta:   Exch.-corr. =     -17.526520
siesta:  Ion-electron =     -84.168068
siesta:       Ion-ion =      15.023624
siesta:       Ekinion =       0.000000
siesta:         Total =     -31.417905

siesta: Stress tensor (static) (eV/Ang**3):
siesta:     0.000021    0.000000    0.000000
siesta:     0.000000    0.000021    0.000000
siesta:     0.000000    0.000000    0.000041

siesta: Cell volume =       8000.000000 Ang**3

siesta: Pressure (static):
siesta:                Solid            Molecule  Units
siesta:          -0.00000030         -0.00000030  Ry/Bohr**3
siesta:          -0.00002754         -0.00002750  eV/Ang**3
siesta:          -0.04412659         -0.04405731  kBar

siesta: Total spin polarization (Qup-Qdown) =    0.000000
siesta: Spin vector =    0.000000    0.000000    0.000000
siesta: No SpinPolK block detected...

siesta: Electric dipole (a.u.)  =    0.000000    0.000000    0.207797
siesta: Electric dipole (Debye) =    0.000000    0.000000    0.528168
 
* Maximum dynamic memory allocated : Node    0 =   584 MB
* Maximum dynamic memory allocated : Node    1 =   580 MB
* Maximum dynamic memory allocated : Node    2 =   583 MB
* Maximum dynamic memory allocated : Node    3 =   580 MB
* Maximum memory occured during redistribXZ                   

timer: CPU execution times:
timer:  Routine       Calls   Time/call    Tot.time        %
timer:  siesta            1   19023.839   19023.839   100.00
timer:  Setup             1       3.219       3.219     0.02
timer:  bands             1       0.001       0.001     0.00
timer:  writewave         1       0.006       0.006     0.00
timer:  KSV_init          1       0.004       0.004     0.00
timer:  IterMD            5    3784.091   18920.453    99.46
timer:  hsparse           6       0.000       0.000     0.00
timer:  overfsm          10       0.009       0.090     0.00
timer:  IterSCF         348      54.365   18919.103    99.45
timer:  kinefsm          10       0.006       0.057     0.00
timer:  nlefsm           10       0.082       0.822     0.00
timer:  DHSCF           364      52.225   19010.032    99.93
timer:  DHSCF1            1      12.702      12.702     0.07
timer:  DHSCF2           21      34.674     728.155     3.83
timer:  REORD          5140       0.259    1332.023     7.00
timer:  POISON          385      32.180   12389.247    65.12
timer:  DHSCF3          364      50.093   18233.932    95.85
timer:  rhoofd          364       0.335     122.121     0.64
timer:  CELLXC          364       4.779    1739.652     9.14
timer:  vmat            348       0.156      54.416     0.29
timer:  diagon          343       0.021       7.143     0.04
timer:  rdiag           343       0.017       5.669     0.03
timer:  DHSCF4           20       1.494      29.885     0.16
timer:  dfscf            20       1.197      23.933     0.13
  
>> End of run:   9-OCT-2013  16:18:12
