ATOMS
H             0.00000000      0.00000000     -0.00998254             0.00008724     -0.00001623     -0.70710678
H             0.00000000      0.00000000      0.73998166            -0.00008724      0.00001623      0.70710678
