ATOMS
H             0.00000000      0.00000000     -0.00998254            -0.00150718      0.70710517     -0.00001641
H             0.00000000      0.00000000      0.73998166             0.00150718     -0.70710517      0.00001641
