ATOMS
H             0.00000000      0.00000000     -0.00998254             0.00118511     -0.68292443     -0.18333798
H             0.00000000      0.00000000      0.73998166             0.00118511     -0.68292443     -0.18333798
