ATOMS
H             0.00000000      0.00000000     -0.01586883            -0.00130488      0.23974732     -0.66522141
H             0.00000000      0.00000000      0.74588125            -0.00130488      0.23974732     -0.66522141
