 DBCSR| CPU Multiplication driver                                           BLAS
 DBCSR| Multrec recursion limit                                              512
 DBCSR| Multiplication stack size                                           1000
 DBCSR| Maximum elements for images                                    UNLIMITED
 DBCSR| Multiplicative factor virtual images                                   1
 DBCSR| Use multiplication densification                                       T
 DBCSR| Multiplication size stacks                                             3
 DBCSR| Use memory pool for CPU allocation                                     F
 DBCSR| Number of 3D layers                                               SINGLE
 DBCSR| Use MPI memory allocation                                              F
 DBCSR| Use RMA algorithm                                                      F
 DBCSR| Use Communication thread                                               T
 DBCSR| Communication thread load                                             60
 DBCSR| MPI: My node id                                                        0
 DBCSR| MPI: Number of nodes                                                  64
 DBCSR| OMP: Current number of threads                                         8
 DBCSR| OMP: Max number of threads                                             8
 DBCSR| Split modifier for TAS multiplication algorithm                  1.0E+00


  **** **** ******  **  PROGRAM STARTED AT               2023-11-24 17:27:49.539
 ***** ** ***  *** **   PROGRAM STARTED ON                             nid004719
 **    ****   ******    PROGRAM STARTED BY                                cahart
 ***** **    ** ** **   PROGRAM PROCESS ID                                 92323
  **** **  *******  **  PROGRAM STARTED IN /mnt/lustre/a2fs-work2/work/e05/e05/c
                                           ahart/postdoc/transport/cp2k-smeagol-
                                           examples/benchmarking/cp2k-smeagol/au
                                           -bdt/NEnergReal-64_kpoints-1-1-20/bul
                                           k-sz-q1_em-sz-q11/atoms-948/omp-8_V-0

 CP2K| version string:                 CP2K version 2022.1 (Development Version)
 CP2K| source code revision number:                                  git:215a478
 CP2K| cp2kflags: omp libint fftw3 libxc elpa parallel mpi3 scalapack mkl       
 CP2K| is freely available from                            https://www.cp2k.org/
 CP2K| Program compiled at                          Mon 30 Oct 16:32:24 GMT 2023
 CP2K| Program compiled on                                                  ln03
 CP2K| Program compiled for                                                local
 CP2K| Data directory path    /work/e05/e05/cahart/smeagol/smgl/cp2k-private-ser
 CP2K| Input file name                                                  3_0V.inp

 GLOBAL| Force Environment number                                              1
 GLOBAL| Basis set file name                                        BASIS_MOLOPT
 GLOBAL| Potential file name                                      GTH_POTENTIALS
 GLOBAL| MM Potential file name                                     MM_POTENTIAL
 GLOBAL| Coordinate file name                                             em.xyz
 GLOBAL| Method name                                                        CP2K
 GLOBAL| Project name                                                         0V
 GLOBAL| Run type                                                         ENERGY
 GLOBAL| FFT library                                                       FFTW3
 GLOBAL| Diagonalization library                                            ELPA
 GLOBAL| Minimum number of eigenvectors for ELPA usage                        16
 GLOBAL| Orthonormality check for eigenvectors                          DISABLED
 GLOBAL| Matrix multiplication library                                 ScaLAPACK
 GLOBAL| All-to-all communication in single precision                          F
 GLOBAL| FFTs using library dependent lengths                                  T
 GLOBAL| Grid backend                                                       AUTO
 GLOBAL| Global print level                                               MEDIUM
 GLOBAL| MPI I/O enabled                                                       T
 GLOBAL| Total number of message passing processes                            64
 GLOBAL| Number of threads for this process                                    8
 GLOBAL| This output is from process                                           0
 GLOBAL| Stack size for threads created by OpenMP (OMP_STACKSIZE)        default
 GLOBAL| CPU model name                          AMD EPYC 7742 64-Core Processor
 GLOBAL| CPUID                                                              1002

 MEMORY| system memory details [Kb]
 MEMORY|                        rank 0           min           max       average
 MEMORY| MemTotal            263341976     263341976     263341976     263341976
 MEMORY| MemFree             248977640     245711592     249870284     248575273
 MEMORY| Buffers                     0             0             0             0
 MEMORY| Cached                2024468       1363648       5418500       2549172
 MEMORY| Slab                  2880836       2816720       2880836       2844817
 MEMORY| SReclaimable           117076        109252        121220        114814
 MEMORY| MemLikelyFree       251119184     251119184     251345640     251239259


 *** Fundamental physical constants (SI units) ***

 *** Literature: B. J. Mohr and B. N. Taylor,
 ***             CODATA recommended values of the fundamental physical
 ***             constants: 2006, Web Version 5.1
 ***             http://physics.nist.gov/constants

 Speed of light in vacuum [m/s]                             2.99792458000000E+08
 Magnetic constant or permeability of vacuum [N/A**2]       1.25663706143592E-06
 Electric constant or permittivity of vacuum [F/m]          8.85418781762039E-12
 Planck constant (h) [J*s]                                  6.62606896000000E-34
 Planck constant (h-bar) [J*s]                              1.05457162825177E-34
 Elementary charge [C]                                      1.60217648700000E-19
 Electron mass [kg]                                         9.10938215000000E-31
 Electron g factor [ ]                                     -2.00231930436220E+00
 Proton mass [kg]                                           1.67262163700000E-27
 Fine-structure constant                                    7.29735253760000E-03
 Rydberg constant [1/m]                                     1.09737315685270E+07
 Avogadro constant [1/mol]                                  6.02214179000000E+23
 Boltzmann constant [J/K]                                   1.38065040000000E-23
 Atomic mass unit [kg]                                      1.66053878200000E-27
 Bohr radius [m]                                            5.29177208590000E-11

 *** Conversion factors ***

 [u] -> [a.u.]                                              1.82288848426455E+03
 [Angstrom] -> [Bohr] = [a.u.]                              1.88972613288564E+00
 [a.u.] = [Bohr] -> [Angstrom]                              5.29177208590000E-01
 [a.u.] -> [s]                                              2.41888432650478E-17
 [a.u.] -> [fs]                                             2.41888432650478E-02
 [a.u.] -> [J]                                              4.35974393937059E-18
 [a.u.] -> [N]                                              8.23872205491840E-08
 [a.u.] -> [K]                                              3.15774647902944E+05
 [a.u.] -> [kJ/mol]                                         2.62549961709828E+03
 [a.u.] -> [kcal/mol]                                       6.27509468713739E+02
 [a.u.] -> [Pa]                                             2.94210107994716E+13
 [a.u.] -> [bar]                                            2.94210107994716E+08
 [a.u.] -> [atm]                                            2.90362800883016E+08
 [a.u.] -> [eV]                                             2.72113838565563E+01
 [a.u.] -> [Hz]                                             6.57968392072181E+15
 [a.u.] -> [1/cm] (wave numbers)                            2.19474631370540E+05
 [a.u./Bohr**2] -> [1/cm]                                   5.14048714338585E+03
 

 CELL_TOP| Volume [angstrom^3]:                                     21363.982041
 CELL_TOP| Vector a [angstrom    24.876     0.000     0.000   |a| =    24.876000
 CELL_TOP| Vector b [angstrom     0.000    24.876     0.000   |b| =    24.876000
 CELL_TOP| Vector c [angstrom     0.000     0.000    34.524   |c| =    34.524000
 CELL_TOP| Angle (b,c), alpha [degree]:                                90.000000
 CELL_TOP| Angle (a,c), beta  [degree]:                                90.000000
 CELL_TOP| Angle (a,b), gamma [degree]:                                90.000000
 CELL_TOP| Numerically orthorhombic:                                         YES
 CELL_TOP| Periodicity                                                       XYZ

 GENERATE|  Preliminary Number of Bonds generated:                             0
 GENERATE|  Achieved consistency in connectivity generation.

 CELL| Volume [angstrom^3]:                                         21363.982041
 CELL| Vector a [angstrom]:      24.876     0.000     0.000   |a| =    24.876000
 CELL| Vector b [angstrom]:       0.000    24.876     0.000   |b| =    24.876000
 CELL| Vector c [angstrom]:       0.000     0.000    34.524   |c| =    34.524000
 CELL| Angle (b,c), alpha [degree]:                                    90.000000
 CELL| Angle (a,c), beta  [degree]:                                    90.000000
 CELL| Angle (a,b), gamma [degree]:                                    90.000000
 CELL| Numerically orthorhombic:                                             YES
 CELL| Periodicity                                                           XYZ

 CELL_REF| Volume [angstrom^3]:                                     21363.982041
 CELL_REF| Vector a [angstrom    24.876     0.000     0.000   |a| =    24.876000
 CELL_REF| Vector b [angstrom     0.000    24.876     0.000   |b| =    24.876000
 CELL_REF| Vector c [angstrom     0.000     0.000    34.524   |c| =    34.524000
 CELL_REF| Angle (b,c), alpha [degree]:                                90.000000
 CELL_REF| Angle (a,c), beta  [degree]:                                90.000000
 CELL_REF| Angle (a,b), gamma [degree]:                                90.000000
 CELL_REF| Numerically orthorhombic:                                         YES
 CELL_REF| Periodicity                                                       XYZ

 *** WARNING in cryssym.F:165 :: Symmetry library SPGLIB not available ***


 *******************************************************************************
                                    Kpoints
 *******************************************************************************
 BRILLOUIN| K-point scheme                                        Monkhorst-Pack
 BRILLOUIN| K-Point grid                                             1    1    1
 BRILLOUIN| Accuracy in Symmetry determination                      0.100000E-07
 BRILLOUIN| K-Point point group symmetrization                               OFF
 BRILLOUIN| Wavefunction type                                            COMPLEX
 BRILLOUIN| Use full k-point grid     
 BRILLOUIN| List of Kpoints [2 Pi/Bohr]                                        1
 BRILLOUIN| Number           Weight            X              Y              Z
 BRILLOUIN|     1           1.00000        0.00000        0.00000        0.00000
 *******************************************************************************

 *******************************************************************************
 *******************************************************************************
 **                                                                           **
 **     #####                         ##              ##                      **
 **    ##   ##            ##          ##              ##                      **
 **   ##     ##                       ##            ######                    **
 **   ##     ##  ##   ##  ##   #####  ##  ##   ####   ##    #####    #####    **
 **   ##     ##  ##   ##  ##  ##      ## ##   ##      ##   ##   ##  ##   ##   **
 **   ##  ## ##  ##   ##  ##  ##      ####     ###    ##   ######   ######    **
 **    ##  ###   ##   ##  ##  ##      ## ##      ##   ##   ##       ##        **
 **     #######   #####   ##   #####  ##  ##  ####    ##    #####   ##        **
 **           ##                                                    ##        **
 **                                                                           **
 **                                                ... make the atoms dance   **
 **                                                                           **
 **            Copyright (C) by CP2K developers group (2000-2022)             **
 **                      J. Chem. Phys. 152, 194103 (2020)                    **
 **                                                                           **
 *******************************************************************************

 DFT| Spin restricted Kohn-Sham (RKS) calculation                            RKS
 DFT| Multiplicity                                                             1
 DFT| Number of spin states                                                    1
 DFT| Charge                                                                   0
 DFT| Self-interaction correction (SIC)                                       NO
 DFT| Cutoffs: density                                              1.000000E-10
 DFT|          gradient                                             1.000000E-10
 DFT|          tau                                                  1.000000E-10
 DFT|          cutoff_smoothing_range                               0.000000E+00
 DFT| XC density smoothing                                                  NONE
 DFT| XC derivatives                                                          PW

 FUNCTIONAL| PADE:
 FUNCTIONAL| S. Goedecker, M. Teter and J. Hutter, Phys. Rev. B 54, 1703 (1996) 


 QS| Method:                                                                 GPW
 QS| Density plane wave grid type                        NON-SPHERICAL FULLSPACE
 QS| Number of grid levels:                                                    4
 QS| Density cutoff [a.u.]:                                                200.0
 QS| Multi grid cutoff [a.u.]: 1) grid level                               200.0
 QS|                           2) grid level                                66.7
 QS|                           3) grid level                                22.2
 QS|                           4) grid level                                 7.4
 QS| Grid level progression factor:                                          3.0
 QS| Relative density cutoff [a.u.]:                                        20.0
 QS| Interaction thresholds: eps_pgf_orb:                                1.0E-05
 QS|                         eps_filter_matrix:                          0.0E+00
 QS|                         eps_core_charge:                            1.0E-12
 QS|                         eps_rho_gspace:                             1.0E-10
 QS|                         eps_rho_rspace:                             1.0E-10
 QS|                         eps_gvg_rspace:                             1.0E-05
 QS|                         eps_ppl:                                    1.0E-02
 QS|                         eps_ppnl:                                   1.0E-07


 ATOMIC KIND INFORMATION

  1. Atomic kind: Au_bulk                               Number of atoms:     576

     Orbital Basis Set                                             SZV-CUSTOM-q1

       Number of orbital shell sets:                                           1
       Number of orbital shells:                                               1
       Number of primitive Cartesian functions:                                5
       Number of Cartesian basis functions:                                    1
       Number of spherical basis functions:                                    1
       Norm type:                                                              2

       Normalised Cartesian orbitals:

                        Set   Shell   Orbital            Exponent    Coefficient

                          1       1    1s                0.888736      -1.612085
                                                         0.793745       3.367506
                                                         0.708932      -1.928374
                                                         0.148335       0.135826
                                                         0.053004       0.035222

       Atomic covalent radius [Angstrom]:                                  1.340

       Atomic van der Waals radius [Angstrom]:                             1.660

     GTH Potential information for                                   GTH-PADE-q1

       Description:                       Goedecker-Teter-Hutter pseudopotential
                                           Goedecker et al., PRB 54, 1703 (1996)
                                          Hartwigsen et al., PRB 58, 3641 (1998)
                                                      Krack, TCA 114, 145 (2005)

       Gaussian exponent of the core charge distribution:               1.183432
       Electronic configuration (s p d ...):                                   1

       Parameters of the local part of the GTH pseudopotential:

                          rloc        C1          C2          C3          C4
                        0.650000   -1.963712   -1.698123

       Parameters of the non-local part of the GTH pseudopotential:

                   l      r(l)      h(i,j,l)

                   0    0.919308    1.539599    0.181557   -0.193238
                                    0.181557   -0.468779    0.498938
                                   -0.193238    0.498938   -0.792039
                   1    1.140351    0.471229    0.210248   -0.062360
                                    0.210248   -0.497538    0.147570
                                   -0.062360    0.147570   -0.209758

  2. Atomic kind: Au                                    Number of atoms:     360

     Orbital Basis Set                                         SZV-MOLOPT-SR-GTH

       Number of orbital shell sets:                                           1
       Number of orbital shells:                                               3
       Number of primitive Cartesian functions:                                5
       Number of Cartesian basis functions:                                   10
       Number of spherical basis functions:                                    9
       Norm type:                                                              2

       Normalised Cartesian orbitals:

                        Set   Shell   Orbital            Exponent    Coefficient

                          1       1    2s                2.950008       0.074626
                                                         1.563057      -0.007898
                                                         0.666664      -0.297688
                                                         0.251083       0.136809
                                                         0.081714       0.088198

                          1       2    3px               2.950008       0.148824
                                                         1.563057       0.025430
                                                         0.666664      -0.123003
                                                         0.251083       0.033648
                                                         0.081714       0.059008
                          1       2    3py               2.950008       0.148824
                                                         1.563057       0.025430
                                                         0.666664      -0.123003
                                                         0.251083       0.033648
                                                         0.081714       0.059008
                          1       2    3pz               2.950008       0.148824
                                                         1.563057       0.025430
                                                         0.666664      -0.123003
                                                         0.251083       0.033648
                                                         0.081714       0.059008

                          1       3    4dx2              2.950008      -0.139595
                                                         1.563057       1.319655
                                                         0.666664       0.377081
                                                         0.251083       0.046872
                                                         0.081714       0.001393
                          1       3    4dxy              2.950008      -0.241786
                                                         1.563057       2.285709
                                                         0.666664       0.653124
                                                         0.251083       0.081185
                                                         0.081714       0.002412
                          1       3    4dxz              2.950008      -0.241786
                                                         1.563057       2.285709
                                                         0.666664       0.653124
                                                         0.251083       0.081185
                                                         0.081714       0.002412
                          1       3    4dy2              2.950008      -0.139595
                                                         1.563057       1.319655
                                                         0.666664       0.377081
                                                         0.251083       0.046872
                                                         0.081714       0.001393
                          1       3    4dyz              2.950008      -0.241786
                                                         1.563057       2.285709
                                                         0.666664       0.653124
                                                         0.251083       0.081185
                                                         0.081714       0.002412
                          1       3    4dz2              2.950008      -0.139595
                                                         1.563057       1.319655
                                                         0.666664       0.377081
                                                         0.251083       0.046872
                                                         0.081714       0.001393

       Atomic covalent radius [Angstrom]:                                  1.340

       Atomic van der Waals radius [Angstrom]:                             1.660

     GTH Potential information for                                  GTH-PADE-q11

       Description:                       Goedecker-Teter-Hutter pseudopotential
                                           Goedecker et al., PRB 54, 1703 (1996)
                                          Hartwigsen et al., PRB 58, 3641 (1998)
                                                      Krack, TCA 114, 145 (2005)

       Gaussian exponent of the core charge distribution:               1.436369
       Electronic configuration (s p d ...):                           1   0  10

       Parameters of the local part of the GTH pseudopotential:

                          rloc        C1          C2          C3          C4
                        0.590000   11.604428

       Parameters of the non-local part of the GTH pseudopotential:

                   l      r(l)      h(i,j,l)

                   0    0.521180    2.538614   -1.046137
                                   -1.046137    2.701113
                   1    0.630613    0.394853   -0.869592
                                   -0.869592    2.057831
                   2    0.440706   -4.719070    0.727771
                                    0.727771   -1.650429

  3. Atomic kind: S                                     Number of atoms:       2

     Orbital Basis Set                                        DZVP-MOLOPT-SR-GTH

       Number of orbital shell sets:                                           1
       Number of orbital shells:                                               5
       Number of primitive Cartesian functions:                                4
       Number of Cartesian basis functions:                                   14
       Number of spherical basis functions:                                   13
       Norm type:                                                              2

       Normalised Cartesian orbitals:

                        Set   Shell   Orbital            Exponent    Coefficient

                          1       1    2s                2.215855       0.308496
                                                         1.131471       0.138505
                                                         0.410168      -0.373736
                                                         0.140587      -0.040370

                          1       2    3s                2.215855      -0.329528
                                                         1.131471      -0.517509
                                                         0.410168       0.787368
                                                         0.140587      -0.322786

                          1       3    3px               2.215855       0.420434
                                                         1.131471      -0.319283
                                                         0.410168      -0.335323
                                                         0.140587      -0.030976
                          1       3    3py               2.215855       0.420434
                                                         1.131471      -0.319283
                                                         0.410168      -0.335323
                                                         0.140587      -0.030976
                          1       3    3pz               2.215855       0.420434
                                                         1.131471      -0.319283
                                                         0.410168      -0.335323
                                                         0.140587      -0.030976

                          1       4    4px               2.215855       0.241296
                                                         1.131471      -0.170582
                                                         0.410168      -0.186977
                                                         0.140587       0.153509
                          1       4    4py               2.215855       0.241296
                                                         1.131471      -0.170582
                                                         0.410168      -0.186977
                                                         0.140587       0.153509
                          1       4    4pz               2.215855       0.241296
                                                         1.131471      -0.170582
                                                         0.410168      -0.186977
                                                         0.140587       0.153509

                          1       5    4dx2              2.215855       0.573559
                                                         1.131471       0.544926
                                                         0.410168       0.228284
                                                         0.140587       0.008811
                          1       5    4dxy              2.215855       0.993434
                                                         1.131471       0.943840
                                                         0.410168       0.395400
                                                         0.140587       0.015260
                          1       5    4dxz              2.215855       0.993434
                                                         1.131471       0.943840
                                                         0.410168       0.395400
                                                         0.140587       0.015260
                          1       5    4dy2              2.215855       0.573559
                                                         1.131471       0.544926
                                                         0.410168       0.228284
                                                         0.140587       0.008811
                          1       5    4dyz              2.215855       0.993434
                                                         1.131471       0.943840
                                                         0.410168       0.395400
                                                         0.140587       0.015260
                          1       5    4dz2              2.215855       0.573559
                                                         1.131471       0.544926
                                                         0.410168       0.228284
                                                         0.140587       0.008811

       Atomic covalent radius [Angstrom]:                                  1.020

       Atomic van der Waals radius [Angstrom]:                             1.800

     GTH Potential information for                                   GTH-PADE-q6

       Description:                       Goedecker-Teter-Hutter pseudopotential
                                           Goedecker et al., PRB 54, 1703 (1996)
                                          Hartwigsen et al., PRB 58, 3641 (1998)
                                                      Krack, TCA 114, 145 (2005)

       Gaussian exponent of the core charge distribution:               2.834467
       Electronic configuration (s p d ...):                               2   4

       Parameters of the local part of the GTH pseudopotential:

                          rloc        C1          C2          C3          C4
                        0.420000   -6.554492

       Parameters of the non-local part of the GTH pseudopotential:

                   l      r(l)      h(i,j,l)

                   0    0.361757    7.905303   -1.731881
                                   -1.731881    4.471698
                   1    0.405285    3.866579

  4. Atomic kind: C                                     Number of atoms:       6

     Orbital Basis Set                                        DZVP-MOLOPT-SR-GTH

       Number of orbital shell sets:                                           1
       Number of orbital shells:                                               5
       Number of primitive Cartesian functions:                                5
       Number of Cartesian basis functions:                                   14
       Number of spherical basis functions:                                   13
       Norm type:                                                              2

       Normalised Cartesian orbitals:

                        Set   Shell   Orbital            Exponent    Coefficient

                          1       1    2s                5.605331       0.322515
                                                         2.113016       0.213043
                                                         0.769911      -0.209686
                                                         0.348157      -0.219794
                                                         0.128212      -0.022789

                          1       2    3s                5.605331       0.552234
                                                         2.113016       0.082072
                                                         0.769911       0.007843
                                                         0.348157       0.136893
                                                         0.128212       0.074283

                          1       3    3px               5.605331      -0.703879
                                                         2.113016      -0.642521
                                                         0.769911      -0.374851
                                                         0.348157      -0.139743
                                                         0.128212      -0.027849
                          1       3    3py               5.605331      -0.703879
                                                         2.113016      -0.642521
                                                         0.769911      -0.374851
                                                         0.348157      -0.139743
                                                         0.128212      -0.027849
                          1       3    3pz               5.605331      -0.703879
                                                         2.113016      -0.642521
                                                         0.769911      -0.374851
                                                         0.348157      -0.139743
                                                         0.128212      -0.027849

                          1       4    4px               5.605331      -0.480376
                                                         2.113016      -0.552894
                                                         0.769911      -0.316145
                                                         0.348157       0.210505
                                                         0.128212       0.076095
                          1       4    4py               5.605331      -0.480376
                                                         2.113016      -0.552894
                                                         0.769911      -0.316145
                                                         0.348157       0.210505
                                                         0.128212       0.076095
                          1       4    4pz               5.605331      -0.480376
                                                         2.113016      -0.552894
                                                         0.769911      -0.316145
                                                         0.348157       0.210505
                                                         0.128212       0.076095

                          1       5    4dx2              5.605331       0.640026
                                                         2.113016       0.274300
                                                         0.769911       0.446711
                                                         0.348157       0.028674
                                                         0.128212       0.029790
                          1       5    4dxy              5.605331       1.108557
                                                         2.113016       0.475102
                                                         0.769911       0.773726
                                                         0.348157       0.049666
                                                         0.128212       0.051599
                          1       5    4dxz              5.605331       1.108557
                                                         2.113016       0.475102
                                                         0.769911       0.773726
                                                         0.348157       0.049666
                                                         0.128212       0.051599
                          1       5    4dy2              5.605331       0.640026
                                                         2.113016       0.274300
                                                         0.769911       0.446711
                                                         0.348157       0.028674
                                                         0.128212       0.029790
                          1       5    4dyz              5.605331       1.108557
                                                         2.113016       0.475102
                                                         0.769911       0.773726
                                                         0.348157       0.049666
                                                         0.128212       0.051599
                          1       5    4dz2              5.605331       0.640026
                                                         2.113016       0.274300
                                                         0.769911       0.446711
                                                         0.348157       0.028674
                                                         0.128212       0.029790

       Atomic covalent radius [Angstrom]:                                  0.770

       Atomic van der Waals radius [Angstrom]:                             1.700

     GTH Potential information for                                   GTH-PADE-q4

       Description:                       Goedecker-Teter-Hutter pseudopotential
                                           Goedecker et al., PRB 54, 1703 (1996)
                                          Hartwigsen et al., PRB 58, 3641 (1998)
                                                      Krack, TCA 114, 145 (2005)

       Gaussian exponent of the core charge distribution:               4.109048
       Electronic configuration (s p d ...):                               2   2

       Parameters of the local part of the GTH pseudopotential:

                          rloc        C1          C2          C3          C4
                        0.348830   -8.513771    1.228432

       Parameters of the non-local part of the GTH pseudopotential:

                   l      r(l)      h(i,j,l)

                   0    0.304553    9.522842
                   1    0.232677

  5. Atomic kind: H                                     Number of atoms:       4

     Orbital Basis Set                                        DZVP-MOLOPT-SR-GTH

       Number of orbital shell sets:                                           1
       Number of orbital shells:                                               3
       Number of primitive Cartesian functions:                                5
       Number of Cartesian basis functions:                                    5
       Number of spherical basis functions:                                    5
       Norm type:                                                              2

       Normalised Cartesian orbitals:

                        Set   Shell   Orbital            Exponent    Coefficient

                          1       1    2s               10.068468      -0.133023
                                                         2.680223      -0.177618
                                                         0.791502      -0.258419
                                                         0.239116      -0.107525
                                                         0.082193      -0.014019

                          1       2    3s               10.068468       0.344673
                                                         2.680223       1.819821
                                                         0.791502      -0.999069
                                                         0.239116       0.017430
                                                         0.082193       0.082660

                          1       3    3px              10.068468       0.155326
                                                         2.680223       0.367157
                                                         0.791502       0.311480
                                                         0.239116       0.080105
                                                         0.082193       0.033440
                          1       3    3py              10.068468       0.155326
                                                         2.680223       0.367157
                                                         0.791502       0.311480
                                                         0.239116       0.080105
                                                         0.082193       0.033440
                          1       3    3pz              10.068468       0.155326
                                                         2.680223       0.367157
                                                         0.791502       0.311480
                                                         0.239116       0.080105
                                                         0.082193       0.033440

       Atomic covalent radius [Angstrom]:                                  0.320

       Atomic van der Waals radius [Angstrom]:                             1.090

     GTH Potential information for                                   GTH-PADE-q1

       Description:                       Goedecker-Teter-Hutter pseudopotential
                                           Goedecker et al., PRB 54, 1703 (1996)
                                          Hartwigsen et al., PRB 58, 3641 (1998)
                                                      Krack, TCA 114, 145 (2005)

       Gaussian exponent of the core charge distribution:              12.500000
       Electronic configuration (s p d ...):                                   1

       Parameters of the local part of the GTH pseudopotential:

                          rloc        C1          C2          C3          C4
                        0.200000   -4.180237    0.725075


 MOLECULE KIND INFORMATION


 All atoms are their own molecule, skipping detailed information


 TOTAL NUMBERS AND MAXIMUM NUMBERS

  Total number of            - Atomic kinds:                                   5
                             - Atoms:                                        948
                             - Shell sets:                                   948
                             - Shells:                                      1708
                             - Primitive Cartesian functions:               4738
                             - Cartesian basis functions:                   4308
                             - Spherical basis functions:                   3940

  Maximum angular momentum of- Orbital basis functions:                        2
                             - Local part of the GTH pseudopotential:          2
                             - Non-local part of the GTH pseudopotential:      5


 MODULE QUICKSTEP: ATOMIC COORDINATES IN ANGSTROM

   Atom Kind Element         X             Y             Z       Z(eff)     Mass
      1    1 Au   79      0.000000      0.000000      0.000000   1.0000 196.9666
      2    1 Au   79      0.000000      4.146000      0.000000   1.0000 196.9666
      3    1 Au   79      0.000000      8.292000      0.000000   1.0000 196.9666
      4    1 Au   79      0.000000     12.438000      0.000000   1.0000 196.9666
      5    1 Au   79      0.000000     16.584000      0.000000   1.0000 196.9666
      6    1 Au   79      0.000000     20.730000      0.000000   1.0000 196.9666
      7    1 Au   79      2.073000      2.073000      0.000000   1.0000 196.9666
      8    1 Au   79      2.073000      6.219000      0.000000   1.0000 196.9666
      9    1 Au   79      2.073000     10.365000      0.000000   1.0000 196.9666
     10    1 Au   79      2.073000     14.511000      0.000000   1.0000 196.9666
     11    1 Au   79      2.073000     18.657000      0.000000   1.0000 196.9666
     12    1 Au   79      2.073000     22.803000      0.000000   1.0000 196.9666
     13    1 Au   79      4.146000      0.000000      0.000000   1.0000 196.9666
     14    1 Au   79      4.146000      4.146000      0.000000   1.0000 196.9666
     15    1 Au   79      4.146000      8.292000      0.000000   1.0000 196.9666
     16    1 Au   79      4.146000     12.438000      0.000000   1.0000 196.9666
     17    1 Au   79      4.146000     16.584000      0.000000   1.0000 196.9666
     18    1 Au   79      4.146000     20.730000      0.000000   1.0000 196.9666
     19    1 Au   79      6.219000      2.073000      0.000000   1.0000 196.9666
     20    1 Au   79      6.219000      6.219000      0.000000   1.0000 196.9666
     21    1 Au   79      6.219000     10.365000      0.000000   1.0000 196.9666
     22    1 Au   79      6.219000     14.511000      0.000000   1.0000 196.9666
     23    1 Au   79      6.219000     18.657000      0.000000   1.0000 196.9666
     24    1 Au   79      6.219000     22.803000      0.000000   1.0000 196.9666
     25    1 Au   79      8.292000      0.000000      0.000000   1.0000 196.9666
     26    1 Au   79      8.292000      4.146000      0.000000   1.0000 196.9666
     27    1 Au   79      8.292000      8.292000      0.000000   1.0000 196.9666
     28    1 Au   79      8.292000     12.438000      0.000000   1.0000 196.9666
     29    1 Au   79      8.292000     16.584000      0.000000   1.0000 196.9666
     30    1 Au   79      8.292000     20.730000      0.000000   1.0000 196.9666
     31    1 Au   79     10.365000      2.073000      0.000000   1.0000 196.9666
     32    1 Au   79     10.365000      6.219000      0.000000   1.0000 196.9666
     33    1 Au   79     10.365000     10.365000      0.000000   1.0000 196.9666
     34    1 Au   79     10.365000     14.511000      0.000000   1.0000 196.9666
     35    1 Au   79     10.365000     18.657000      0.000000   1.0000 196.9666
     36    1 Au   79     10.365000     22.803000      0.000000   1.0000 196.9666
     37    1 Au   79     12.438000      0.000000      0.000000   1.0000 196.9666
     38    1 Au   79     12.438000      4.146000      0.000000   1.0000 196.9666
     39    1 Au   79     12.438000      8.292000      0.000000   1.0000 196.9666
     40    1 Au   79     12.438000     12.438000      0.000000   1.0000 196.9666
     41    1 Au   79     12.438000     16.584000      0.000000   1.0000 196.9666
     42    1 Au   79     12.438000     20.730000      0.000000   1.0000 196.9666
     43    1 Au   79     14.511000      2.073000      0.000000   1.0000 196.9666
     44    1 Au   79     14.511000      6.219000      0.000000   1.0000 196.9666
     45    1 Au   79     14.511000     10.365000      0.000000   1.0000 196.9666
     46    1 Au   79     14.511000     14.511000      0.000000   1.0000 196.9666
     47    1 Au   79     14.511000     18.657000      0.000000   1.0000 196.9666
     48    1 Au   79     14.511000     22.803000      0.000000   1.0000 196.9666
     49    1 Au   79     16.584000      0.000000      0.000000   1.0000 196.9666
     50    1 Au   79     16.584000      4.146000      0.000000   1.0000 196.9666
     51    1 Au   79     16.584000      8.292000      0.000000   1.0000 196.9666
     52    1 Au   79     16.584000     12.438000      0.000000   1.0000 196.9666
     53    1 Au   79     16.584000     16.584000      0.000000   1.0000 196.9666
     54    1 Au   79     16.584000     20.730000      0.000000   1.0000 196.9666
     55    1 Au   79     18.657000      2.073000      0.000000   1.0000 196.9666
     56    1 Au   79     18.657000      6.219000      0.000000   1.0000 196.9666
     57    1 Au   79     18.657000     10.365000      0.000000   1.0000 196.9666
     58    1 Au   79     18.657000     14.511000      0.000000   1.0000 196.9666
     59    1 Au   79     18.657000     18.657000      0.000000   1.0000 196.9666
     60    1 Au   79     18.657000     22.803000      0.000000   1.0000 196.9666
     61    1 Au   79     20.730000      0.000000      0.000000   1.0000 196.9666
     62    1 Au   79     20.730000      4.146000      0.000000   1.0000 196.9666
     63    1 Au   79     20.730000      8.292000      0.000000   1.0000 196.9666
     64    1 Au   79     20.730000     12.438000      0.000000   1.0000 196.9666
     65    1 Au   79     20.730000     16.584000      0.000000   1.0000 196.9666
     66    1 Au   79     20.730000     20.730000      0.000000   1.0000 196.9666
     67    1 Au   79     22.803000      2.073000      0.000000   1.0000 196.9666
     68    1 Au   79     22.803000      6.219000      0.000000   1.0000 196.9666
     69    1 Au   79     22.803000     10.365000      0.000000   1.0000 196.9666
     70    1 Au   79     22.803000     14.511000      0.000000   1.0000 196.9666
     71    1 Au   79     22.803000     18.657000      0.000000   1.0000 196.9666
     72    1 Au   79     22.803000     22.803000      0.000000   1.0000 196.9666
     73    1 Au   79      0.000000      2.073000      2.073000   1.0000 196.9666
     74    1 Au   79      0.000000      6.219000      2.073000   1.0000 196.9666
     75    1 Au   79      0.000000     10.365000      2.073000   1.0000 196.9666
     76    1 Au   79      0.000000     14.511000      2.073000   1.0000 196.9666
     77    1 Au   79      0.000000     18.657000      2.073000   1.0000 196.9666
     78    1 Au   79      0.000000     22.803000      2.073000   1.0000 196.9666
     79    1 Au   79      2.073000      0.000000      2.073000   1.0000 196.9666
     80    1 Au   79      2.073000      4.146000      2.073000   1.0000 196.9666
     81    1 Au   79      2.073000      8.292000      2.073000   1.0000 196.9666
     82    1 Au   79      2.073000     12.438000      2.073000   1.0000 196.9666
     83    1 Au   79      2.073000     16.584000      2.073000   1.0000 196.9666
     84    1 Au   79      2.073000     20.730000      2.073000   1.0000 196.9666
     85    1 Au   79      4.146000      2.073000      2.073000   1.0000 196.9666
     86    1 Au   79      4.146000      6.219000      2.073000   1.0000 196.9666
     87    1 Au   79      4.146000     10.365000      2.073000   1.0000 196.9666
     88    1 Au   79      4.146000     14.511000      2.073000   1.0000 196.9666
     89    1 Au   79      4.146000     18.657000      2.073000   1.0000 196.9666
     90    1 Au   79      4.146000     22.803000      2.073000   1.0000 196.9666
     91    1 Au   79      6.219000      0.000000      2.073000   1.0000 196.9666
     92    1 Au   79      6.219000      4.146000      2.073000   1.0000 196.9666
     93    1 Au   79      6.219000      8.292000      2.073000   1.0000 196.9666
     94    1 Au   79      6.219000     12.438000      2.073000   1.0000 196.9666
     95    1 Au   79      6.219000     16.584000      2.073000   1.0000 196.9666
     96    1 Au   79      6.219000     20.730000      2.073000   1.0000 196.9666
     97    1 Au   79      8.292000      2.073000      2.073000   1.0000 196.9666
     98    1 Au   79      8.292000      6.219000      2.073000   1.0000 196.9666
     99    1 Au   79      8.292000     10.365000      2.073000   1.0000 196.9666
    100    1 Au   79      8.292000     14.511000      2.073000   1.0000 196.9666
    101    1 Au   79      8.292000     18.657000      2.073000   1.0000 196.9666
    102    1 Au   79      8.292000     22.803000      2.073000   1.0000 196.9666
    103    1 Au   79     10.365000      0.000000      2.073000   1.0000 196.9666
    104    1 Au   79     10.365000      4.146000      2.073000   1.0000 196.9666
    105    1 Au   79     10.365000      8.292000      2.073000   1.0000 196.9666
    106    1 Au   79     10.365000     12.438000      2.073000   1.0000 196.9666
    107    1 Au   79     10.365000     16.584000      2.073000   1.0000 196.9666
    108    1 Au   79     10.365000     20.730000      2.073000   1.0000 196.9666
    109    1 Au   79     12.438000      2.073000      2.073000   1.0000 196.9666
    110    1 Au   79     12.438000      6.219000      2.073000   1.0000 196.9666
    111    1 Au   79     12.438000     10.365000      2.073000   1.0000 196.9666
    112    1 Au   79     12.438000     14.511000      2.073000   1.0000 196.9666
    113    1 Au   79     12.438000     18.657000      2.073000   1.0000 196.9666
    114    1 Au   79     12.438000     22.803000      2.073000   1.0000 196.9666
    115    1 Au   79     14.511000      0.000000      2.073000   1.0000 196.9666
    116    1 Au   79     14.511000      4.146000      2.073000   1.0000 196.9666
    117    1 Au   79     14.511000      8.292000      2.073000   1.0000 196.9666
    118    1 Au   79     14.511000     12.438000      2.073000   1.0000 196.9666
    119    1 Au   79     14.511000     16.584000      2.073000   1.0000 196.9666
    120    1 Au   79     14.511000     20.730000      2.073000   1.0000 196.9666
    121    1 Au   79     16.584000      2.073000      2.073000   1.0000 196.9666
    122    1 Au   79     16.584000      6.219000      2.073000   1.0000 196.9666
    123    1 Au   79     16.584000     10.365000      2.073000   1.0000 196.9666
    124    1 Au   79     16.584000     14.511000      2.073000   1.0000 196.9666
    125    1 Au   79     16.584000     18.657000      2.073000   1.0000 196.9666
    126    1 Au   79     16.584000     22.803000      2.073000   1.0000 196.9666
    127    1 Au   79     18.657000      0.000000      2.073000   1.0000 196.9666
    128    1 Au   79     18.657000      4.146000      2.073000   1.0000 196.9666
    129    1 Au   79     18.657000      8.292000      2.073000   1.0000 196.9666
    130    1 Au   79     18.657000     12.438000      2.073000   1.0000 196.9666
    131    1 Au   79     18.657000     16.584000      2.073000   1.0000 196.9666
    132    1 Au   79     18.657000     20.730000      2.073000   1.0000 196.9666
    133    1 Au   79     20.730000      2.073000      2.073000   1.0000 196.9666
    134    1 Au   79     20.730000      6.219000      2.073000   1.0000 196.9666
    135    1 Au   79     20.730000     10.365000      2.073000   1.0000 196.9666
    136    1 Au   79     20.730000     14.511000      2.073000   1.0000 196.9666
    137    1 Au   79     20.730000     18.657000      2.073000   1.0000 196.9666
    138    1 Au   79     20.730000     22.803000      2.073000   1.0000 196.9666
    139    1 Au   79     22.803000      0.000000      2.073000   1.0000 196.9666
    140    1 Au   79     22.803000      4.146000      2.073000   1.0000 196.9666
    141    1 Au   79     22.803000      8.292000      2.073000   1.0000 196.9666
    142    1 Au   79     22.803000     12.438000      2.073000   1.0000 196.9666
    143    1 Au   79     22.803000     16.584000      2.073000   1.0000 196.9666
    144    1 Au   79     22.803000     20.730000      2.073000   1.0000 196.9666
    145    1 Au   79      0.000000      0.000000      4.146000   1.0000 196.9666
    146    1 Au   79      0.000000      4.146000      4.146000   1.0000 196.9666
    147    1 Au   79      0.000000      8.292000      4.146000   1.0000 196.9666
    148    1 Au   79      0.000000     12.438000      4.146000   1.0000 196.9666
    149    1 Au   79      0.000000     16.584000      4.146000   1.0000 196.9666
    150    1 Au   79      0.000000     20.730000      4.146000   1.0000 196.9666
    151    1 Au   79      2.073000      2.073000      4.146000   1.0000 196.9666
    152    1 Au   79      2.073000      6.219000      4.146000   1.0000 196.9666
    153    1 Au   79      2.073000     10.365000      4.146000   1.0000 196.9666
    154    1 Au   79      2.073000     14.511000      4.146000   1.0000 196.9666
    155    1 Au   79      2.073000     18.657000      4.146000   1.0000 196.9666
    156    1 Au   79      2.073000     22.803000      4.146000   1.0000 196.9666
    157    1 Au   79      4.146000      0.000000      4.146000   1.0000 196.9666
    158    1 Au   79      4.146000      4.146000      4.146000   1.0000 196.9666
    159    1 Au   79      4.146000      8.292000      4.146000   1.0000 196.9666
    160    1 Au   79      4.146000     12.438000      4.146000   1.0000 196.9666
    161    1 Au   79      4.146000     16.584000      4.146000   1.0000 196.9666
    162    1 Au   79      4.146000     20.730000      4.146000   1.0000 196.9666
    163    1 Au   79      6.219000      2.073000      4.146000   1.0000 196.9666
    164    1 Au   79      6.219000      6.219000      4.146000   1.0000 196.9666
    165    1 Au   79      6.219000     10.365000      4.146000   1.0000 196.9666
    166    1 Au   79      6.219000     14.511000      4.146000   1.0000 196.9666
    167    1 Au   79      6.219000     18.657000      4.146000   1.0000 196.9666
    168    1 Au   79      6.219000     22.803000      4.146000   1.0000 196.9666
    169    1 Au   79      8.292000      0.000000      4.146000   1.0000 196.9666
    170    1 Au   79      8.292000      4.146000      4.146000   1.0000 196.9666
    171    1 Au   79      8.292000      8.292000      4.146000   1.0000 196.9666
    172    1 Au   79      8.292000     12.438000      4.146000   1.0000 196.9666
    173    1 Au   79      8.292000     16.584000      4.146000   1.0000 196.9666
    174    1 Au   79      8.292000     20.730000      4.146000   1.0000 196.9666
    175    1 Au   79     10.365000      2.073000      4.146000   1.0000 196.9666
    176    1 Au   79     10.365000      6.219000      4.146000   1.0000 196.9666
    177    1 Au   79     10.365000     10.365000      4.146000   1.0000 196.9666
    178    1 Au   79     10.365000     14.511000      4.146000   1.0000 196.9666
    179    1 Au   79     10.365000     18.657000      4.146000   1.0000 196.9666
    180    1 Au   79     10.365000     22.803000      4.146000   1.0000 196.9666
    181    1 Au   79     12.438000      0.000000      4.146000   1.0000 196.9666
    182    1 Au   79     12.438000      4.146000      4.146000   1.0000 196.9666
    183    1 Au   79     12.438000      8.292000      4.146000   1.0000 196.9666
    184    1 Au   79     12.438000     12.438000      4.146000   1.0000 196.9666
    185    1 Au   79     12.438000     16.584000      4.146000   1.0000 196.9666
    186    1 Au   79     12.438000     20.730000      4.146000   1.0000 196.9666
    187    1 Au   79     14.511000      2.073000      4.146000   1.0000 196.9666
    188    1 Au   79     14.511000      6.219000      4.146000   1.0000 196.9666
    189    1 Au   79     14.511000     10.365000      4.146000   1.0000 196.9666
    190    1 Au   79     14.511000     14.511000      4.146000   1.0000 196.9666
    191    1 Au   79     14.511000     18.657000      4.146000   1.0000 196.9666
    192    1 Au   79     14.511000     22.803000      4.146000   1.0000 196.9666
    193    1 Au   79     16.584000      0.000000      4.146000   1.0000 196.9666
    194    1 Au   79     16.584000      4.146000      4.146000   1.0000 196.9666
    195    1 Au   79     16.584000      8.292000      4.146000   1.0000 196.9666
    196    1 Au   79     16.584000     12.438000      4.146000   1.0000 196.9666
    197    1 Au   79     16.584000     16.584000      4.146000   1.0000 196.9666
    198    1 Au   79     16.584000     20.730000      4.146000   1.0000 196.9666
    199    1 Au   79     18.657000      2.073000      4.146000   1.0000 196.9666
    200    1 Au   79     18.657000      6.219000      4.146000   1.0000 196.9666
    201    1 Au   79     18.657000     10.365000      4.146000   1.0000 196.9666
    202    1 Au   79     18.657000     14.511000      4.146000   1.0000 196.9666
    203    1 Au   79     18.657000     18.657000      4.146000   1.0000 196.9666
    204    1 Au   79     18.657000     22.803000      4.146000   1.0000 196.9666
    205    1 Au   79     20.730000      0.000000      4.146000   1.0000 196.9666
    206    1 Au   79     20.730000      4.146000      4.146000   1.0000 196.9666
    207    1 Au   79     20.730000      8.292000      4.146000   1.0000 196.9666
    208    1 Au   79     20.730000     12.438000      4.146000   1.0000 196.9666
    209    1 Au   79     20.730000     16.584000      4.146000   1.0000 196.9666
    210    1 Au   79     20.730000     20.730000      4.146000   1.0000 196.9666
    211    1 Au   79     22.803000      2.073000      4.146000   1.0000 196.9666
    212    1 Au   79     22.803000      6.219000      4.146000   1.0000 196.9666
    213    1 Au   79     22.803000     10.365000      4.146000   1.0000 196.9666
    214    1 Au   79     22.803000     14.511000      4.146000   1.0000 196.9666
    215    1 Au   79     22.803000     18.657000      4.146000   1.0000 196.9666
    216    1 Au   79     22.803000     22.803000      4.146000   1.0000 196.9666
    217    1 Au   79      0.000000      2.073000      6.219000   1.0000 196.9666
    218    1 Au   79      0.000000      6.219000      6.219000   1.0000 196.9666
    219    1 Au   79      0.000000     10.365000      6.219000   1.0000 196.9666
    220    1 Au   79      0.000000     14.511000      6.219000   1.0000 196.9666
    221    1 Au   79      0.000000     18.657000      6.219000   1.0000 196.9666
    222    1 Au   79      0.000000     22.803000      6.219000   1.0000 196.9666
    223    1 Au   79      2.073000      0.000000      6.219000   1.0000 196.9666
    224    1 Au   79      2.073000      4.146000      6.219000   1.0000 196.9666
    225    1 Au   79      2.073000      8.292000      6.219000   1.0000 196.9666
    226    1 Au   79      2.073000     12.438000      6.219000   1.0000 196.9666
    227    1 Au   79      2.073000     16.584000      6.219000   1.0000 196.9666
    228    1 Au   79      2.073000     20.730000      6.219000   1.0000 196.9666
    229    1 Au   79      4.146000      2.073000      6.219000   1.0000 196.9666
    230    1 Au   79      4.146000      6.219000      6.219000   1.0000 196.9666
    231    1 Au   79      4.146000     10.365000      6.219000   1.0000 196.9666
    232    1 Au   79      4.146000     14.511000      6.219000   1.0000 196.9666
    233    1 Au   79      4.146000     18.657000      6.219000   1.0000 196.9666
    234    1 Au   79      4.146000     22.803000      6.219000   1.0000 196.9666
    235    1 Au   79      6.219000      0.000000      6.219000   1.0000 196.9666
    236    1 Au   79      6.219000      4.146000      6.219000   1.0000 196.9666
    237    1 Au   79      6.219000      8.292000      6.219000   1.0000 196.9666
    238    1 Au   79      6.219000     12.438000      6.219000   1.0000 196.9666
    239    1 Au   79      6.219000     16.584000      6.219000   1.0000 196.9666
    240    1 Au   79      6.219000     20.730000      6.219000   1.0000 196.9666
    241    1 Au   79      8.292000      2.073000      6.219000   1.0000 196.9666
    242    1 Au   79      8.292000      6.219000      6.219000   1.0000 196.9666
    243    1 Au   79      8.292000     10.365000      6.219000   1.0000 196.9666
    244    1 Au   79      8.292000     14.511000      6.219000   1.0000 196.9666
    245    1 Au   79      8.292000     18.657000      6.219000   1.0000 196.9666
    246    1 Au   79      8.292000     22.803000      6.219000   1.0000 196.9666
    247    1 Au   79     10.365000      0.000000      6.219000   1.0000 196.9666
    248    1 Au   79     10.365000      4.146000      6.219000   1.0000 196.9666
    249    1 Au   79     10.365000      8.292000      6.219000   1.0000 196.9666
    250    1 Au   79     10.365000     12.438000      6.219000   1.0000 196.9666
    251    1 Au   79     10.365000     16.584000      6.219000   1.0000 196.9666
    252    1 Au   79     10.365000     20.730000      6.219000   1.0000 196.9666
    253    1 Au   79     12.438000      2.073000      6.219000   1.0000 196.9666
    254    1 Au   79     12.438000      6.219000      6.219000   1.0000 196.9666
    255    1 Au   79     12.438000     10.365000      6.219000   1.0000 196.9666
    256    1 Au   79     12.438000     14.511000      6.219000   1.0000 196.9666
    257    1 Au   79     12.438000     18.657000      6.219000   1.0000 196.9666
    258    1 Au   79     12.438000     22.803000      6.219000   1.0000 196.9666
    259    1 Au   79     14.511000      0.000000      6.219000   1.0000 196.9666
    260    1 Au   79     14.511000      4.146000      6.219000   1.0000 196.9666
    261    1 Au   79     14.511000      8.292000      6.219000   1.0000 196.9666
    262    1 Au   79     14.511000     12.438000      6.219000   1.0000 196.9666
    263    1 Au   79     14.511000     16.584000      6.219000   1.0000 196.9666
    264    1 Au   79     14.511000     20.730000      6.219000   1.0000 196.9666
    265    1 Au   79     16.584000      2.073000      6.219000   1.0000 196.9666
    266    1 Au   79     16.584000      6.219000      6.219000   1.0000 196.9666
    267    1 Au   79     16.584000     10.365000      6.219000   1.0000 196.9666
    268    1 Au   79     16.584000     14.511000      6.219000   1.0000 196.9666
    269    1 Au   79     16.584000     18.657000      6.219000   1.0000 196.9666
    270    1 Au   79     16.584000     22.803000      6.219000   1.0000 196.9666
    271    1 Au   79     18.657000      0.000000      6.219000   1.0000 196.9666
    272    1 Au   79     18.657000      4.146000      6.219000   1.0000 196.9666
    273    1 Au   79     18.657000      8.292000      6.219000   1.0000 196.9666
    274    1 Au   79     18.657000     12.438000      6.219000   1.0000 196.9666
    275    1 Au   79     18.657000     16.584000      6.219000   1.0000 196.9666
    276    1 Au   79     18.657000     20.730000      6.219000   1.0000 196.9666
    277    1 Au   79     20.730000      2.073000      6.219000   1.0000 196.9666
    278    1 Au   79     20.730000      6.219000      6.219000   1.0000 196.9666
    279    1 Au   79     20.730000     10.365000      6.219000   1.0000 196.9666
    280    1 Au   79     20.730000     14.511000      6.219000   1.0000 196.9666
    281    1 Au   79     20.730000     18.657000      6.219000   1.0000 196.9666
    282    1 Au   79     20.730000     22.803000      6.219000   1.0000 196.9666
    283    1 Au   79     22.803000      0.000000      6.219000   1.0000 196.9666
    284    1 Au   79     22.803000      4.146000      6.219000   1.0000 196.9666
    285    1 Au   79     22.803000      8.292000      6.219000   1.0000 196.9666
    286    1 Au   79     22.803000     12.438000      6.219000   1.0000 196.9666
    287    1 Au   79     22.803000     16.584000      6.219000   1.0000 196.9666
    288    1 Au   79     22.803000     20.730000      6.219000   1.0000 196.9666
    289    2 Au   79      0.000000      0.000000      8.292000  11.0000 196.9666
    290    2 Au   79      0.000000      4.146000      8.292000  11.0000 196.9666
    291    2 Au   79      0.000000      8.292000      8.292000  11.0000 196.9666
    292    2 Au   79      0.000000     12.438000      8.292000  11.0000 196.9666
    293    2 Au   79      0.000000     16.584000      8.292000  11.0000 196.9666
    294    2 Au   79      0.000000     20.730000      8.292000  11.0000 196.9666
    295    2 Au   79      2.073000      2.073000      8.292000  11.0000 196.9666
    296    2 Au   79      2.073000      6.219000      8.292000  11.0000 196.9666
    297    2 Au   79      2.073000     10.365000      8.292000  11.0000 196.9666
    298    2 Au   79      2.073000     14.511000      8.292000  11.0000 196.9666
    299    2 Au   79      2.073000     18.657000      8.292000  11.0000 196.9666
    300    2 Au   79      2.073000     22.803000      8.292000  11.0000 196.9666
    301    2 Au   79      4.146000      0.000000      8.292000  11.0000 196.9666
    302    2 Au   79      4.146000      4.146000      8.292000  11.0000 196.9666
    303    2 Au   79      4.146000      8.292000      8.292000  11.0000 196.9666
    304    2 Au   79      4.146000     12.438000      8.292000  11.0000 196.9666
    305    2 Au   79      4.146000     16.584000      8.292000  11.0000 196.9666
    306    2 Au   79      4.146000     20.730000      8.292000  11.0000 196.9666
    307    2 Au   79      6.219000      2.073000      8.292000  11.0000 196.9666
    308    2 Au   79      6.219000      6.219000      8.292000  11.0000 196.9666
    309    2 Au   79      6.219000     10.365000      8.292000  11.0000 196.9666
    310    2 Au   79      6.219000     14.511000      8.292000  11.0000 196.9666
    311    2 Au   79      6.219000     18.657000      8.292000  11.0000 196.9666
    312    2 Au   79      6.219000     22.803000      8.292000  11.0000 196.9666
    313    2 Au   79      8.292000      0.000000      8.292000  11.0000 196.9666
    314    2 Au   79      8.292000      4.146000      8.292000  11.0000 196.9666
    315    2 Au   79      8.292000      8.292000      8.292000  11.0000 196.9666
    316    2 Au   79      8.292000     12.438000      8.292000  11.0000 196.9666
    317    2 Au   79      8.292000     16.584000      8.292000  11.0000 196.9666
    318    2 Au   79      8.292000     20.730000      8.292000  11.0000 196.9666
    319    2 Au   79     10.365000      2.073000      8.292000  11.0000 196.9666
    320    2 Au   79     10.365000      6.219000      8.292000  11.0000 196.9666
    321    2 Au   79     10.365000     10.365000      8.292000  11.0000 196.9666
    322    2 Au   79     10.365000     14.511000      8.292000  11.0000 196.9666
    323    2 Au   79     10.365000     18.657000      8.292000  11.0000 196.9666
    324    2 Au   79     10.365000     22.803000      8.292000  11.0000 196.9666
    325    2 Au   79     12.438000      0.000000      8.292000  11.0000 196.9666
    326    2 Au   79     12.438000      4.146000      8.292000  11.0000 196.9666
    327    2 Au   79     12.438000      8.292000      8.292000  11.0000 196.9666
    328    2 Au   79     12.438000     12.438000      8.292000  11.0000 196.9666
    329    2 Au   79     12.438000     16.584000      8.292000  11.0000 196.9666
    330    2 Au   79     12.438000     20.730000      8.292000  11.0000 196.9666
    331    2 Au   79     14.511000      2.073000      8.292000  11.0000 196.9666
    332    2 Au   79     14.511000      6.219000      8.292000  11.0000 196.9666
    333    2 Au   79     14.511000     10.365000      8.292000  11.0000 196.9666
    334    2 Au   79     14.511000     14.511000      8.292000  11.0000 196.9666
    335    2 Au   79     14.511000     18.657000      8.292000  11.0000 196.9666
    336    2 Au   79     14.511000     22.803000      8.292000  11.0000 196.9666
    337    2 Au   79     16.584000      0.000000      8.292000  11.0000 196.9666
    338    2 Au   79     16.584000      4.146000      8.292000  11.0000 196.9666
    339    2 Au   79     16.584000      8.292000      8.292000  11.0000 196.9666
    340    2 Au   79     16.584000     12.438000      8.292000  11.0000 196.9666
    341    2 Au   79     16.584000     16.584000      8.292000  11.0000 196.9666
    342    2 Au   79     16.584000     20.730000      8.292000  11.0000 196.9666
    343    2 Au   79     18.657000      2.073000      8.292000  11.0000 196.9666
    344    2 Au   79     18.657000      6.219000      8.292000  11.0000 196.9666
    345    2 Au   79     18.657000     10.365000      8.292000  11.0000 196.9666
    346    2 Au   79     18.657000     14.511000      8.292000  11.0000 196.9666
    347    2 Au   79     18.657000     18.657000      8.292000  11.0000 196.9666
    348    2 Au   79     18.657000     22.803000      8.292000  11.0000 196.9666
    349    2 Au   79     20.730000      0.000000      8.292000  11.0000 196.9666
    350    2 Au   79     20.730000      4.146000      8.292000  11.0000 196.9666
    351    2 Au   79     20.730000      8.292000      8.292000  11.0000 196.9666
    352    2 Au   79     20.730000     12.438000      8.292000  11.0000 196.9666
    353    2 Au   79     20.730000     16.584000      8.292000  11.0000 196.9666
    354    2 Au   79     20.730000     20.730000      8.292000  11.0000 196.9666
    355    2 Au   79     22.803000      2.073000      8.292000  11.0000 196.9666
    356    2 Au   79     22.803000      6.219000      8.292000  11.0000 196.9666
    357    2 Au   79     22.803000     10.365000      8.292000  11.0000 196.9666
    358    2 Au   79     22.803000     14.511000      8.292000  11.0000 196.9666
    359    2 Au   79     22.803000     18.657000      8.292000  11.0000 196.9666
    360    2 Au   79     22.803000     22.803000      8.292000  11.0000 196.9666
    361    2 Au   79      0.000000      2.073000     10.365000  11.0000 196.9666
    362    2 Au   79      0.000000      6.219000     10.365000  11.0000 196.9666
    363    2 Au   79      0.000000     10.365000     10.365000  11.0000 196.9666
    364    2 Au   79      0.000000     14.511000     10.365000  11.0000 196.9666
    365    2 Au   79      0.000000     18.657000     10.365000  11.0000 196.9666
    366    2 Au   79      0.000000     22.803000     10.365000  11.0000 196.9666
    367    2 Au   79      2.073000      0.000000     10.365000  11.0000 196.9666
    368    2 Au   79      2.073000      4.146000     10.365000  11.0000 196.9666
    369    2 Au   79      2.073000      8.292000     10.365000  11.0000 196.9666
    370    2 Au   79      2.073000     12.438000     10.365000  11.0000 196.9666
    371    2 Au   79      2.073000     16.584000     10.365000  11.0000 196.9666
    372    2 Au   79      2.073000     20.730000     10.365000  11.0000 196.9666
    373    2 Au   79      4.146000      2.073000     10.365000  11.0000 196.9666
    374    2 Au   79      4.146000      6.219000     10.365000  11.0000 196.9666
    375    2 Au   79      4.146000     10.365000     10.365000  11.0000 196.9666
    376    2 Au   79      4.146000     14.511000     10.365000  11.0000 196.9666
    377    2 Au   79      4.146000     18.657000     10.365000  11.0000 196.9666
    378    2 Au   79      4.146000     22.803000     10.365000  11.0000 196.9666
    379    2 Au   79      6.219000      0.000000     10.365000  11.0000 196.9666
    380    2 Au   79      6.219000      4.146000     10.365000  11.0000 196.9666
    381    2 Au   79      6.219000      8.292000     10.365000  11.0000 196.9666
    382    2 Au   79      6.219000     12.438000     10.365000  11.0000 196.9666
    383    2 Au   79      6.219000     16.584000     10.365000  11.0000 196.9666
    384    2 Au   79      6.219000     20.730000     10.365000  11.0000 196.9666
    385    2 Au   79      8.292000      2.073000     10.365000  11.0000 196.9666
    386    2 Au   79      8.292000      6.219000     10.365000  11.0000 196.9666
    387    2 Au   79      8.292000     10.365000     10.365000  11.0000 196.9666
    388    2 Au   79      8.292000     14.511000     10.365000  11.0000 196.9666
    389    2 Au   79      8.292000     18.657000     10.365000  11.0000 196.9666
    390    2 Au   79      8.292000     22.803000     10.365000  11.0000 196.9666
    391    2 Au   79     10.365000      0.000000     10.365000  11.0000 196.9666
    392    2 Au   79     10.365000      4.146000     10.365000  11.0000 196.9666
    393    2 Au   79     10.365000      8.292000     10.365000  11.0000 196.9666
    394    2 Au   79     10.365000     12.438000     10.365000  11.0000 196.9666
    395    2 Au   79     10.365000     16.584000     10.365000  11.0000 196.9666
    396    2 Au   79     10.365000     20.730000     10.365000  11.0000 196.9666
    397    2 Au   79     12.438000      2.073000     10.365000  11.0000 196.9666
    398    2 Au   79     12.438000      6.219000     10.365000  11.0000 196.9666
    399    2 Au   79     12.438000     10.365000     10.365000  11.0000 196.9666
    400    2 Au   79     12.438000     14.511000     10.365000  11.0000 196.9666
    401    2 Au   79     12.438000     18.657000     10.365000  11.0000 196.9666
    402    2 Au   79     12.438000     22.803000     10.365000  11.0000 196.9666
    403    2 Au   79     14.511000      0.000000     10.365000  11.0000 196.9666
    404    2 Au   79     14.511000      4.146000     10.365000  11.0000 196.9666
    405    2 Au   79     14.511000      8.292000     10.365000  11.0000 196.9666
    406    2 Au   79     14.511000     12.438000     10.365000  11.0000 196.9666
    407    2 Au   79     14.511000     16.584000     10.365000  11.0000 196.9666
    408    2 Au   79     14.511000     20.730000     10.365000  11.0000 196.9666
    409    2 Au   79     16.584000      2.073000     10.365000  11.0000 196.9666
    410    2 Au   79     16.584000      6.219000     10.365000  11.0000 196.9666
    411    2 Au   79     16.584000     10.365000     10.365000  11.0000 196.9666
    412    2 Au   79     16.584000     14.511000     10.365000  11.0000 196.9666
    413    2 Au   79     16.584000     18.657000     10.365000  11.0000 196.9666
    414    2 Au   79     16.584000     22.803000     10.365000  11.0000 196.9666
    415    2 Au   79     18.657000      0.000000     10.365000  11.0000 196.9666
    416    2 Au   79     18.657000      4.146000     10.365000  11.0000 196.9666
    417    2 Au   79     18.657000      8.292000     10.365000  11.0000 196.9666
    418    2 Au   79     18.657000     12.438000     10.365000  11.0000 196.9666
    419    2 Au   79     18.657000     16.584000     10.365000  11.0000 196.9666
    420    2 Au   79     18.657000     20.730000     10.365000  11.0000 196.9666
    421    2 Au   79     20.730000      2.073000     10.365000  11.0000 196.9666
    422    2 Au   79     20.730000      6.219000     10.365000  11.0000 196.9666
    423    2 Au   79     20.730000     10.365000     10.365000  11.0000 196.9666
    424    2 Au   79     20.730000     14.511000     10.365000  11.0000 196.9666
    425    2 Au   79     20.730000     18.657000     10.365000  11.0000 196.9666
    426    2 Au   79     20.730000     22.803000     10.365000  11.0000 196.9666
    427    2 Au   79     22.803000      0.000000     10.365000  11.0000 196.9666
    428    2 Au   79     22.803000      4.146000     10.365000  11.0000 196.9666
    429    2 Au   79     22.803000      8.292000     10.365000  11.0000 196.9666
    430    2 Au   79     22.803000     12.438000     10.365000  11.0000 196.9666
    431    2 Au   79     22.803000     16.584000     10.365000  11.0000 196.9666
    432    2 Au   79     22.803000     20.730000     10.365000  11.0000 196.9666
    433    2 Au   79      0.000000      0.000000     12.438000  11.0000 196.9666
    434    2 Au   79      0.000000      4.146000     12.438000  11.0000 196.9666
    435    2 Au   79      0.000000      8.292000     12.438000  11.0000 196.9666
    436    2 Au   79      0.000000     12.438000     12.438000  11.0000 196.9666
    437    2 Au   79      0.000000     16.584000     12.438000  11.0000 196.9666
    438    2 Au   79      0.000000     20.730000     12.438000  11.0000 196.9666
    439    2 Au   79      2.073000      2.073000     12.438000  11.0000 196.9666
    440    2 Au   79      2.073000      6.219000     12.438000  11.0000 196.9666
    441    2 Au   79      2.073000     10.365000     12.438000  11.0000 196.9666
    442    2 Au   79      2.073000     14.511000     12.438000  11.0000 196.9666
    443    2 Au   79      2.073000     18.657000     12.438000  11.0000 196.9666
    444    2 Au   79      2.073000     22.803000     12.438000  11.0000 196.9666
    445    2 Au   79      4.146000      0.000000     12.438000  11.0000 196.9666
    446    2 Au   79      4.146000      4.146000     12.438000  11.0000 196.9666
    447    2 Au   79      4.146000      8.292000     12.438000  11.0000 196.9666
    448    2 Au   79      4.146000     12.438000     12.438000  11.0000 196.9666
    449    2 Au   79      4.146000     16.584000     12.438000  11.0000 196.9666
[...]
    866       Au     1       1.000          0.890                         0.110
    867       Au     1       1.000          0.948                         0.052
    868       Au     1       1.000          0.915                         0.085
    869       Au     1       1.000          0.956                         0.044
    870       Au     1       1.000          0.882                         0.118
    871       Au     1       1.000          0.884                         0.116
    872       Au     1       1.000          0.924                         0.076
    873       Au     1       1.000          0.922                         0.078
    874       Au     1       1.000          0.963                         0.037
    875       Au     1       1.000          0.899                         0.101
    876       Au     1       1.000          0.875                         0.125
    877       Au     1       1.000          0.874                         0.126
    878       Au     1       1.000          0.918                         0.082
    879       Au     1       1.000          0.913                         0.087
    880       Au     1       1.000          0.955                         0.045
    881       Au     1       1.000          0.881                         0.119
    882       Au     1       1.000          0.868                         0.132
    883       Au     1       1.000          0.874                         0.126
    884       Au     1       1.000          0.887                         0.113
    885       Au     1       1.000          0.941                         0.059
    886       Au     1       1.000          0.908                         0.092
    887       Au     1       1.000          0.948                         0.052
    888       Au     1       1.000          0.878                         0.122
    889       Au     1       1.000          0.883                         0.117
    890       Au     1       1.000          0.939                         0.061
    891       Au     1       1.000          0.909                         0.091
    892       Au     1       1.000          0.949                         0.051
    893       Au     1       1.000          0.892                         0.108
    894       Au     1       1.000          0.873                         0.127
    895       Au     1       1.000          0.866                         0.134
    896       Au     1       1.000          0.881                         0.119
    897       Au     1       1.000          0.949                         0.051
    898       Au     1       1.000          0.919                         0.081
    899       Au     1       1.000          0.933                         0.067
    900       Au     1       1.000          0.874                         0.126
    901       Au     1       1.000          0.876                         0.124
    902       Au     1       1.000          0.922                         0.078
    903       Au     1       1.000          0.917                         0.083
    904       Au     1       1.000          0.960                         0.040
    905       Au     1       1.000          0.885                         0.115
    906       Au     1       1.000          0.864                         0.136
    907       Au     1       1.000          0.874                         0.126
    908       Au     1       1.000          0.888                         0.112
    909       Au     1       1.000          0.942                         0.058
    910       Au     1       1.000          0.910                         0.090
    911       Au     1       1.000          0.949                         0.051
    912       Au     1       1.000          0.879                         0.121
    913       Au     1       1.000          0.883                         0.117
    914       Au     1       1.000          0.939                         0.061
    915       Au     1       1.000          0.909                         0.091
    916       Au     1       1.000          0.949                         0.051
    917       Au     1       1.000          0.892                         0.108
    918       Au     1       1.000          0.874                         0.126
    919       Au     1       1.000          0.866                         0.134
    920       Au     1       1.000          0.881                         0.119
    921       Au     1       1.000          0.949                         0.051
    922       Au     1       1.000          0.919                         0.081
    923       Au     1       1.000          0.933                         0.067
    924       Au     1       1.000          0.874                         0.126
    925       Au     1       1.000          0.876                         0.124
    926       Au     1       1.000          0.922                         0.078
    927       Au     1       1.000          0.917                         0.083
    928       Au     1       1.000          0.960                         0.040
    929       Au     1       1.000          0.885                         0.115
    930       Au     1       1.000          0.864                         0.136
    931       Au     1       1.000          0.874                         0.126
    932       Au     1       1.000          0.888                         0.112
    933       Au     1       1.000          0.942                         0.058
    934       Au     1       1.000          0.909                         0.091
    935       Au     1       1.000          0.949                         0.051
    936       Au     1       1.000          0.879                         0.121
    937       Au     1       1.000          0.882                         0.118
    938       Au     1       1.000          0.938                         0.062
    939       Au     1       1.000          0.908                         0.092
    940       Au     1       1.000          0.947                         0.053
    941       Au     1       1.000          0.891                         0.109
    942       Au     1       1.000          0.873                         0.127
    943       Au     1       1.000          0.872                         0.128
    944       Au     1       1.000          0.877                         0.123
    945       Au     1       1.000          0.946                         0.054
    946       Au     1       1.000          0.914                         0.086
    947       Au     1       1.000          0.929                         0.071
    948       Au     1       1.000          0.869                         0.131

  Total Charge                                                         -355.958
 !-----------------------------------------------------------------------------!
 Calculating transmission coefficient

 ENERGY| Total FORCE_EVAL ( QS ) energy [a.u.]:           -11346.090459815633949

 -------------------------------------------------------------------------------
 -                                                                             -
 -                                DBCSR STATISTICS                             -
 -                                                                             -
 -------------------------------------------------------------------------------
 COUNTER                                    TOTAL       BLAS       SMM       ACC
 flops inhomo. stacks                           0       0.0%      0.0%      0.0%
 flops total                         0.000000E+00       0.0%      0.0%      0.0%
 flops max/rank                      0.000000E+00       0.0%      0.0%      0.0%
 matmuls inhomo. stacks                         0       0.0%      0.0%      0.0%
 matmuls total                                  0       0.0%      0.0%      0.0%
 number of processed stacks                     0       0.0%      0.0%      0.0%
 average stack size                                     0.0       0.0       0.0
 marketing flops                     0.000000E+00
 -------------------------------------------------------------------------------
 -                                                                             -
 -                      DBCSR MESSAGE PASSING PERFORMANCE                      -
 -                                                                             -
 -------------------------------------------------------------------------------
 ROUTINE             CALLS      AVE VOLUME [Bytes]
 MP_Bcast                1                     12.
 MP_Allreduce          270                      9.
 MP_Alltoall           300                 435691.
 -------------------------------------------------------------------------------

 -------------------------------------------------------------------------------
 -                                                                             -
 -                                DBM STATISTICS                               -
 -                                                                             -
 -------------------------------------------------------------------------------
    M  x    N  x    K                                          COUNT     PERCENT
 -------------------------------------------------------------------------------

 -------------------------------------------------------------------------------
 -                                                                             -
 -                                GRID STATISTICS                              -
 -                                                                             -
 -------------------------------------------------------------------------------
 LP    KERNEL             BACKEND                              COUNT     PERCENT
 0     collocate ortho    REF                                3644352      29.61%
 0     integrate ortho    REF                                3036960      24.67%
 2     collocate ortho    REF                                1445328      11.74%
 2     integrate ortho    REF                                1204440       9.79%
 4     collocate ortho    REF                                1039146       8.44%
 4     integrate ortho    REF                                 865955       7.04%
 0     collocate general  REF                                 546048       4.44%
 0     integrate general  REF                                 485376       3.94%
 3     collocate ortho    REF                                  19662       0.16%
 3     integrate ortho    REF                                  16385       0.13%
 1     collocate ortho    REF                                   2460       0.02%
 1     integrate ortho    REF                                   2050       0.02%
 -------------------------------------------------------------------------------

 MEMORY| Estimated peak process memory [MiB]                                1102

 -------------------------------------------------------------------------------
 ----                             MULTIGRID INFO                            ----
 -------------------------------------------------------------------------------
 count for grid        1:         489702          cutoff [a.u.]          200.00
 count for grid        2:         820097          cutoff [a.u.]           66.67
 count for grid        3:         794123          cutoff [a.u.]           22.22
 count for grid        4:         581700          cutoff [a.u.]            7.41
 total gridlevel count  :        2685622

 -------------------------------------------------------------------------------
 -                                                                             -
 -                         MESSAGE PASSING PERFORMANCE                         -
 -                                                                             -
 -------------------------------------------------------------------------------

 ROUTINE             CALLS      AVE VOLUME [Bytes]
 MP_Group                5
 MP_Bcast              533                1715387.
 MP_Allreduce          614                   3808.
 MP_Sync                 4
 MP_Alltoall            97                2098732.
 MP_ISendRecv         1386                 131360.
 MP_Wait              2053
 MP_ISend             1561                 270460.
 MP_IRecv             1596                 265154.
 MP_Recv              3050                1008640.
 MP_Write_All            2                8295000.
 -------------------------------------------------------------------------------


 -------------------------------------------------------------------------------
 -                                                                             -
 -                           R E F E R E N C E S                               -
 -                                                                             -
 -------------------------------------------------------------------------------
 
 CP2K version 2022.1 (Development Version), the CP2K developers group (2022).
 CP2K is freely available from https://www.cp2k.org/ .

 Kuehne,Thomas D.; Iannuzzi,Marcella; Del Ben,Mauro;
 Rybkin,Vladimir V.; Seewald,Patrick; Stein,Frederick; Laino,Teodoro;
 Khaliullin,Rustam Z.; Schuett,Ole; Schiffmann,Florian; Golze,Dorothea;
 Wilhelm,Jan; Chulkov,Sergey; Bani-Hashemian,Mohammad Hossein;
 Weber,Valery; Borstnik,Urban; Taillefumier,Mathieu;
 Jakobovits,Alice Shoshana; Lazzaro,Alfio; Pabst,Hans; Mueller,Tiziano;
 Schade,Robert; Guidon,Manuel; Andermatt,Samuel; Holmberg,Nico;
 Schenter,Gregory K.; Hehn,Anna; Bussy,Augustin; Belleflamme,Fabian;
 Tabacchi,Gloria; Gloess,Andreas; Lass,Michael; Bethune,Iain;
 Mundy,Christopher J.; Plessl,Christian; Watkins,Matt;
 VandeVondele,Joost; Krack,Matthias; Hutter,Juerg. 
 The Journal of Chemical Physics, 152 (19), (2020). 
 CP2K: An electronic structure and molecular dynamics software package -
 Quickstep: Efficient and accurate electronic structure calculations.
 https://doi.org/10.1063/5.0007045

 Schuett, Ole; Messmer, Peter; Hutter, Juerg; VandeVondele, Joost. 
 Electronic Structure Calculations on Graphics Processing Units, John
 Wiley & Sons, Ltd, 173-190 (2016). 
 GPU-Accelerated Sparse Matrix-Matrix Multiplication for
 Linear Scaling Density Functional Theory.
 https://doi.org/10.1002/9781118670712.ch8

 Borstnik, U; VandeVondele, J; Weber, V; Hutter, J. 
 PARALLEL COMPUTING, 40 (5-6), 47-58 (2014). 
 Sparse matrix multiplication: The distributed block-compressed sparse
 row library.
 https://doi.org/10.1016/j.parco.2014.03.012

 Hutter, J; Iannuzzi, M; Schiffmann, F; VandeVondele, J. 
 WIREs Comput Mol Sci., 4 (1), 15-25 (2014). 
 CP2K: atomistic simulations of condensed matter systems.
 https://doi.org/10.1002/wcms.1159

 Marek, A; Blum, V; Johanni, R; Havu, V; Lang, B; Auckenthaler, T;
 Heinecke, A; Bungartz, H; Lederer, H. 
 Journal of Physics: Condensed Matter, 26 (21), (2014). 
 The ELPA library: scalable parallel eigenvalue solutions for
 electronic structure
 theory and computational science.
 https://doi.org/10.1088/0953-8984/26/21/213201

 VandeVondele, J; Hutter, J. 
 JOURNAL OF CHEMICAL PHYSICS, 127 (11), 114105 (2007). 
 Gaussian basis sets for accurate calculations on molecular systems in
 gas and condensed phases.
 https://doi.org/10.1063/1.2770708

 Krack, M. 
 THEORETICAL CHEMISTRY ACCOUNTS, 114 (1-3), 145-152 (2005). 
 Pseudopotentials for H to Kr optimized for gradient-corrected
 exchange-correlation functionals.
 https://doi.org/10.1007/s00214-005-0655-y

 VandeVondele, J; Krack, M; Mohamed, F; Parrinello, M; Chassaing, T;
 Hutter, J. COMPUTER PHYSICS COMMUNICATIONS, 167 (2), 103-128 (2005). 
 QUICKSTEP: Fast and accurate density functional calculations using a
 mixed Gaussian and plane waves approach.
 https://doi.org/10.1016/j.cpc.2004.12.014

 Frigo, M; Johnson, SG. 
 PROCEEDINGS OF THE IEEE, 93 (2), 216-231 (2005). 
 The design and implementation of FFTW3.
 https://doi.org/10.1109/JPROC.2004.840301

 Hartwigsen, C; Goedecker, S; Hutter, J. 
 PHYSICAL REVIEW B, 58 (7), 3641-3662 (1998). 
 Relativistic separable dual-space Gaussian pseudopotentials from H to Rn.
 https://doi.org/10.1103/PhysRevB.58.3641

 Lippert, G; Hutter, J; Parrinello, M. 
 MOLECULAR PHYSICS, 92 (3), 477-487 (1997). 
 A hybrid Gaussian and plane wave density functional scheme.
 https://doi.org/10.1080/002689797170220

 Goedecker, S; Teter, M; Hutter, J. 
 PHYSICAL REVIEW B, 54 (3), 1703-1710 (1996). 
 Separable dual-space Gaussian pseudopotentials.
 https://doi.org/10.1103/PhysRevB.54.1703


 -------------------------------------------------------------------------------
 -                                                                             -
 -                                T I M I N G                                  -
 -                                                                             -
 -------------------------------------------------------------------------------
 SUBROUTINE                       CALLS  ASD         SELF TIME        TOTAL TIME
                                MAXIMUM       AVERAGE  MAXIMUM  AVERAGE  MAXIMUM
 CP2K                                 1  1.0    0.175    0.189   78.508   78.508
 qs_energies                          1  2.0    0.001    0.001   76.688   76.689
 run_smeagol_emtrans                  6  5.5   56.303   56.305   57.216   57.217
 scf_env_do_scf                       1  3.0    0.000    0.001   54.015   54.059
 scf_env_do_scf_inner_loop            5  4.0    0.002    0.002   54.015   54.058
 qs_scf_new_mos_kp                    5  5.0    0.000    0.000   46.456   46.457
 scf_post_calculation_gpw             1  3.0    0.000    0.000    9.476    9.522
 write_available_results              1  4.0    0.000    0.000    9.476    9.522
 write_mo_free_results                1  5.0    0.140    0.183    9.476    9.522
 pw_to_cube                           2  6.0    3.757    4.102    5.379    5.379
 write_kpoints_restart                5  5.0    0.000    0.002    4.802    4.846
 cp_fm_write_unformatted             25  6.0    0.275    4.181    3.455    4.535
 mp_send_dv                          50  7.0    3.176    4.321    3.176    4.321
 copy_dbcsr_to_fm                    25  6.0    0.000    0.001    1.346    2.429
 dbcsr_desymmetrize_deep             25  7.0    0.033    0.060    1.185    2.273
 mp_alltoall_i22                     50  8.0    1.105    2.204    1.105    2.204
 hirshfeld_integration                1  6.0    1.699    2.100    2.121    2.121
 qs_rho_update_rho_low                6  5.0    0.000    0.000    1.730    1.731
 calculate_rho_elec                   6  6.0    0.022    0.023    1.730    1.731
 pw_transfer                         70  8.9    0.006    0.007    1.650    1.728
 fft_wrap_pw1pw2                     60  9.8    0.001    0.001    1.635    1.714
 fft3d_ps                            60 11.8    0.372    0.404    1.512    1.596
 calculate_hirshfeld_normalizat       1  6.0    1.245    1.511    1.570    1.586
 fft_wrap_pw1pw2_200                 27 10.2    0.048    0.125    1.494    1.574
 -------------------------------------------------------------------------------

 The number of warnings for this run is : 2
 
 -------------------------------------------------------------------------------
  **** **** ******  **  PROGRAM ENDED AT                 2023-11-24 17:29:10.539
 ***** ** ***  *** **   PROGRAM RAN ON                                 nid004719
 **    ****   ******    PROGRAM RAN BY                                    cahart
 ***** **    ** ** **   PROGRAM PROCESS ID                                 92323
  **** **  *******  **  PROGRAM STOPPED IN /mnt/lustre/a2fs-work2/work/e05/e05/c
                                           ahart/postdoc/transport/cp2k-smeagol-
                                           examples/benchmarking/cp2k-smeagol/au
                                           -bdt/NEnergReal-64_kpoints-1-1-20/bul
                                           k-sz-q1_em-sz-q11/atoms-948/omp-8_V-0
