     193
 i =        1, E =     -6416.5860060168
 Au         1.4843232000        0.8569744000        0.0000000000
 Au         4.4529696000        0.8569744000        0.0000000000
 Au         7.4216160000        0.8569744000        0.0000000000
 Au        10.3902624000        0.8569744000        0.0000000000
 Au        13.3589088000        0.8569744000        0.0000000000
 Au        16.3275552000        0.8569744000        0.0000000000
 Au         0.0000000000        3.4278976000        0.0000000000
 Au         2.9686464000        3.4278976000        0.0000000000
 Au         5.9372928000        3.4278976000        0.0000000000
 Au         8.9059392000        3.4278976000        0.0000000000
 Au        11.8745856000        3.4278976000        0.0000000000
 Au        14.8432320000        3.4278976000        0.0000000000
 Au         1.4843232000        5.9988207900        0.0000000000
 Au         4.4529696000        5.9988207900        0.0000000000
 Au         7.4216160000        5.9988207900        0.0000000000
 Au        10.3902624000        5.9988207900        0.0000000000
 Au        13.3589088000        5.9988207900        0.0000000000
 Au        16.3275552000        5.9988207900        0.0000000000
 Au         0.0000000000        8.5697439900        0.0000000000
 Au         2.9686464000        8.5697439900        0.0000000000
 Au         5.9372928000        8.5697439900        0.0000000000
 Au         8.9059392000        8.5697439900        0.0000000000
 Au        11.8745856000        8.5697439900        0.0000000000
 Au        14.8432320000        8.5697439900        0.0000000000
 Au         1.4843232000       11.1406671900        0.0000000000
 Au         4.4529696000       11.1406671900        0.0000000000
 Au         7.4216160000       11.1406671900        0.0000000000
 Au        10.3902624000       11.1406671900        0.0000000000
 Au        13.3589088000       11.1406671900        0.0000000000
 Au        16.3275552000       11.1406671900        0.0000000000
 Au         0.0000000000       13.7115903800        0.0000000000
 Au         2.9686464000       13.7115903800        0.0000000000
 Au         5.9372928000       13.7115903800        0.0000000000
 Au         8.9059392000       13.7115903800        0.0000000000
 Au        11.8745856000       13.7115903800        0.0000000000
 Au        14.8432320000       13.7115903800        0.0000000000
 Au         0.0000000001        1.7140598382        2.4233829143
 Au         2.9686559769        1.7138735904        2.4232992733
 Au         5.9372726626        1.7140630055        2.4233732615
 Au         8.9059392000        1.7141818961        2.4235281292
 Au        11.8746057374        1.7140630055        2.4233732615
 Au        14.8432224230        1.7138735904        2.4232992733
 Au         1.4842575412        4.2848684509        2.4232751858
 Au         4.4534907872        4.2852139399        2.4239762822
 Au         7.4220945522        4.2849735246        2.4237755419
 Au        10.3897838478        4.2849735246        2.4237755419
 Au        13.3583876128        4.2852139399        2.4239762822
 Au        16.3276208588        4.2848684509        2.4232751858
 Au         0.0000000001        6.8557736249        2.4233122053
 Au         2.9687725236        6.8557467475        2.4233330144
 Au         5.9375665179        6.8561561077        2.4237905099
 Au         8.9059392000        6.8557304400        2.4229169306
 Au        11.8743118821        6.8561561077        2.4237905099
 Au        14.8431058764        6.8557467475        2.4233330144
 Au         1.4844011942        9.4267517308        2.4233820086
 Au         4.4532129905        9.4265663621        2.4234618640
 Au         7.4214250788        9.4262977414        2.4237715511
 Au        10.3904533212        9.4262977414        2.4237715511
 Au        13.3586654095        9.4265663621        2.4234618640
 Au        16.3274772057        9.4267517308        2.4233820086
 Au         0.0000000001       11.9976070549        2.4233674092
 Au         2.9686652455       11.9976492767        2.4233423035
 Au         5.9373460680       11.9974928382        2.4234025040
 Au         8.9059392000       11.9970607164        2.4240208731
 Au        11.8745323320       11.9974928382        2.4234025040
 Au        14.8432131545       11.9976492767        2.4233423035
 Au         1.4843094072       14.5685788264        2.4233802018
 Au         4.4529616900       14.5685886874        2.4233589852
 Au         7.4216407988       14.5686012764        2.4233009152
 Au        10.3902376012       14.5686012764        2.4233009152
 Au        13.3589167100       14.5685886874        2.4233589852
 Au        16.3275689927       14.5685788264        2.4233802018
 Au         0.0000000001        0.0000331777        4.8493152193
 Au         2.9686700259        0.0000178120        4.8492870981
 Au         5.9372906887       -0.0000184429        4.8493670160
 Au         8.9059392000       -0.0000191765        4.8492906421
 Au        11.8745877113       -0.0000184429        4.8493670160
 Au        14.8432083740        0.0000178119        4.8492870981
 Au         1.4842435428        2.5708580450        4.8493471850
 Au         4.4528772702        2.5707148884        4.8492482414
 Au         7.4213107289        2.5700909104        4.8492414354
 Au        10.3905676711        2.5700909104        4.8492414354
 Au        13.3590011298        2.5707148884        4.8492482414
 Au        16.3276348572        2.5708580450        4.8493471851
 Au         0.0000000001        5.1418210868        4.8493002914
 Au         2.9684331823        5.1418404407        4.8492600855
 Au         5.9368847419        5.1415794310        4.8538844142
 Au         8.9059392000        5.1389495999        4.8526872766
 Au        11.8749936581        5.1415794310        4.8538844142
 Au        14.8434452176        5.1418404407        4.8492600855
 Au         1.4843909459        7.7128157240        4.8493577554
 Au         4.4521912863        7.7129047846        4.8492689675
 Au         7.4190529479        7.7142321238        4.8525955284
 Au        10.3928254521        7.7142321238        4.8525955284
 Au        13.3596871137        7.7129047846        4.8492689675
 Au        16.3274874541        7.7128157240        4.8493577554
 Au         0.0000000001       10.2835896316        4.8492947345
 Au         2.9685815733       10.2837542414        4.8492958267
 Au         5.9366995631       10.2842777134        4.8492544884
 Au         8.9059392000       10.2840773441        4.8538844909
 Au        11.8751788369       10.2842777134        4.8492544884
 Au        14.8432968266       10.2837542414        4.8492958267
 Au         1.4844525080       12.8546106010        4.8492862342
 Au         4.4529285037       12.8545593347        4.8493329279
 Au         7.4215244115       12.8548876471        4.8492338759
 Au        10.3903539885       12.8548876471        4.8492338759
 Au        13.3589498963       12.8545593347        4.8493329279
 Au        16.3274258920       12.8546106010        4.8492862343
 Au         7.4258692074        6.0012304432        7.2693900068
 Au        10.3860091926        6.0012304432        7.2693900068
 Au         8.9059392000        8.5648490195        7.2693344077
 Au         8.9059392000        6.8557910720        9.6584215670
 Au         8.9059392000        6.8557795133       12.1193489734
 Au         8.9059392000        6.8558768570       14.5458723039
 Au         8.9059392000        6.8557911066       16.9705489412
 Au         8.9059392000        6.8557109330       19.3951281339
 Au         8.9059392000        6.8558164225       21.8215587229
 Au         8.9059392000        6.8558084579       24.2824469602
 Au         8.9059392000        5.1467921010       26.6716527938
 Au         7.4259342900        7.7103174137       26.6715574655
 Au        10.3859441100        7.7103174137       26.6715574655
 Au         0.0000000001        1.7139171669       29.0918213282
 Au         2.9686899115        1.7140449416       29.0916891868
 Au         5.9369787738        1.7138295574       29.0919118807
 Au         8.9059392000        1.7133800577       29.0914912762
 Au        11.8748996262        1.7138295574       29.0919118807
 Au        14.8431884884        1.7140449416       29.0916891868
 Au         1.4844873174        4.2848164180       29.0917279860
 Au         4.4525809424        4.2846320521       29.0921388497
 Au         7.4218508267        4.2833247346       29.0880425522
 Au        10.3900275733        4.2833247346       29.0880425522
 Au        13.3592974576        4.2846320521       29.0921388497
 Au        16.3273910825        4.2848164180       29.0917279860
 Au         0.0000000001        6.8558978371       29.0917386199
 Au         2.9684487008        6.8556990721       29.0918498866
 Au         5.9360208020        6.8568138180       29.0881360463
 Au         8.9059392000        6.8558470780       29.0898810180
 Au        11.8758575980        6.8568138180       29.0881360463
 Au        14.8434296992        6.8556990721       29.0918498866
 Au         1.4842242065        9.4267183868       29.0917239785
 Au         4.4525180507        9.4269919974       29.0914390398
 Au         7.4201182976        9.4273290019       29.0880822797
 Au        10.3917601024        9.4273290019       29.0880822797
 Au        13.3593603493        9.4269919974       29.0914390398
 Au        16.3276541935        9.4267183868       29.0917239784
 Au         0.0000000001       11.9976574533       29.0917609426
 Au         2.9686479742       11.9976768785       29.0917530634
 Au         5.9373000393       11.9979520568       29.0919058245
 Au         8.9059392000       11.9981055224       29.0921845953
 Au        11.8745783607       11.9979520568       29.0919058245
 Au        14.8432304258       11.9976768785       29.0917530634
 Au         1.4842883218       14.5684746553       29.0917872761
 Au         4.4530310262       14.5685782979       29.0917445775
 Au         7.4216216486       14.5685561927       29.0916848938
 Au        10.3902567514       14.5685561926       29.0916848938
 Au        13.3588473738       14.5685782979       29.0917445775
 Au        16.3275900782       14.5684746552       29.0917872761
 Au         0.0000000001       -0.0000522185       31.5176862755
 Au         2.9686821842        0.0000635554       31.5176841892
 Au         5.9372768807       -0.0000315829       31.5177496190
 Au         8.9059392000        0.0001822055       31.5175139661
 Au        11.8746015193       -0.0000315829       31.5177496190
 Au        14.8431962158        0.0000635554       31.5176841892
 Au         1.4844065078        2.5709870056       31.5177038628
 Au         4.4530467132        2.5708506660       31.5177463060
 Au         7.4214421260        2.5712727907       31.5175545946
 Au        10.3904362740        2.5712727907       31.5175545946
 Au        13.3588316868        2.5708506660       31.5177463060
 Au        16.3274718921        2.5709870056       31.5177038628
 Au         0.0000000001        5.1418233102       31.5176882395
 Au         2.9686274684        5.1418935020       31.5177749543
 Au         5.9373585921        5.1418933939       31.5167946604
 Au         8.9059392000        5.1425195330       31.5177777254
 Au        11.8745198079        5.1418933939       31.5167946604
 Au        14.8432509316        5.1418935020       31.5177749543
 Au         1.4843170072        7.7127684807       31.5177688164
 Au         4.4531876337        7.7125217827       31.5175987120
 Au         7.4222152675        7.7124517534       31.5177677913
 Au        10.3896631325        7.7124517534       31.5177677913
 Au        13.3586907663        7.7125217827       31.5175987120
 Au        16.3275613928        7.7127684807       31.5177688165
 Au         0.0000000001       10.2837233442       31.5177061671
 Au         2.9688590392       10.2835442489       31.5176217901
 Au         5.9376045194       10.2836435418       31.5175718543
 Au         8.9059392000       10.2836114883       31.5168499616
 Au        11.8742738806       10.2836435418       31.5175718543
 Au        14.8430193607       10.2835442489       31.5176217901
 Au         1.4843149973       12.8546227650       31.5177390194
 Au         4.4529330012       12.8546079027       31.5177194611
 Au         7.4215710547       12.8545423187       31.5177413348
 Au        10.3903073453       12.8545423187       31.5177413348
 Au        13.3589453988       12.8546079027       31.5177194611
 Au        16.3275634027       12.8546227650       31.5177390194
     193
 i =        2, E =     -6416.6272768433
 Au         1.4843232000        0.8569744000        0.0000000000
 Au         4.4529696000        0.8569744000        0.0000000000
 Au         7.4216160000        0.8569744000        0.0000000000
 Au        10.3902624000        0.8569744000        0.0000000000
 Au        13.3589088000        0.8569744000        0.0000000000
 Au        16.3275552000        0.8569744000        0.0000000000
 Au         0.0000000000        3.4278976000        0.0000000000
 Au         2.9686464000        3.4278976000        0.0000000000
 Au         5.9372928000        3.4278976000        0.0000000000
 Au         8.9059392000        3.4278976000        0.0000000000
 Au        11.8745856000        3.4278976000        0.0000000000
 Au        14.8432320000        3.4278976000        0.0000000000
 Au         1.4843232000        5.9988207900        0.0000000000
 Au         4.4529696000        5.9988207900        0.0000000000
 Au         7.4216160000        5.9988207900        0.0000000000
 Au        10.3902624000        5.9988207900        0.0000000000
 Au        13.3589088000        5.9988207900        0.0000000000
 Au        16.3275552000        5.9988207900        0.0000000000
 Au         0.0000000000        8.5697439900        0.0000000000
 Au         2.9686464000        8.5697439900        0.0000000000
 Au         5.9372928000        8.5697439900        0.0000000000
 Au         8.9059392000        8.5697439900        0.0000000000
 Au        11.8745856000        8.5697439900        0.0000000000
 Au        14.8432320000        8.5697439900        0.0000000000
 Au         1.4843232000       11.1406671900        0.0000000000
 Au         4.4529696000       11.1406671900        0.0000000000
 Au         7.4216160000       11.1406671900        0.0000000000
 Au        10.3902624000       11.1406671900        0.0000000000
 Au        13.3589088000       11.1406671900        0.0000000000
 Au        16.3275552000       11.1406671900        0.0000000000
 Au         0.0000000000       13.7115903800        0.0000000000
 Au         2.9686464000       13.7115903800        0.0000000000
 Au         5.9372928000       13.7115903800        0.0000000000
 Au         8.9059392000       13.7115903800        0.0000000000
 Au        11.8745856000       13.7115903800        0.0000000000
 Au        14.8432320000       13.7115903800        0.0000000000
 Au         0.0000000007        1.7148025171        2.4198741941
 Au         2.9687147072        1.7134200540        2.4192045335
 Au         5.9371439293        1.7148850517        2.4197767573
 Au         8.9059392000        1.7157177820        2.4209660869
 Au        11.8747344707        1.7148850517        2.4197767574
 Au        14.8431636924        1.7134200540        2.4192045336
 Au         1.4838820515        4.2848327778        2.4190302085
 Au         4.4572754281        4.2876748114        2.4247494912
 Au         7.4252158380        4.2859387264        2.4233294679
 Au        10.3866625620        4.2859387264        2.4233294679
 Au        13.3546029718        4.2876748114        2.4247494911
 Au        16.3279963483        4.2848327777        2.4190302085
 Au         0.0000000007        6.8556465989        2.4193545077
 Au         2.9696539422        6.8553979716        2.4194648759
 Au         5.9396128953        6.8583430226        2.4234458332
 Au         8.9059392000        6.8553133039        2.4174331777
 Au        11.8722655047        6.8583430225        2.4234458332
 Au        14.8422244575        6.8553979715        2.4194648762
 Au         1.4849525838        9.4269649794        2.4198537738
 Au         4.4548044407        9.4255649094        2.4204698956
 Au         7.4204657450        9.4234071008        2.4232875384
 Au        10.3914126550        9.4234071008        2.4232875384
 Au        13.3570739592        9.4255649094        2.4204698958
 Au        16.3269258159        9.4269649794        2.4198537740
 Au         0.0000000007       11.9973725388        2.4197855464
 Au         2.9688051690       11.9976939372        2.4195360016
 Au         5.9377500076       11.9964752333        2.4200113093
 Au         8.9059392000       11.9928206313        2.4250944588
 Au        11.8741283924       11.9964752333        2.4200113092
 Au        14.8430732306       11.9976939372        2.4195360017
 Au         1.4842195396       14.5686747281        2.4198552223
 Au         4.4529192255       14.5687365753        2.4196847051
 Au         7.4218217713       14.5688384539        2.4192029396
 Au        10.3900566287       14.5688384539        2.4192029396
 Au        13.3589591745       14.5687365753        2.4196847052
 Au        16.3276588601       14.5686747281        2.4198552224
 Au         0.0000000006        0.0002398124        4.8587947704
 Au         2.9688185898        0.0001095387        4.8585752582
 Au         5.9372249052       -0.0001860030        4.8592081835
 Au         8.9059392000       -0.0001879672        4.8586070961
 Au        11.8746534948       -0.0001860030        4.8592081835
 Au        14.8430598098        0.0001095387        4.8585752582
 Au         1.4836899615        2.5704108494        4.8590415082
 Au         4.4522155060        2.5693385011        4.8582827463
 Au         7.4191109608        2.5643257787        4.8582596943
 Au        10.3927674392        2.5643257787        4.8582596943
 Au        13.3596628940        2.5693385011        4.8582827464
 Au        16.3281884383        2.5704108494        4.8590415085
 Au         0.0000000006        5.1416619709        4.8586504926
 Au         2.9670008729        5.1417394407        4.8583650348
 Au         5.9340799479        5.1397452320        4.8944860865
 Au         8.9059392000        5.1192770900        4.8839885054
 Au        11.8777984521        5.1397452320        4.8944860865
 Au        14.8448775268        5.1417394407        4.8583650349
 Au         1.4847748897        7.7131245689        4.8591254425
 Au         4.4467532389        7.7137740784        4.8584869454
 Au         7.4016535552        7.7241528277        4.8832631192
 Au        10.4102248447        7.7241528277        4.8832631192
 Au        13.3651251611        7.7137740784        4.8584869454
 Au        16.3271035101        7.7131245690        4.8591254428
 Au         0.0000000005       10.2829068654        4.8585952166
 Au         2.9680816343       10.2841905399        4.8586441476
 Au         5.9326305818       10.2884169228        4.8583735686
 Au         8.9059392000       10.2867314513        4.8944701140
 Au        11.8792478182       10.2884169229        4.8583735686
 Au        14.8437967653       10.2841905399        4.8586441477
 Au         1.4852938926       12.8545943795        4.8585424997
 Au         4.4526320952       12.8542397976        4.8589434387
 Au         7.4209294703       12.8567126308        4.8581634693
 Au        10.3909489298       12.8567126308        4.8581634693
 Au        13.3592463049       12.8542397977        4.8589434387
 Au        16.3265845072       12.8545943796        4.8585425000
 Au         7.4522797717        6.0161329334        7.2512737898
 Au        10.3595986283        6.0161329334        7.2512737898
 Au         8.9059392000        8.5344992068        7.2508583036
 Au         8.9059392000        6.8557791607        9.4420160570
 Au         8.9059391999        6.8556705753       12.0808142561
 Au         8.9059392001        6.8564460918       14.5577613467
 Au         8.9059392000        6.8557643974       16.9905582907
 Au         8.9059391999        6.8551244255       19.4228627620
 Au         8.9059392000        6.8559601734       21.8991091587
 Au         8.9059392000        6.8558832091       24.5373478893
 Au         8.9059392000        5.1774858186       26.7296485418
 Au         7.4527851878        7.6951227486       26.7289403864
 Au        10.3590932123        7.6951227485       26.7289403864
 Au         0.0000000006        1.7136948715       29.1229316170
 Au         2.9689354885        1.7146324699       29.1218473981
 Au         5.9348331278        1.7129889452       29.1235588294
 Au         8.9059392000        1.7093837121       29.1202959693
 Au        11.8770452723        1.7129889452       29.1235588294
 Au        14.8429429113        1.7146324699       29.1218473980
 Au         1.4855319721        4.2844426726       29.1221612162
 Au         4.4500855043        4.2830967305       29.1253423744
 Au         7.4232741404        4.2728072273       29.0935644863
 Au        10.3886042596        4.2728072273       29.0935644863
 Au        13.3617928957        4.2830967305       29.1253423744
 Au        16.3263464277        4.2844426725       29.1221612160
 Au         0.0000000005        6.8565671102       29.1222581507
 Au         2.9670623272        6.8550439624       29.1230822778
 Au         5.9272945229        6.8635938135       29.0942895582
 Au         8.9059392000        6.8562277859       29.1100249243
 Au        11.8845838772        6.8635938135       29.0942895583
 Au        14.8448160725        6.8550439624       29.1230822776
 Au         1.4835197014        9.4267400013       29.1221321132
 Au         4.4493117633        9.4289365678       29.1198802085
 Au         7.4100290013        9.4316247216       29.0938624934
 Au        10.4018493987        9.4316247216       29.0938624934
 Au        13.3625666367        9.4289365677       29.1198802086
 Au        16.3283586984        9.4267400013       29.1221321129
 Au         0.0000000005       11.9977465836       29.1224149787
 Au         2.9686353810       11.9979501842       29.1223484393
 Au         5.9373338088       12.0000999348       29.1235120625
 Au         8.9059392000       12.0011040175       29.1257159821
 Au        11.8745445912       12.0000999348       29.1235120625
 Au        14.8432430186       11.9979501842       29.1223484392
 Au         1.4840827906       14.5678626338       29.1226215739
 Au         4.4534035263       14.5686712371       29.1222810958
 Au         7.4216179399       14.5685181610       29.1218071354
 Au        10.3902604601       14.5685181610       29.1218071354
 Au        13.3584748737       14.5686712371       29.1222810958
 Au        16.3277956093       14.5678626337       29.1226215736
 Au         0.0000000007       -0.0003653093       31.5612914346
 Au         2.9689025391        0.0004756951       31.5612434386
 Au         5.9372012103       -0.0002524684       31.5617796433
 Au         8.9059392000        0.0014855387       31.5599510871
 Au        11.8746771897       -0.0002524684       31.5617796432
 Au        14.8429758605        0.0004756951       31.5612434386
 Au         1.4849425711        2.5714017448       31.5614066867
 Au         4.4535795954        2.5703906653       31.5617753550
 Au         7.4203566357        2.5738556153       31.5600674237
 Au        10.3915217643        2.5738556153       31.5600674237
 Au        13.3582988046        2.5703906653       31.5617753552
 Au        16.3269358287        2.5714017448       31.5614066867
 Au         0.0000000007        5.1416699583       31.5612575302
 Au         2.9685254394        5.1422058953       31.5619918050
 Au         5.9379932253        5.1423241019       31.5538909820
 Au         8.9059392000        5.1469111896       31.5613702719
 Au        11.8738851748        5.1423241019       31.5538909820
 Au        14.8433529601        5.1422058953       31.5619918048
 Au         1.4842740020        7.7127753087       31.5619193077
 Au         4.4549001521        7.7108004769       31.5604061384
 Au         7.4261385517        7.7103820897       31.5612964117
 Au        10.3857398482        7.7103820897       31.5612964117
 Au        13.3569782480        7.7108004769       31.5604061385
 Au        16.3276043978        7.7127753087       31.5619193076
 Au         0.0000000007       10.2839432799       31.5614316323
 Au         2.9703515903       10.2825017640       31.5607705029
 Au         5.9398692844       10.2831261529       31.5601971300
 Au         8.9059392000       10.2828207974       31.5543394356
 Au        11.8720091156       10.2831261529       31.5601971300
 Au        14.8415268092       10.2825017640       31.5607705028
 Au         1.4842782229       12.8546502742       31.5616867525
 Au         4.4526603688       12.8545474402       31.5615567297
 Au         7.4212804345       12.8540532725       31.5617335245
 Au        10.3905979654       12.8540532726       31.5617335244
 Au        13.3592180312       12.8545474402       31.5615567297
 Au        16.3276001768       12.8546502742       31.5616867525
     193
 i =        3, E =     -6416.6341810019
 Au         1.4843232000        0.8569744000        0.0000000000
 Au         4.4529696000        0.8569744000        0.0000000000
 Au         7.4216160000        0.8569744000        0.0000000000
 Au        10.3902624000        0.8569744000        0.0000000000
 Au        13.3589088000        0.8569744000        0.0000000000
 Au        16.3275552000        0.8569744000        0.0000000000
 Au         0.0000000000        3.4278976000        0.0000000000
 Au         2.9686464000        3.4278976000        0.0000000000
 Au         5.9372928000        3.4278976000        0.0000000000
 Au         8.9059392000        3.4278976000        0.0000000000
 Au        11.8745856000        3.4278976000        0.0000000000
 Au        14.8432320000        3.4278976000        0.0000000000
 Au         1.4843232000        5.9988207900        0.0000000000
 Au         4.4529696000        5.9988207900        0.0000000000
 Au         7.4216160000        5.9988207900        0.0000000000
 Au        10.3902624000        5.9988207900        0.0000000000
 Au        13.3589088000        5.9988207900        0.0000000000
 Au        16.3275552000        5.9988207900        0.0000000000
 Au         0.0000000000        8.5697439900        0.0000000000
 Au         2.9686464000        8.5697439900        0.0000000000
 Au         5.9372928000        8.5697439900        0.0000000000
 Au         8.9059392000        8.5697439900        0.0000000000
 Au        11.8745856000        8.5697439900        0.0000000000
 Au        14.8432320000        8.5697439900        0.0000000000
 Au         1.4843232000       11.1406671900        0.0000000000
 Au         4.4529696000       11.1406671900        0.0000000000
 Au         7.4216160000       11.1406671900        0.0000000000
 Au        10.3902624000       11.1406671900        0.0000000000
 Au        13.3589088000       11.1406671900        0.0000000000
 Au        16.3275552000       11.1406671900        0.0000000000
 Au         0.0000000000       13.7115903800        0.0000000000
 Au         2.9686464000       13.7115903800        0.0000000000
 Au         5.9372928000       13.7115903800        0.0000000000
 Au         8.9059392000       13.7115903800        0.0000000000
 Au        11.8745856000       13.7115903800        0.0000000000
 Au        14.8432320000       13.7115903800        0.0000000000
 Au         0.0000000009        1.7151151037        2.4184923908
 Au         2.9687426009        1.7133008774        2.4175485258
 Au         5.9370904722        1.7153081673        2.4183263331
 Au         8.9059392000        1.7163439027        2.4199469716
 Au        11.8747879278        1.7153081673        2.4183263331
 Au        14.8431357985        1.7133008774        2.4175485259
 Au         1.4838163213        4.2848052837        2.4173227902
 Au         4.4592284287        4.2889166314        2.4255291332
 Au         7.4264489847        4.2866915152        2.4237596816
 Au        10.3854294152        4.2866915152        2.4237596816
 Au        13.3526499712        4.2889166314        2.4255291331
 Au        16.3280620783        4.2848052837        2.4173227903
 Au         0.0000000009        6.8556151012        2.4178124955
 Au         2.9700706220        6.8552171495        2.4178982315
 Au         5.9407455467        6.8590066525        2.4239122221
 Au         8.9059391999        6.8551588691        2.4164856609
 Au        11.8711328534        6.8590066525        2.4239122222
 Au        14.8418077775        6.8552171495        2.4178982318
 Au         1.4852205694        9.4270403844        2.4184530770
 Au         4.4554376020        9.4251577673        2.4192828235
 Au         7.4204345842        9.4220798521        2.4236844921
 Au        10.3914438158        9.4220798521        2.4236844920
 Au        13.3564407979        9.4251577673        2.4192828237
 Au        16.3266578302        9.4270403844        2.4184530773
 Au         0.0000000010       11.9972695273        2.4184125703
 Au         2.9688835284       11.9977053912        2.4179991527
 Au         5.9379810416       11.9960226209        2.4186598017
 Au         8.9059392000       11.9906091127        2.4260066275
 Au        11.8738973585       11.9960226209        2.4186598016
 Au        14.8429948711       11.9977053912        2.4179991527
 Au         1.4841832584       14.5687167764        2.4184697888
 Au         4.4529170423       14.5687845150        2.4182266151
 Au         7.4219220202       14.5689220243        2.4175285060
 Au        10.3899563798       14.5689220243        2.4175285060
 Au        13.3589613577       14.5687845150        2.4182266152
 Au        16.3276951413       14.5687167764        2.4184697889
 Au         0.0000000008        0.0003031127        4.8623023989