 its           1
 iter_nr           0
 its           2
 iter_nr           0
 its           3
 iter_nr           0
 its           4
 iter_nr           0
 its           5
 iter_nr           0
 its           6
 iter_nr           0
 its           7
 iter_nr           0
 its           8
 iter_nr           0
 its           9
 iter_nr           0
 its          10
 iter_nr           0
 its          11
 iter_nr           0
 its          12
 iter_nr           0
 its          13
 iter_nr           0
 its          14
 iter_nr           0
 its          15
 iter_nr           0
 its          16
 iter_nr           0
 its          17
 iter_nr           0
 its          18
 iter_nr           0
 its          19
 iter_nr           0
 its          20
 iter_nr           0
 its          21
 iter_nr           0
 its          22
 iter_nr           0
 its          23
 iter_nr           0
 its          24
 iter_nr           0
 its          25
 iter_nr           0
                    T
 DBCSR| Communication thread load                                             87
 DBCSR| MPI: My node id                                                        0
 DBCSR| MPI: Number of nodes                                                  64
 DBCSR| OMP: Current number of threads                                         1
 DBCSR| OMP: Max number of threads                                             1
 DBCSR| Split modifier for TAS multiplication algorithm                  1.0E+00


  **** **** ******  **  PROGRAM STARTED AT               2023-09-12 09:26:26.404
 ***** ** ***  *** **   PROGRAM STARTED ON                             nid001341
 **    ****   ******    PROGRAM STARTED BY                                cahart
 ***** **    ** ** **   PROGRAM PROCESS ID                                183111
  **** **  *******  **  PROGRAM STARTED IN /mnt/lustre/a2fs-work2/work/e05/e05/c
                                           ahart/postdoc/transport/AuH2/cp2k-sme
                                           agol/archer_pbe/geo_opt/NEnergReal-64
                                           _kpoints-3-3-20_omp-1_ParallelOverKNu
                                           m-1/0.1

 CP2K| version string:                 CP2K version 2022.1 (Development Version)
 CP2K| source code revision number:                                  git:5518aa6
 CP2K| cp2kflags: omp libint fftw3 libxc elpa parallel mpi3 scalapack mkl       
 CP2K| is freely available from                            https://www.cp2k.org/
 CP2K| Program compiled at                          Tue 12 Sep 09:20:02 BST 2023
 CP2K| Program compiled on                                                  ln01
 CP2K| Program compiled for                                                local
 CP2K| Data directory path    /work/e05/e05/cahart/smeagol/smgl/cp2k-private-ser
 CP2K| Input file name                                                   4_V.inp

 GLOBAL| Force Environment number                                              1
 GLOBAL| Basis set file name                                        BASIS_MOLOPT
 GLOBAL| Potential file name                                      GTH_POTENTIALS
 GLOBAL| MM Potential file name                                     MM_POTENTIAL
 GLOBAL| Coordinate file name                                             em.xyz
 GLOBAL| Method name                                                        CP2K
 GLOBAL| Project name                                                          V
 GLOBAL| Run type                                                        GEO_OPT
 GLOBAL| FFT library                                                       FFTW3
 GLOBAL| Diagonalization library                                            ELPA
 GLOBAL| Minimum number of eigenvectors for ELPA usage                        16
 GLOBAL| Orthonormality check for eigenvectors                          DISABLED
 GLOBAL| Matrix multiplication library                                 ScaLAPACK
 GLOBAL| All-to-all communication in single precision                          F
 GLOBAL| FFTs using library dependent lengths                                  T
 GLOBAL| Grid backend                                                       AUTO
 GLOBAL| Global print level                                               MEDIUM
 GLOBAL| MPI I/O enabled                                                       T
 GLOBAL| Total number of message passing processes                            64
 GLOBAL| Number of threads for this process                                    1
 GLOBAL| This output is from process                                           0
 GLOBAL| Stack size for threads created by OpenMP (OMP_STACKSIZE)        default
 GLOBAL| CPU model name                          AMD EPYC 7742 64-Core Processor
 GLOBAL| CPUID                                                              1002

 MEMORY| system memory details [Kb]
 MEMORY|                        rank 0           min           max       average
 MEMORY| MemTotal            263341976     263341976     263341976     263341976
 MEMORY| MemFree             242146160     242146160     242147168     242146703
 MEMORY| Buffers                     0             0             0             0
 MEMORY| Cached                4514540       4513200       4514540       4514414
 MEMORY| Slab                  3181296       3181216       3181296       3181245
 MEMORY| SReclaimable           134420        134408        134420        134418
 MEMORY| MemLikelyFree       246795120     246794776     246795624     246795536


 *** Fundamental physical constants (SI units) ***

 *** Literature: B. J. Mohr and B. N. Taylor,
 ***             CODATA recommended values of the fundamental physical
 ***             constants: 2006, Web Version 5.1
 ***             http://physics.nist.gov/constants

 Speed of light in vacuum [m/s]                             2.99792458000000E+08
 Magnetic constant or permeability of vacuum [N/A**2]       1.25663706143592E-06
 Electric constant or permittivity of vacuum [F/m]          8.85418781762039E-12
 Planck constant (h) [J*s]                                  6.62606896000000E-34
 Planck constant (h-bar) [J*s]                              1.05457162825177E-34
 Elementary charge [C]                                      1.60217648700000E-19
 Electron mass [kg]                                         9.10938215000000E-31
 Electron g factor [ ]                                     -2.00231930436220E+00
 Proton mass [kg]                                           1.67262163700000E-27
 Fine-structure constant                                    7.29735253760000E-03
 Rydberg constant [1/m]                                     1.09737315685270E+07
 Avogadro constant [1/mol]                                  6.02214179000000E+23
 Boltzmann constant [J/K]                                   1.38065040000000E-23
 Atomic mass unit [kg]                                      1.66053878200000E-27
 Bohr radius [m]                                            5.29177208590000E-11

 *** Conversion factors ***

 [u] -> [a.u.]                                              1.82288848426455E+03
 [Angstrom] -> [Bohr] = [a.u.]                              1.88972613288564E+00
 [a.u.] = [Bohr] -> [Angstrom]                              5.29177208590000E-01
 [a.u.] -> [s]                                              2.41888432650478E-17
 [a.u.] -> [fs]                                             2.41888432650478E-02
 [a.u.] -> [J]                                              4.35974393937059E-18
 [a.u.] -> [N]                                              8.23872205491840E-08
 [a.u.] -> [K]                                              3.15774647902944E+05
 [a.u.] -> [kJ/mol]                                         2.62549961709828E+03
 [a.u.] -> [kcal/mol]                                       6.27509468713739E+02
 [a.u.] -> [Pa]                                             2.94210107994716E+13
 [a.u.] -> [bar]                                            2.94210107994716E+08
 [a.u.] -> [atm]                                            2.90362800883016E+08
 [a.u.] -> [eV]                                             2.72113838565563E+01
 [a.u.] -> [Hz]                                             6.57968392072181E+15
 [a.u.] -> [1/cm] (wave numbers)                            2.19474631370540E+05
 [a.u./Bohr**2] -> [1/cm]                                   5.14048714338585E+03
 

 CELL_TOP| Volume [angstrom^3]:                                      3044.391638
 CELL_TOP| Vector a [angstrom     8.867     0.000     0.000   |a| =     8.867120
 CELL_TOP| Vector b [angstrom     0.000     8.867     0.000   |b| =     8.867120
 CELL_TOP| Vector c [angstrom     0.000     0.000    38.720   |c| =    38.720000
 CELL_TOP| Angle (b,c), alpha [degree]:                                90.000000
 CELL_TOP| Angle (a,c), beta  [degree]:                                90.000000
 CELL_TOP| Angle (a,b), gamma [degree]:                                90.000000
 CELL_TOP| Numerically orthorhombic:                                         YES
 CELL_TOP| Periodicity                                                       XYZ

 GENERATE|  Preliminary Number of Bonds generated:                             0
 GENERATE|  Achieved consistency in connectivity generation.

 CELL| Volume [angstrom^3]:                                          3044.391638
 CELL| Vector a [angstrom]:       8.867     0.000     0.000   |a| =     8.867120
 CELL| Vector b [angstrom]:       0.000     8.867     0.000   |b| =     8.867120
 CELL| Vector c [angstrom]:       0.000     0.000    38.720   |c| =    38.720000
 CELL| Angle (b,c), alpha [degree]:                                    90.000000
 CELL| Angle (a,c), beta  [degree]:                                    90.000000
 CELL| Angle (a,b), gamma [degree]:                                    90.000000
 CELL| Numerically orthorhombic:                                             YES
 CELL| Periodicity                                                           XYZ

 CELL_REF| Volume [angstrom^3]:                                      3044.391638
 CELL_REF| Vector a [angstrom     8.867     0.000     0.000   |a| =     8.867120
 CELL_REF| Vector b [angstrom     0.000     8.867     0.000   |b| =     8.867120
 CELL_REF| Vector c [angstrom     0.000     0.000    38.720   |c| =    38.720000
 CELL_REF| Angle (b,c), alpha [degree]:                                90.000000
 CELL_REF| Angle (a,c), beta  [degree]:                                90.000000
 CELL_REF| Angle (a,b), gamma [degree]:                                90.000000
 CELL_REF| Numerically orthorhombic:                                         YES
 CELL_REF| Periodicity                                                       XYZ

 *** WARNING in cryssym.F:165 :: Symmetry library SPGLIB not available ***


 *******************************************************************************
                                    Kpoints
 *******************************************************************************
 BRILLOUIN| K-point scheme                                        Monkhorst-Pack
 BRILLOUIN| K-Point grid                                             3    3    1
 BRILLOUIN| Accuracy in Symmetry determination                      0.100000E-07
 BRILLOUIN| K-Point point group symmetrization                               OFF
 BRILLOUIN| Wavefunction type                                            COMPLEX
 BRILLOUIN| Use full k-point grid     
 BRILLOUIN| List of Kpoints [2 Pi/Bohr]                                        9
 BRILLOUIN| Number           Weight            X              Y              Z
 BRILLOUIN|     1           0.11111       -0.33333       -0.33333        0.00000
 BRILLOUIN|     2           0.11111       -0.33333        0.00000        0.00000
 BRILLOUIN|     3           0.11111       -0.33333        0.33333        0.00000
 BRILLOUIN|     4           0.11111        0.00000       -0.33333        0.00000
 BRILLOUIN|     5           0.11111        0.00000        0.00000        0.00000
 BRILLOUIN|     6           0.11111        0.00000        0.33333        0.00000
 BRILLOUIN|     7           0.11111        0.33333       -0.33333        0.00000
 BRILLOUIN|     8           0.11111        0.33333        0.00000        0.00000
 BRILLOUIN|     9           0.11111        0.33333        0.33333        0.00000
 *******************************************************************************

 *******************************************************************************
 *******************************************************************************
 **                                                                           **
 **     #####                         ##              ##                      **
 **    ##   ##            ##          ##              ##                      **
 **   ##     ##                       ##            ######                    **
 **   ##     ##  ##   ##  ##   #####  ##  ##   ####   ##    #####    #####    **
 **   ##     ##  ##   ##  ##  ##      ## ##   ##      ##   ##   ##  ##   ##   **
 **   ##  ## ##  ##   ##  ##  ##      ####     ###    ##   ######   ######    **
 **    ##  ###   ##   ##  ##  ##      ## ##      ##   ##   ##       ##        **
 **     #######   #####   ##   #####  ##  ##  ####    ##    #####   ##        **
 **           ##                                                    ##        **
 **                                                                           **
 **                                                ... make the atoms dance   **
 **                                                                           **
 **            Copyright (C) by CP2K developers group (2000-2022)             **
 **                      J. Chem. Phys. 152, 194103 (2020)                    **
 **                                                                           **
 *******************************************************************************

 DFT| Spin restricted Kohn-Sham (RKS) calculation                            RKS
 DFT| Multiplicity                                                             2
 DFT| Number of spin states                                                    1
 DFT| Charge                                                                   0
 DFT| Self-interaction correction (SIC)                                       NO
 DFT| Cutoffs: density                                              1.000000E-10
 DFT|          gradient                                             1.000000E-10
 DFT|          tau                                                  1.000000E-10
 DFT|          cutoff_smoothing_range                               0.000000E+00
 DFT| XC density smoothing                                                  NONE
 DFT| XC derivatives                                                          PW

 FUNCTIONAL| PBE:
 FUNCTIONAL| J.P.Perdew, K.Burke, M.Ernzerhof, Phys. Rev. Letter, vol. 77, n 18,
 FUNCTIONAL|  pp. 3865-3868, (1996){spin unpolarized}                           


 QS| Method:                                                                 GPW
 QS| Density plane wave grid type                        NON-SPHERICAL FULLSPACE
 QS| Number of grid levels:                                                    4
 QS| Density cutoff [a.u.]:                                                300.0
 QS| Multi grid cutoff [a.u.]: 1) grid level                               300.0
 QS|                           2) grid level                               100.0
 QS|                           3) grid level                                33.3
 QS|                           4) grid level                                11.1
 QS| Grid level progression factor:                                          3.0
 QS| Relative density cutoff [a.u.]:                                        30.0
 QS| Interaction thresholds: eps_pgf_orb:                                1.0E-05
 QS|                         eps_filter_matrix:                          0.0E+00
 QS|                         eps_core_charge:                            1.0E-12
 QS|                         eps_rho_gspace:                             1.0E-10
 QS|                         eps_rho_rspace:                             1.0E-10
 QS|                         eps_gvg_rspace:                             1.0E-05
 QS|                         eps_ppl:                                    1.0E-02
 QS|                         eps_ppnl:                                   1.0E-07


 ATOMIC KIND INFORMATION

  1. Atomic kind: Au                                    Number of atoms:     111

     Orbital Basis Set                                         SZV-MOLOPT-SR-GTH

       Number of orbital shell sets:                                           1
       Number of orbital shells:                                               3
       Number of primitive Cartesian functions:                                5
       Number of Cartesian basis functions:                                   10
       Number of spherical basis functions:                                    9
       Norm type:                                                              2

       Normalised Cartesian orbitals:

                        Set   Shell   Orbital            Exponent    Coefficient

                          1       1    2s                2.950008       0.074626
                                                         1.563057      -0.007898
                                                         0.666664      -0.297688
                                                         0.251083       0.136809
                                                         0.081714       0.088198

                          1       2    3px               2.950008       0.148824
                                                         1.563057       0.025430
                                                         0.666664      -0.123003
                                                         0.251083       0.033648
                                                         0.081714       0.059008
                          1       2    3py               2.950008       0.148824
                                                         1.563057       0.025430
                                                         0.666664      -0.123003
                                                         0.251083       0.033648
                                                         0.081714       0.059008
                          1       2    3pz               2.950008       0.148824
                                                         1.563057       0.025430
                                                         0.666664      -0.123003
                                                         0.251083       0.033648
                                                         0.081714       0.059008

                          1       3    4dx2              2.950008      -0.139595
                                                         1.563057       1.319655
                                                         0.666664       0.377081
                                                         0.251083       0.046872
                                                         0.081714       0.001393
                          1       3    4dxy              2.950008      -0.241786
                                                         1.563057       2.285709
                                                         0.666664       0.653124
                                                         0.251083       0.081185
                                                         0.081714       0.002412
                          1       3    4dxz              2.950008      -0.241786
                                                         1.563057       2.285709
                                                         0.666664       0.653124
                                                         0.251083       0.081185
                                                         0.081714       0.002412
                          1       3    4dy2              2.950008      -0.139595
                                                         1.563057       1.319655
                                                         0.666664       0.377081
                                                         0.251083       0.046872
                                                         0.081714       0.001393
                          1       3    4dyz              2.950008      -0.241786
                                                         1.563057       2.285709
                                                         0.666664       0.653124
                                                         0.251083       0.081185
                                                         0.081714       0.002412
                          1       3    4dz2              2.950008      -0.139595
                                                         1.563057       1.319655
                                                         0.666664       0.377081
                                                         0.251083       0.046872
                                                         0.081714       0.001393

       Atomic covalent radius [Angstrom]:                                  1.340

       Atomic van der Waals radius [Angstrom]:                             1.660

     GTH Potential information for                                   GTH-PBE-q11

       Description:                       Goedecker-Teter-Hutter pseudopotential
                                           Goedecker et al., PRB 54, 1703 (1996)
                                          Hartwigsen et al., PRB 58, 3641 (1998)
                                                      Krack, TCA 114, 145 (2005)

       Gaussian exponent of the core charge distribution:               1.436369
       Electronic configuration (s p d ...):                           1   0  10

       Parameters of the local part of the GTH pseudopotential:

                          rloc        C1          C2          C3          C4
                        0.590000   10.517179

       Parameters of the non-local part of the GTH pseudopotential:

                   l      r(l)      h(i,j,l)

                   0    0.543847    5.786811   -2.250680
                                   -2.250680    2.905615
                   1    0.609173    4.284049   -4.071285
                                   -4.071285    4.817210
                   2    0.437309   -7.403281    3.010193
                                    3.010193   -3.413238

  2. Atomic kind: H                                     Number of atoms:       2

     Orbital Basis Set                                        DZVP-MOLOPT-SR-GTH

       Number of orbital shell sets:                                           1
       Number of orbital shells:                                               3
       Number of primitive Cartesian functions:                                5
       Number of Cartesian basis functions:                                    5
       Number of spherical basis functions:                                    5
       Norm type:                                                              2

       Normalised Cartesian orbitals:

                        Set   Shell   Orbital            Exponent    Coefficient

                          1       1    2s               10.068468      -0.133023
                                                         2.680223      -0.177618
                                                         0.791502      -0.258419
                                                         0.239116      -0.107525
                                                         0.082193      -0.014019

                          1       2    3s               10.068468       0.344673
                                                         2.680223       1.819821
                                                         0.791502      -0.999069
                                                         0.239116       0.017430
                                                         0.082193       0.082660

                          1       3    3px              10.068468       0.155326
                                                         2.680223       0.367157
                                                         0.791502       0.311480
                                                         0.239116       0.080105
                                                         0.082193       0.033440
                          1       3    3py              10.068468       0.155326
                                                         2.680223       0.367157
                                                         0.791502       0.311480
                                                         0.239116       0.080105
                                                         0.082193       0.033440
                          1       3    3pz              10.068468       0.155326
                                                         2.680223       0.367157
                                                         0.791502       0.311480
                                                         0.239116       0.080105
                                                         0.082193       0.033440

       Atomic covalent radius [Angstrom]:                                  0.320

       Atomic van der Waals radius [Angstrom]:                             1.090

     GTH Potential information for                                    GTH-PBE-q1

       Description:                       Goedecker-Teter-Hutter pseudopotential
                                           Goedecker et al., PRB 54, 1703 (1996)
                                          Hartwigsen et al., PRB 58, 3641 (1998)
                                                      Krack, TCA 114, 145 (2005)

       Gaussian exponent of the core charge distribution:              12.500000
       Electronic configuration (s p d ...):                                   1

       Parameters of the local part of the GTH pseudopotential:

                          rloc        C1          C2          C3          C4
                        0.200000   -4.178900    0.724463


 MOLECULE KIND INFORMATION


 All atoms are their own molecule, skipping detailed information


 TOTAL NUMBERS AND MAXIMUM NUMBERS

  Total number of            - Atomic kinds:                                   2
                             - Atoms:                                        113
                             - Shell sets:                                   113
                             - Shells:                                       339
                             - Primitive Cartesian functions:                565
                             - Cartesian basis functions:                   1120
                             - Spherical basis functions:                   1009

  Maximum angular momentum of- Orbital basis functions:                        2
                             - Local part of the GTH pseudopotential:          2
                             - Non-local part of the GTH pseudopotential:      4


 MODULE QUICKSTEP: ATOMIC COORDINATES IN ANGSTROM

   Atom Kind Element         X             Y             Z       Z(eff)     Mass
      1    1 Au   79      1.787000      1.281000      0.000000  11.0000 196.9666
      2    1 Au   79      0.309000      2.759000      2.090000  11.0000 196.9666
      3    1 Au   79      1.787000      1.281000      4.180000  11.0000 196.9666
      4    1 Au   79      0.309000      2.759000      6.270000  11.0000 196.9666
      5    1 Au   79      4.743000      1.281000      0.000000  11.0000 196.9666
      6    1 Au   79      3.265000      2.759000      2.090000  11.0000 196.9666
      7    1 Au   79      4.743000      1.281000      4.180000  11.0000 196.9666
      8    1 Au   79      3.265000      2.759000      6.270000  11.0000 196.9666
      9    1 Au   79      7.699000      1.281000      0.000000  11.0000 196.9666
     10    1 Au   79      6.221000      2.759000      2.090000  11.0000 196.9666
     11    1 Au   79      7.699000      1.281000      4.180000  11.0000 196.9666
     12    1 Au   79      6.221000      2.759000      6.270000  11.0000 196.9666
     13    1 Au   79      1.787000      4.236000      0.000000  11.0000 196.9666
     14    1 Au   79      0.309000      5.714000      2.090000  11.0000 196.9666
     15    1 Au   79      1.787000      4.236000      4.180000  11.0000 196.9666
     16    1 Au   79      0.309000      5.714000      6.270000  11.0000 196.9666
     17    1 Au   79      4.743000      4.236000      0.000000  11.0000 196.9666
     18    1 Au   79      3.265000      5.714000      2.090000  11.0000 196.9666
     19    1 Au   79      4.743000      4.236000      4.180000  11.0000 196.9666
     20    1 Au   79      3.265000      5.714000      6.270000  11.0000 196.9666
     21    1 Au   79      7.699000      4.236000      0.000000  11.0000 196.9666
     22    1 Au   79      6.221000      5.714000      2.090000  11.0000 196.9666
     23    1 Au   79      7.699000      4.236000      4.180000  11.0000 196.9666
     24    1 Au   79      6.221000      5.714000      6.270000  11.0000 196.9666
     25    1 Au   79      1.787000      7.192000      0.000000  11.0000 196.9666
     26    1 Au   79      0.309000      8.670000      2.090000  11.0000 196.9666
     27    1 Au   79      1.787000      7.192000      4.180000  11.0000 196.9666
     28    1 Au   79      0.309000      8.670000      6.270000  11.0000 196.9666
     29    1 Au   79      4.743000      7.192000      0.000000  11.0000 196.9666
     30    1 Au   79      3.265000      8.670000      2.090000  11.0000 196.9666
     31    1 Au   79      4.743000      7.192000      4.180000  11.0000 196.9666
     32    1 Au   79      3.265000      8.670000      6.270000  11.0000 196.9666
     33    1 Au   79      7.699000      7.192000      0.000000  11.0000 196.9666
     34    1 Au   79      6.221000      8.670000      2.090000  11.0000 196.9666
     35    1 Au   79      7.699000      7.192000      4.180000  11.0000 196.9666
     36    1 Au   79      6.221000      8.670000      6.270000  11.0000 196.9666
     37    1 Au   79      1.787000      1.281000      8.360000  11.0000 196.9666
     38    1 Au   79      1.787000      4.236000      8.360000  11.0000 196.9666
     39    1 Au   79      1.787000      7.192000      8.360000  11.0000 196.9666
     40    1 Au   79      4.743000      1.281000      8.360000  11.0000 196.9666
     41    1 Au   79      4.743000      4.236000      8.360000  11.0000 196.9666
     42    1 Au   79      4.743000      7.192000      8.360000  11.0000 196.9666
     43    1 Au   79      7.699000      1.281000      8.360000  11.0000 196.9666
     44    1 Au   79      7.699000      4.236000      8.360000  11.0000 196.9666
     45    1 Au   79      7.699000      7.192000      8.360000  11.0000 196.9666
     46    1 Au   79      0.309000      2.759000     10.450000  11.0000 196.9666
     47    1 Au   79      0.309000      5.714000     10.450000  11.0000 196.9666
     48    1 Au   79      0.309000      8.670000     10.450000  11.0000 196.9666
     49    1 Au   79      3.265000      2.759000     10.450000  11.0000 196.9666
     50    1 Au   79      3.265000      5.714000     10.450000  11.0000 196.9666
     51    1 Au   79      3.265000      8.670000     10.450000  11.0000 196.9666
     52    1 Au   79      6.221000      2.759000     10.450000  11.0000 196.9666
     53    1 Au   79      6.221000      5.714000     10.450000  11.0000 196.9666
     54    1 Au   79      6.221000      8.670000     10.450000  11.0000 196.9666
     55    1 Au   79      1.767000      4.215000     12.446000  11.0000 196.9666
     56    1 Au   79      1.766000      7.214000     12.446000  11.0000 196.9666
     57    1 Au   79      4.765000      4.213000     12.446000  11.0000 196.9666
     58    1 Au   79      4.767000      7.214000     12.445000  11.0000 196.9666
     59    1 Au   79      3.270932      5.718890     14.451439  11.0000 196.9666
     60    1 Au   79      3.492865      5.932516     17.135471  11.0000 196.9666
     61    2 H     1      3.209250      5.659807     18.925096   1.0000   1.0079
     62    2 H     1      3.325638      5.772092     19.795115   1.0000   1.0079
     63    1 Au   79      3.042494      5.498844     21.584734  11.0000 196.9666
     64    1 Au   79      3.261206      5.710306     24.269238  11.0000 196.9666
     65    1 Au   79      1.765000      4.213000     26.275000  11.0000 196.9666
     66    1 Au   79      1.765000      7.214000     26.274000  11.0000 196.9666
     67    1 Au   79      4.765000      4.214000     26.274000  11.0000 196.9666
     68    1 Au   79      4.765000      7.214000     26.275000  11.0000 196.9666
     69    1 Au   79      0.309000      2.759000     28.270000  11.0000 196.9666
     70    1 Au   79      0.309000      5.714000     28.270000  11.0000 196.9666
     71    1 Au   79      0.309000      8.670000     28.270000  11.0000 196.9666
     72    1 Au   79      3.265000      2.759000     28.270000  11.0000 196.9666
     73    1 Au   79      3.265000      5.714000     28.270000  11.0000 196.9666
     74    1 Au   79      3.265000      8.670000     28.270000  11.0000 196.9666
     75    1 Au   79      6.221000      2.759000     28.270000  11.0000 196.9666
     76    1 Au   79      6.221000      5.714000     28.270000  11.0000 196.9666
     77    1 Au   79      6.221000      8.670000     28.270000  11.0000 196.9666
     78    1 Au   79      1.787000      1.281000     30.360000  11.0000 196.9666
     79    1 Au   79      0.309000      2.759000     32.450000  11.0000 196.9666
     80    1 Au   79      1.787000      1.281000     34.540000  11.0000 196.9666
     81    1 Au   79      0.309000      2.759000     36.630000  11.0000 196.9666
     82    1 Au   79      4.743000      1.281000     30.360000  11.0000 196.9666
     83    1 Au   79      3.265000      2.759000     32.450000  11.0000 196.9666
     84    1 Au   79      4.743000      1.281000     34.540000  11.0000 196.9666
     85    1 Au   79      3.265000      2.759000     36.630000  11.0000 196.9666
     86    1 Au   79      7.699000      1.281000     30.360000  11.0000 196.9666
     87    1 Au   79      6.221000      2.759000     32.450000  11.0000 196.9666
     88    1 Au   79      7.699000      1.281000     34.540000  11.0000 196.9666
     89    1 Au   79      6.221000      2.759000     36.630000  11.0000 196.9666
     90    1 Au   79      1.787000      4.236000     30.360000  11.0000 196.9666
     91    1 Au   79      0.309000      5.714000     32.450000  11.0000 196.9666
     92    1 Au   79      1.787000      4.236000     34.540000  11.0000 196.9666
     93    1 Au   79      0.309000      5.714000     36.630000  11.0000 196.9666
     94    1 Au   79      4.743000      4.236000     30.360000  11.0000 196.9666
     95    1 Au   79      3.265000      5.714000     32.450000  11.0000 196.9666
     96    1 Au   79      4.743000      4.236000     34.540000  11.0000 196.9666
     97    1 Au   79      3.265000      5.714000     36.630000  11.0000 196.9666
     98    1 Au   79      7.699000      4.236000     30.360000  11.0000 196.9666
     99    1 Au   79      6.221000      5.714000     32.450000  11.0000 196.9666
    100    1 Au   79      7.699000      4.236000     34.540000  11.0000 196.9666
    101    1 Au   79      6.221000      5.714000     36.630000  11.0000 196.9666
    102    1 Au   79      1.787000      7.192000     30.360000  11.0000 196.9666
    103    1 Au   79      0.309000      8.670000     32.450000  11.0000 196.9666
    104    1 Au   79      1.787000      7.192000     34.540000  11.0000 196.9666
    105    1 Au   79      0.309000      8.670000     36.630000  11.0000 196.9666
    106    1 Au   79      4.743000      7.192000     30.360000  11.0000 196.9666
    107    1 Au   79      3.265000      8.670000     32.450000  11.0000 196.9666
    108    1 Au   79      4.743000      7.192000     34.540000  11.0000 196.9666
    109    1 Au   79      3.265000      8.670000     36.630000  11.0000 196.9666
    110    1 Au   79      7.699000      7.192000     30.360000  11.0000 196.9666
    111    1 Au   79      6.221000      8.670000     32.450000  11.0000 196.9666
    112    1 Au   79      7.699000      7.192000     34.540000  11.0000 196.9666
    113    1 Au   79      6.221000      8.670000     36.630000  11.0000 196.9666



 SCF PARAMETERS         Density guess:                                   RESTART
                        --------------------------------------------------------
                        max_scf:                                             500
                        max_scf_history:                                       0
                        max_diis:                                              4
                        --------------------------------------------------------
                        eps_scf:                                        1.00E-08
                        eps_scf_history:                                0.00E+00
                        eps_diis:                                       1.00E-01
                        eps_eigval:                                     1.00E-05
                        --------------------------------------------------------
                        level_shift [a.u.]:                             0.000000
                        added MOs                                       100    0
                        --------------------------------------------------------
                        Mixing method:                            BROYDEN_MIXING
                                                charge density mixing in g-space
                        --------------------------------------------------------
                        Smear method:                                FERMI_DIRAC
                        Electronic temperature [K]:                        300.0
                        Electronic temperature [a.u.]:                  9.50E-04
                        Accuracy threshold:                             1.00E-10
                        --------------------------------------------------------
                        No outer SCF

 PW_GRID| Information for grid number                                          1
 PW_GRID| Grid distributed over                                    64 processors
 PW_GRID| Real space group dimensions                                    64    1
 PW_GRID| the grid is blocked:                                                NO
 PW_GRID| Cutoff [a.u.]                                                    300.0
 PW_GRID| spherical cutoff:                                                   NO
 PW_GRID|   Bounds   1            -66      65                Points:         132
 PW_GRID|   Bounds   2            -66      65                Points:         132
 PW_GRID|   Bounds   3           -288     287                Points:         576
 PW_GRID| Volume element (a.u.^3)  0.2047E-02     Volume (a.u.^3)     20544.5734
 PW_GRID| Grid span                                                    FULLSPACE
 PW_GRID|   Distribution                         Average         Max         Min
 PW_GRID|   G-Vectors                           156816.0      156816      156816
 PW_GRID|   G-Rays                                1188.0        1188        1188
 PW_GRID|   Real Space Points                   156816.0      228096      152064

 PW_GRID| Information for grid number                                          2
 PW_GRID| Number of the reference grid                                         1
 PW_GRID| Grid distributed over                                    64 processors
 PW_GRID| Real space group dimensions                                    64    1
 PW_GRID| the grid is blocked:                                                NO
 PW_GRID| Cutoff [a.u.]                                                    100.0
 PW_GRID| spherical cutoff:                                                   NO
 PW_GRID|   Bounds   1            -37      37                Points:          75
 PW_GRID|   Bounds   2            -37      37                Points:          75
 PW_GRID|   Bounds   3           -165     164                Points:         330
 PW_GRID| Volume element (a.u.^3)  0.1107E-01     Volume (a.u.^3)     20544.5734
 PW_GRID| Grid span                                                    FULLSPACE
 PW_GRID|   Distribution                         Average         Max         Min
 PW_GRID|   G-Vectors                            29003.9       30300       27525
 PW_GRID|   G-Rays                                 386.7         404         367
 PW_GRID|   Real Space Points                    29003.9       49500       24750

 PW_GRID| Information for grid number                                          3
 PW_GRID| Number of the reference grid                                         1
 PW_GRID| Grid distributed over                                    64 processors
 PW_GRID| Real space group dimensions                                     8    8
 PW_GRID| the grid is blocked:                                                NO
 PW_GRID| Cutoff [a.u.]                                                     33.3
 PW_GRID| spherical cutoff:                                                   NO
 PW_GRID|   Bounds   1            -22      21                Points:          44
 PW_GRID|   Bounds   2            -22      21                Points:          44
 PW_GRID|   Bounds   3            -96      95                Points:         192
 PW_GRID| Volume element (a.u.^3)  0.5527E-01     Volume (a.u.^3)     20544.5734
 PW_GRID| Grid span                                                    FULLSPACE
 PW_GRID|   Distribution                         Average         Max         Min
 PW_GRID|   G-Vectors                             5808.0        6292        5456
 PW_GRID|   G-Rays                                 132.0         143         124
 PW_GRID|   Real Space Points                     5808.0        6912        4800

 PW_GRID| Information for grid number                                          4
 PW_GRID| Number of the reference grid                                         1
 PW_GRID| Grid distributed over                                    64 processors
 PW_GRID| Real space group dimensions                                     8    8
 PW_GRID| the grid is blocked:                                                NO
 PW_GRID| Cutoff [a.u.]                                                     11.1
 PW_GRID| spherical cutoff:                                                   NO
 PW_GRID|   Bounds   1            -12      12                Points:          25
 PW_GRID|   Bounds   2            -12      12                Points:          25
 PW_GRID|   Bounds   3            -55      54                Points:         110
 PW_GRID| Volume element (a.u.^3)  0.2988         Volume (a.u.^3)     20544.5734
 PW_GRID| Grid span                                                    FULLSPACE
 PW_GRID|   Distribution                         Average         Max         Min
 PW_GRID|   G-Vectors                             1074.2        1400         725
 PW_GRID|   G-Rays                                  43.0          56          29
 PW_GRID|   Real Space Points                     1074.2        1760         990

 POISSON| Solver                                                        PERIODIC
 POISSON| Periodicity                                                        XYZ

 RS_GRID| Information for grid number                                          1
 RS_GRID|   Bounds   1            -66      65                Points:         132
 RS_GRID|   Bounds   2            -66      65                Points:         132
 RS_GRID|   Bounds   3           -288     287                Points:         576
 RS_GRID| Real space distribution over                                 64 groups
 RS_GRID| Real space distribution along direction                              3
 RS_GRID| Border size                                                         35
 RS_GRID|   Distribution                         Average         Max         Min
 RS_GRID|   Planes                                  79.0          79          79

 RS_GRID| Information for grid number                                          2
 RS_GRID|   Bounds   1            -37      37                Points:          75
 RS_GRID|   Bounds   2            -37      37                Points:          75
 RS_GRID|   Bounds   3           -165     164                Points:         330
 RS_GRID| Real space distribution over                                 64 groups
 RS_GRID| Real space distribution along direction                              3
 RS_GRID| Border size                                                         24
 RS_GRID|   Distribution                         Average         Max         Min
 RS_GRID|   Planes                                  53.2          54          53

 RS_GRID| Information for grid number                                          3
 RS_GRID|   Bounds   1            -22      21                Points:          44
 RS_GRID|   Bounds   2            -22      21                Points:          44
 RS_GRID|   Bounds   3            -96      95                Points:         192
 RS_GRID| Real space fully replicated
 RS_GRID| Group size                                                           1

 RS_GRID| Information for grid number                                          4
 RS_GRID|   Bounds   1            -12      12                Points:          25
 RS_GRID|   Bounds   2            -12      12                Points:          25
 RS_GRID|   Bounds   3            -55      54                Points:         110
 RS_GRID| Real space fully replicated
 RS_GRID| Group size                                                           1

 KPOINTS| Number of kpoint groups                                              1
 KPOINTS| Size of each kpoint group                                           64
 KPOINTS| Number of kpoints per group                                          9

 BFGS| Use rational function optimization for step estimation:                NO
 BFGS| Use model Hessian for initial guess:                                  YES
 BFGS| Restart Hessian:                                                       NO
 BFGS| Trust radius:                                                       0.472

 *******************************************************************************
 ***                     STARTING GEOMETRY OPTIMIZATION                      ***
 ***                                   BFGS                                  ***
 *******************************************************************************

 Number of electrons:                                                       1223
 Number of occupied orbitals:                                                612
 Number of molecular orbitals:                                               712

 Number of orbital functions:                                               1009
 Number of independent orbital functions:                                   1009

 Extrapolation method: initial_guess


 SCF WAVEFUNCTION OPTIMIZATION

  Step     Update method      Time    Convergence         Total energy    Change
  ------------------------------------------------------------------------------
 SMEAGOL DEBUG| Number of electrons in the unit cell =      1222.9673689821
     1 NoMix/SMGL  0.30E+00   96.0     1.68702594     -3690.6560969546 -3.69E+03
 SMEAGOL DEBUG| Number of electrons in the unit cell =      1224.4157033302
     2 Broy./SMGL  0.30E+00   22.3     0.07176822     -3686.5936936604  4.06E+00
 SMEAGOL DEBUG| Number of electrons in the unit cell =      1223.7241869303
     3 Broy./SMGL  0.30E+00   22.2     0.06250141     -3693.6245611205 -7.03E+00
 SMEAGOL DEBUG| Number of electrons in the unit cell =      1223.5438515173
     4 Broy./SMGL  0.30E+00   22.3     0.03464193     -3692.3165405552  1.31E+00
 SMEAGOL DEBUG| Number of electrons in the unit cell =      1223.4027178801
     5 Broy./SMGL  0.30E+00   22.2     0.01704750     -3691.4820263690  8.35E-01
 SMEAGOL DEBUG| Number of electrons in the unit cell =      1223.1928372521
     6 Broy./SMGL  0.30E+00   22.2     0.00603543     -3690.8078592165  6.74E-01
 SMEAGOL DEBUG| Number of electrons in the unit cell =      1222.9801869660
     7 Broy./SMGL  0.30E+00   22.2     0.00253909     -3690.9159368790 -1.08E-01
 SMEAGOL DEBUG| Number of electrons in the unit cell =      1222.9555035036
     8 Broy./SMGL  0.30E+00   22.3     0.00106196     -3690.6325981664  2.83E-01
 SMEAGOL DEBUG| Number of electrons in the unit cell =      1222.9544000881
     9 Broy./SMGL  0.30E+00   22.3     0.00022932     -3690.6353135378 -2.72E-03
 SMEAGOL DEBUG| Number of electrons in the unit cell =      1222.9554499960
    10 Broy./SMGL  0.30E+00   22.3     0.00013810     -3690.6506772688 -1.54E-02
 SMEAGOL DEBUG| Number of electrons in the unit cell =      1222.9572491928
    11 Broy./SMGL  0.30E+00   22.2     0.00031329     -3690.6509200921 -2.43E-04
 SMEAGOL DEBUG| Number of electrons in the unit cell =      1222.9606385591
    12 Broy./SMGL  0.30E+00   22.3     0.00020448     -3690.6465783537  4.34E-03
 SMEAGOL DEBUG| Number of electrons in the unit cell =      1222.9625323908
    13 Broy./SMGL  0.30E+00   22.3     0.00027396     -3690.6457767712  8.02E-04
 SMEAGOL DEBUG| Number of electrons in the unit cell =      1222.9619383591
    14 Broy./SMGL  0.30E+00   22.3     0.00009299     -3690.6455665652  2.10E-04
 SMEAGOL DEBUG| Number of electrons in the unit cell =      1222.9608127898
    15 Broy./SMGL  0.30E+00   22.3     0.00011541     -3690.6452762439  2.90E-04
 SMEAGOL DEBUG| Number of electrons in the unit cell =      1222.9604287797
    16 Broy./SMGL  0.30E+00   22.3     0.00004320     -3690.6450096364  2.67E-04
 SMEAGOL DEBUG| Number of electrons in the unit cell =      1222.9602431247
    17 Broy./SMGL  0.30E+00   22.3     0.00002207     -3690.6450624679 -5.28E-05
 SMEAGOL DEBUG| Number of electrons in the unit cell =      1222.9601921691
    18 Broy./SMGL  0.30E+00   22.3     0.00002520     -3690.6448079880  2.54E-04
 SMEAGOL DEBUG| Number of electrons in the unit cell =      1222.9604114666
    19 Broy./SMGL  0.30E+00   22.2     0.00001729     -3690.6445952273  2.13E-04
 SMEAGOL DEBUG| Number of electrons in the unit cell =      1222.9605655550
    20 Broy./SMGL  0.30E+00   22.3     0.00000381     -3690.6446527249 -5.75E-05
 SMEAGOL DEBUG| Number of electrons in the unit cell =      1222.9607783014
    21 Broy./SMGL  0.30E+00   22.3     0.00000169     -3690.6444693814  1.83E-04
 SMEAGOL DEBUG| Number of electrons in the unit cell =      1222.9608413364
    22 Broy./SMGL  0.30E+00   22.3     0.00000075     -3690.6445631735 -9.38E-05
 SMEAGOL DEBUG| Number of electrons in the unit cell =      1222.9608476703
    23 Broy./SMGL  0.30E+00   22.4     0.00000223     -3690.6445793861 -1.62E-05
 SMEAGOL DEBUG| Number of electrons in the unit cell =      1222.9608447005
    24 Broy./SMGL  0.30E+00   22.3     0.00000092     -3690.6445658658  1.35E-05
 SMEAGOL DEBUG| Number of electrons in the unit cell =      1222.9608338254
    25 Broy./SMGL  0.30E+00   22.2     0.00000086     -3690.6445698028 -3.94E-06
 SMEAGOL DEBUG| Number of electrons in the unit cell =      1222.9608316357
    26 Broy./SMGL  0.30E+00   22.3     0.00000088     -3690.6445781226 -8.32E-06
 SMEAGOL DEBUG| Number of electrons in the unit cell =      1222.9608352803
    27 Broy./SMGL  0.30E+00   22.3     0.00000040     -3690.6445696256  8.50E-06
 SMEAGOL DEBUG| Number of electrons in the unit cell =      1222.9608352766
    28 Broy./SMGL  0.30E+00   22.3     0.00000032     -3690.6445789184 -9.29E-06
 SMEAGOL DEBUG| Number of electrons in the unit cell =      1222.9608311028
    29 Broy./SMGL  0.30E+00   22.3     0.00000017     -3690.6445828395 -3.92E-06
 SMEAGOL DEBUG| Number of electrons in the unit cell =      1222.9608307018
    30 Broy./SMGL  0.30E+00   22.3     0.00000010     -3690.6445796624  3.18E-06
 SMEAGOL DEBUG| Number of electrons in the unit cell =      1222.9608319113
    31 Broy./SMGL  0.30E+00   22.3     0.00000009     -3690.6445785740  1.09E-06
 SMEAGOL DEBUG| Number of electrons in the unit cell =      1222.9608346573
    32 Broy./SMGL  0.30E+00   22.3     0.00000004     -3690.6445768464  1.73E-06
 SMEAGOL DEBUG| Number of electrons in the unit cell =      1222.9608361283
    33 Broy./SMGL  0.30E+00   22.3     0.00000002     -3690.6445751124  1.73E-06
 SMEAGOL DEBUG| Number of electrons in the unit cell =      1222.9608362042
    34 Broy./SMGL  0.30E+00   22.3     0.00000003     -3690.6445756206 -5.08E-07
 SMEAGOL DEBUG| Number of electrons in the unit cell =      1222.9608362606
    35 Broy./SMGL  0.30E+00   22.3     0.00000005     -3690.6445757776 -1.57E-07
 SMEAGOL DEBUG| Number of electrons in the unit cell =      1222.9608365005
    36 Broy./SMGL  0.30E+00   22.3     0.00000007     -3690.6445757090  6.87E-08
 SMEAGOL DEBUG| Number of electrons in the unit cell =      1222.9608364825
    37 Broy./SMGL  0.30E+00   22.3     0.00000003     -3690.6445760275 -3.18E-07
 SMEAGOL DEBUG| Number of electrons in the unit cell =      1222.9608364948
    38 Broy./SMGL  0.30E+00   22.3     0.00000002     -3690.6445761311 -1.04E-07
 SMEAGOL DEBUG| Number of electrons in the unit cell =      1222.9608364340
    39 Broy./SMGL  0.30E+00   22.3     0.00000002     -3690.6445760952  3.59E-08
 SMEAGOL DEBUG| Number of electrons in the unit cell =      1222.9608363534
    40 Broy./SMGL  0.30E+00   22.3     1.2463E-09     -3690.6445761552 -6.00E-08

  *** SCF run converged in    40 steps ***


  Electronic density on regular grids:      -1222.9608363534        0.0391636466
  Core density on regular grids:             1222.9999997993       -0.0000002007
  Total charge density on r-space grids:        0.0391634459
  Total charge density g-space grids:           0.0391634459

  Overlap energy of the core charge distribution:               0.00000053410942
  Self energy of the core charge distribution:              -6424.54153828207382
  Core Hamiltonian energy:                                   2053.11379034256151
  Hartree energy:                                            1264.28421220306336
  Exchange-correlation energy:                               -583.50104095286724
  Electronic entropic energy:                                   0.00000000000000
  Fermi energy:                                                 0.00000000000000

  Total energy:                                             -3690.64457615520632

 The electron density is written in cube file format to the file:

 V-ELECTRON_DENSITY-1_0.cube

 !-----------------------------------------------------------------------------!
                     Mulliken Population Analysis

 #  Atom  Element  Kind  Atomic population                           Net charge
       1     Au       1         11.000100                             -0.000100
       2     Au       1         10.999268                              0.000732
       3     Au       1         10.986675                              0.013325
       4     Au       1         10.984856                              0.015144
       5     Au       1         11.000161                             -0.000161
       6     Au       1         10.999545                              0.000455
       7     Au       1         10.986654                              0.013346
       8     Au       1         10.978207                              0.021793
       9     Au       1         10.999917                              0.000083
      10     Au       1         10.999466                              0.000534
      11     Au       1         10.985274                              0.014726
      12     Au       1         10.985171                              0.014829
      13     Au       1         10.999858                              0.000142
      14     Au       1         10.999497                              0.000503
      15     Au       1         10.987365                              0.012635
      16     Au       1         10.978153                              0.021847
      17     Au       1         10.999919                              0.000081
      18     Au       1         10.999799                              0.000201
      19     Au       1         10.987408                              0.012592
      20     Au       1         10.975224                              0.024776
      21     Au       1         10.999675                              0.000325
      22     Au       1         10.999689                              0.000311
      23     Au       1         10.986235                              0.013765
      24     Au       1         10.978558                              0.021442
      25     Au       1         11.000143                             -0.000143
      26     Au       1         10.999585                              0.000415
      27     Au       1         10.987635                              0.012365
      28     Au       1         10.985320                              0.014680
      29     Au       1         11.000204                             -0.000204
      30     Au       1         10.999856                              0.000144
      31     Au       1         10.987694                              0.012306
      32     Au       1         10.978776                              0.021224
      33     Au       1         10.999960                              0.000040
      34     Au       1         10.999784                              0.000216
      35     Au       1         10.986439                              0.013561
      36     Au       1         10.985532                              0.014468
      37     Au       1         10.989036                              0.010964
      38     Au       1         10.949206                              0.050794
      39     Au       1         10.949438                              0.050562
      40     Au       1         10.989149                              0.010851
      41     Au       1         10.949176                              0.050824
      42     Au       1         10.949457                              0.050543
      43     Au       1         11.022464                             -0.022464
      44     Au       1         10.988578                              0.011422
      45     Au       1         10.988858                              0.011142
      46     Au       1         11.078229                             -0.078229
      47     Au       1         11.028159                             -0.028159
      48     Au       1         11.078009                             -0.078009
      49     Au       1         11.028230                             -0.028230
      50     Au       1         10.889867                              0.110133
      51     Au       1         11.028332                             -0.028332
      52     Au       1         11.077843                             -0.077843
      53     Au       1         11.027899                             -0.027899
      54     Au       1         11.077587                             -0.077587
      55     Au       1         11.008786                             -0.008786
      56     Au       1         11.004722                             -0.004722
      57     Au       1         11.004451                             -0.004451
      58     Au       1         11.001472                             -0.001472
      59     Au       1         11.130193                             -0.130193
      60     Au       1         11.084356                             -0.084356
      61     H        2          0.952016                              0.047984
      62     H        2          0.952630                              0.047370
      63     Au       1         11.078634                             -0.078634
      64     Au       1         11.149140                             -0.149140
      65     Au       1         11.011226                             -0.011226
      66     Au       1         11.013735                             -0.013735
      67     Au       1         11.013805                             -0.013805
      68     Au       1         11.017359                             -0.017359
      69     Au       1         11.028358                             -0.028358
      70     Au       1         10.986977                              0.013023
      71     Au       1         11.028948                             -0.028948
      72     Au       1         10.987169                              0.012831
      73     Au       1         10.864963                              0.135037
      74     Au       1         10.987468                              0.012532
      75     Au       1         11.028833                             -0.028833
      76     Au       1         10.987068                              0.012932
      77     Au       1         11.029219                             -0.029219
      78     Au       1         11.002181                             -0.002181
      79     Au       1         10.989531                              0.010469
      80     Au       1         10.999744                              0.000256
      81     Au       1         10.999683                              0.000317
      82     Au       1         11.002800                             -0.002800
      83     Au       1         10.988440                              0.011560
      84     Au       1         10.999813                              0.000187
      85     Au       1         10.999930                              0.000070
      86     Au       1         11.026963                             -0.026963
      87     Au       1         10.989491                              0.010509
      88     Au       1         10.999509                              0.000491
      89     Au       1         10.999868                              0.000132
      90     Au       1         10.968607                              0.031393
      91     Au       1         10.988384                              0.011616
      92     Au       1         10.999529                              0.000471
      93     Au       1         10.999883                              0.000117
      94     Au       1         10.968650                              0.031350
      95     Au       1         10.991640                              0.008360
      96     Au       1         10.999593                              0.000407
      97     Au       1         11.000130                             -0.000130
      98     Au       1         11.001771                             -0.001771
      99     Au       1         10.988562                              0.011438
     100     Au       1         10.999318                              0.000682
     101     Au       1         11.000067                             -0.000067
     102     Au       1         10.968902                              0.031098
     103     Au       1         10.989622                              0.010378
     104     Au       1         10.999817                              0.000183
     105     Au       1         10.999987                              0.000013
     106     Au       1         10.968988                              0.031012
     107     Au       1         10.988736                              0.011264
     108     Au       1         10.999880                              0.000120
     109     Au       1         11.000233                             -0.000233
     110     Au       1         11.002596                             -0.002596
     111     Au       1         10.989556                              0.010444
     112     Au       1         10.999612                              0.000388
     113     Au       1         11.000170                             -0.000170
 # Total charge                           1222.960836                  0.039164

 !-----------------------------------------------------------------------------!

 !-----------------------------------------------------------------------------!
                           Hirshfeld Charges

  #Atom  Element  Kind  Ref Charge     Population                    Net charge
      1       Au     1      11.000         11.000                        -0.000
      2       Au     1      11.000         11.000                         0.000
      3       Au     1      11.000         10.998                         0.002
      4       Au     1      11.000         10.989                         0.011
      5       Au     1      11.000         11.000                        -0.000
      6       Au     1      11.000         11.000                         0.000
      7       Au     1      11.000         10.998                         0.002
      8       Au     1      11.000         10.991                         0.009
      9       Au     1      11.000         11.000                         0.000
     10       Au     1      11.000         11.000                         0.000
     11       Au     1      11.000         10.999                         0.001
     12       Au     1      11.000         10.989                         0.011
     13       Au     1      11.000         11.000                         0.000
     14       Au     1      11.000         11.000                         0.000
     15       Au     1      11.000         10.999                         0.001
     16       Au     1      11.000         10.991                         0.009
     17       Au     1      11.000         11.000                         0.000
     18       Au     1      11.000         11.000                        -0.000
     19       Au     1      11.000         10.999                         0.001
     20       Au     1      11.000         10.989                         0.011
     21       Au     1      11.000         11.000                         0.000
     22       Au     1      11.000         11.000                        -0.000
     23       Au     1      11.000         10.998                         0.002
     24       Au     1      11.000         10.991                         0.009
     25       Au     1      11.000         11.000                        -0.000
     26       Au     1      11.000         11.000                         0.000
     27       Au     1      11.000         10.999                         0.001
     28       Au     1      11.000         10.989                         0.011
     29       Au     1      11.000         11.000                        -0.000
     30       Au     1      11.000         11.000                        -0.000
     31       Au     1      11.000         10.999                         0.001
     32       Au     1      11.000         10.991                         0.009
     33       Au     1      11.000         11.000                         0.000
     34       Au     1      11.000         11.000                        -0.000
     35       Au     1      11.000         10.998                         0.002
     36       Au     1      11.000         10.988                         0.012
     37       Au     1      11.000         10.996                         0.004
     38       Au     1      11.000         10.997                         0.003
     39       Au     1      11.000         10.997                         0.003
     40       Au     1      11.000         10.996                         0.004
     41       Au     1      11.000         10.997                         0.003
     42       Au     1      11.000         10.997                         0.003
     43       Au     1      11.000         10.997                         0.003
     44       Au     1      11.000         10.996                         0.004
     45       Au     1      11.000         10.996                         0.004
     46       Au     1      11.000         11.031                        -0.031
     47       Au     1      11.000         11.011                        -0.011
     48       Au     1      11.000         11.030                        -0.030
     49       Au     1      11.000         11.011                        -0.011
     50       Au     1      11.000         10.971                         0.029
     51       Au     1      11.000         11.011                        -0.011
     52       Au     1      11.000         11.030                        -0.030
     53       Au     1      11.000         11.011                        -0.011
     54       Au     1      11.000         11.030                        -0.030
     55       Au     1      11.000         10.976                         0.024
     56       Au     1      11.000         10.974                         0.026
     57       Au     1      11.000         10.974                         0.026
     58       Au     1      11.000         10.973                         0.027
     59       Au     1      11.000         11.035                        -0.035
     60       Au     1      11.000         11.010                        -0.010
     61       H      2       1.000          1.038                        -0.038
     62       H      2       1.000          1.040                        -0.040
     63       Au     1      11.000         11.004                        -0.004
     64       Au     1      11.000         11.041                        -0.041
     65       Au     1      11.000         10.976                         0.024
     66       Au     1      11.000         10.977                         0.023
     67       Au     1      11.000         10.977                         0.023
     68       Au     1      11.000         10.979                         0.021
     69       Au     1      11.000         11.032                        -0.032
     70       Au     1      11.000         11.014                        -0.014
     71       Au     1      11.000         11.032                        -0.032
     72       Au     1      11.000         11.014                        -0.014
     73       Au     1      11.000         10.976                         0.024
     74       Au     1      11.000         11.013                        -0.013
     75       Au     1      11.000         11.032                        -0.032
     76       Au     1      11.000         11.013                        -0.013
     77       Au     1      11.000         11.032                        -0.032
     78       Au     1      11.000         10.980                         0.020
     79       Au     1      11.000         10.999                         0.001
     80       Au     1      11.000         11.000                        -0.000
     81       Au     1      11.000         11.000                         0.000
     82       Au     1      11.000         10.980                         0.020
     83       Au     1      11.000         10.998                         0.002
     84       Au     1      11.000         11.000                        -0.000
     85       Au     1      11.000         11.000                         0.000
     86       Au     1      11.000         10.984                         0.016
     87       Au     1      11.000         10.999                         0.001
     88       Au     1      11.000         11.000                         0.000
     89       Au     1      11.000         11.000                         0.000
     90       Au     1      11.000         10.983                         0.017
     91       Au     1      11.000         10.998                         0.002
     92       Au     1      11.000         11.000                         0.000
     93       Au     1      11.000         11.000                         0.000
     94       Au     1      11.000         10.983                         0.017
     95       Au     1      11.000         10.998                         0.002
     96       Au     1      11.000         11.000                         0.000
     97       Au     1      11.000         11.000                        -0.000
     98       Au     1      11.000         10.980                         0.020
     99       Au     1      11.000         10.998                         0.002
    100       Au     1      11.000         11.000                         0.000
    101       Au     1      11.000         11.000                        -0.000
    102       Au     1      11.000         10.983                         0.017
    103       Au     1      11.000         10.999                         0.001
    104       Au     1      11.000         11.000                        -0.000
    105       Au     1      11.000         11.000                         0.000
    106       Au     1      11.000         10.984                         0.016
    107       Au     1      11.000         10.998                         0.002
    108       Au     1      11.000         11.000                        -0.000
    109       Au     1      11.000         11.000                        -0.000
    110       Au     1      11.000         10.980                         0.020
    111       Au     1      11.000         10.999                         0.001
    112       Au     1      11.000         11.000                         0.000
    113       Au     1      11.000         11.000                        -0.000

  Total Charge                                                            0.039
 !-----------------------------------------------------------------------------!
 Calculating transmission coefficient
 SMEAGOL DEBUG| Number of electrons in the unit cell =      1222.9608363061

 ENERGY| Total FORCE_EVAL ( QS ) energy [a.u.]:            -3690.644576247010264

 ATOMIC FORCES in [a.u.]

 # Atom   Kind   Element          X              Y              Z
      1      1      Au          0.00000000     0.00000000     0.00000000
      2      1      Au          0.00000000     0.00000000     0.00000000
      3      1      Au          0.00000000     0.00000000     0.00000000
      4      1      Au          0.00000000     0.00000000     0.00000000
      5      1      Au          0.00000000     0.00000000     0.00000000
      6      1      Au          0.00000000     0.00000000     0.00000000
      7      1      Au          0.00000000     0.00000000     0.00000000
      8      1      Au          0.00000000     0.00000000     0.00000000
      9      1      Au          0.00000000     0.00000000     0.00000000
     10      1      Au          0.00000000     0.00000000     0.00000000
     11      1      Au          0.00000000     0.00000000     0.00000000
     12      1      Au          0.00000000     0.00000000     0.00000000
     13      1      Au          0.00000000     0.00000000     0.00000000
     14      1      Au          0.00000000     0.00000000     0.00000000
     15      1      Au          0.00000000     0.00000000     0.00000000
     16      1      Au          0.00000000     0.00000000     0.00000000
     17      1      Au          0.00000000     0.00000000     0.00000000
     18      1      Au          0.00000000     0.00000000     0.00000000
     19      1      Au          0.00000000     0.00000000     0.00000000
     20      1      Au          0.00000000     0.00000000     0.00000000
     21      1      Au          0.00000000     0.00000000     0.00000000
     22      1      Au          0.00000000     0.00000000     0.00000000
     23      1      Au          0.00000000     0.00000000     0.00000000
     24      1      Au          0.00000000     0.00000000     0.00000000
     25      1      Au          0.00000000     0.00000000     0.00000000
     26      1      Au          0.00000000     0.00000000     0.00000000
     27      1      Au          0.00000000     0.00000000     0.00000000
     28      1      Au          0.00000000     0.00000000     0.00000000
     29      1      Au          0.00000000     0.00000000     0.00000000
     30      1      Au          0.00000000     0.00000000     0.00000000
     31      1      Au          0.00000000     0.00000000     0.00000000
     32      1      Au          0.00000000     0.00000000     0.00000000
     33      1      Au          0.00000000     0.00000000     0.00000000
     34      1      Au          0.00000000     0.00000000     0.00000000
     35      1      Au          0.00000000     0.00000000     0.00000000
     36      1      Au          0.00000000     0.00000000     0.00000000
     37      1      Au          0.00000000     0.00000000     0.00000000
     38      1      Au          0.00000000     0.00000000     0.00000000
     39      1      Au          0.00000000     0.00000000     0.00000000
     40      1      Au          0.00000000     0.00000000     0.00000000
     41      1      Au          0.00000000     0.00000000     0.00000000
     42      1      Au          0.00000000     0.00000000     0.00000000
     43      1      Au          0.00000000     0.00000000     0.00000000
     44      1      Au          0.00000000     0.00000000     0.00000000
     45      1      Au          0.00000000     0.00000000     0.00000000
     46      1      Au          0.00000000     0.00000000     0.00000000
     47      1      Au          0.00000000     0.00000000     0.00000000
     48      1      Au          0.00000000     0.00000000     0.00000000
     49      1      Au          0.00000000     0.00000000     0.00000000
     50      1      Au          0.00000000     0.00000000     0.00000000
     51      1      Au          0.00000000     0.00000000     0.00000000
     52      1      Au          0.00000000     0.00000000     0.00000000
     53      1      Au          0.00000000     0.00000000     0.00000000
     54      1      Au          0.00000000     0.00000000     0.00000000
     55      1      Au          0.00000000     0.00000000     0.00000000
     56      1      Au          0.00000000     0.00000000     0.00000000
     57      1      Au          0.00000000     0.00000000     0.00000000
     58      1      Au          0.00000000     0.00000000     0.00000000
     59      1      Au          0.00006533     0.00006330     0.00073927
     60      1      Au          0.00008288     0.00008220    -0.00095313
     61      2      H          -0.00006382    -0.00006227     0.00103920
     62      2      H          -0.00008205    -0.00007994    -0.00107277
     63      1      Au          0.00020523     0.00019818     0.00108762
     64      1      Au         -0.00026686    -0.00025368    -0.00112275
     65      1      Au          0.00000000     0.00000000     0.00000000
     66      1      Au          0.00000000     0.00000000     0.00000000
     67      1      Au          0.00000000     0.00000000     0.00000000
     68      1      Au          0.00000000     0.00000000     0.00000000
     69      1      Au          0.00000000     0.00000000     0.00000000
     70      1      Au          0.00000000     0.00000000     0.00000000
     71      1      Au          0.00000000     0.00000000     0.00000000
     72      1      Au          0.00000000     0.00000000     0.00000000
     73      1      Au          0.00000000     0.00000000     0.00000000
     74      1      Au          0.00000000     0.00000000     0.00000000
     75      1      Au          0.00000000     0.00000000     0.00000000
     76      1      Au          0.00000000     0.00000000     0.00000000
     77      1      Au          0.00000000     0.00000000     0.00000000
     78      1      Au          0.00000000     0.00000000     0.00000000
     79      1      Au          0.00000000     0.00000000     0.00000000
[...]
     21       Au     1      11.000         11.000                         0.000
     22       Au     1      11.000         11.000                        -0.000
     23       Au     1      11.000         10.998                         0.002
     24       Au     1      11.000         10.991                         0.009
     25       Au     1      11.000         11.000                        -0.000
     26       Au     1      11.000         11.000                         0.000
     27       Au     1      11.000         10.999                         0.001
     28       Au     1      11.000         10.989                         0.011
     29       Au     1      11.000         11.000                        -0.000
     30       Au     1      11.000         11.000                        -0.000
     31       Au     1      11.000         10.999                         0.001
     32       Au     1      11.000         10.991                         0.009
     33       Au     1      11.000         11.000                         0.000
     34       Au     1      11.000         11.000                        -0.000
     35       Au     1      11.000         10.998                         0.002
     36       Au     1      11.000         10.988                         0.012
     37       Au     1      11.000         10.996                         0.004
     38       Au     1      11.000         10.997                         0.003
     39       Au     1      11.000         10.997                         0.003
     40       Au     1      11.000         10.996                         0.004
     41       Au     1      11.000         10.997                         0.003
     42       Au     1      11.000         10.997                         0.003
     43       Au     1      11.000         10.997                         0.003
     44       Au     1      11.000         10.996                         0.004
     45       Au     1      11.000         10.996                         0.004
     46       Au     1      11.000         11.031                        -0.031
     47       Au     1      11.000         11.011                        -0.011
     48       Au     1      11.000         11.030                        -0.030
     49       Au     1      11.000         11.011                        -0.011
     50       Au     1      11.000         10.971                         0.029
     51       Au     1      11.000         11.011                        -0.011
     52       Au     1      11.000         11.030                        -0.030
     53       Au     1      11.000         11.011                        -0.011
     54       Au     1      11.000         11.030                        -0.030
     55       Au     1      11.000         10.977                         0.023
     56       Au     1      11.000         10.974                         0.026
     57       Au     1      11.000         10.974                         0.026
     58       Au     1      11.000         10.973                         0.027
     59       Au     1      11.000         11.034                        -0.034
     60       Au     1      11.000         11.008                        -0.008
     61       H      2       1.000          1.037                        -0.037
     62       H      2       1.000          1.041                        -0.041
     63       Au     1      11.000         11.007                        -0.007
     64       Au     1      11.000         11.042                        -0.042
     65       Au     1      11.000         10.976                         0.024
     66       Au     1      11.000         10.977                         0.023
     67       Au     1      11.000         10.977                         0.023
     68       Au     1      11.000         10.978                         0.022
     69       Au     1      11.000         11.032                        -0.032
     70       Au     1      11.000         11.014                        -0.014
     71       Au     1      11.000         11.032                        -0.032
     72       Au     1      11.000         11.013                        -0.013
     73       Au     1      11.000         10.976                         0.024
     74       Au     1      11.000         11.013                        -0.013
     75       Au     1      11.000         11.032                        -0.032
     76       Au     1      11.000         11.013                        -0.013
     77       Au     1      11.000         11.032                        -0.032
     78       Au     1      11.000         10.980                         0.020
     79       Au     1      11.000         10.999                         0.001
     80       Au     1      11.000         11.000                        -0.000
     81       Au     1      11.000         11.000                         0.000
     82       Au     1      11.000         10.980                         0.020
     83       Au     1      11.000         10.998                         0.002
     84       Au     1      11.000         11.000                        -0.000
     85       Au     1      11.000         11.000                         0.000
     86       Au     1      11.000         10.984                         0.016
     87       Au     1      11.000         10.999                         0.001
     88       Au     1      11.000         11.000                         0.000
     89       Au     1      11.000         11.000                         0.000
     90       Au     1      11.000         10.983                         0.017
     91       Au     1      11.000         10.998                         0.002
     92       Au     1      11.000         11.000                         0.000
     93       Au     1      11.000         11.000                         0.000
     94       Au     1      11.000         10.983                         0.017
     95       Au     1      11.000         10.998                         0.002
     96       Au     1      11.000         11.000                         0.000
     97       Au     1      11.000         11.000                        -0.000
     98       Au     1      11.000         10.980                         0.020
     99       Au     1      11.000         10.998                         0.002
    100       Au     1      11.000         11.000                         0.000
    101       Au     1      11.000         11.000                        -0.000
    102       Au     1      11.000         10.983                         0.017
    103       Au     1      11.000         10.999                         0.001
    104       Au     1      11.000         11.000                        -0.000
    105       Au     1      11.000         11.000                         0.000
    106       Au     1      11.000         10.983                         0.017
    107       Au     1      11.000         10.998                         0.002
    108       Au     1      11.000         11.000                        -0.000
    109       Au     1      11.000         11.000                        -0.000
    110       Au     1      11.000         10.980                         0.020
    111       Au     1      11.000         10.999                         0.001
    112       Au     1      11.000         11.000                         0.000
    113       Au     1      11.000         11.000                        -0.000

  Total Charge                                                            0.039
 !-----------------------------------------------------------------------------!
 Calculating transmission coefficient

 ENERGY| Total FORCE_EVAL ( QS ) energy [a.u.]:            -3690.644581756702337

 -------------------------------------------------------------------------------
 -                                                                             -
 -                                DBCSR STATISTICS                             -
 -                                                                             -
 -------------------------------------------------------------------------------
 COUNTER                                    TOTAL       BLAS       SMM       ACC
 flops inhomo. stacks                           0       0.0%      0.0%      0.0%
 flops total                         0.000000E+00       0.0%      0.0%      0.0%
 flops max/rank                      0.000000E+00       0.0%      0.0%      0.0%
 matmuls inhomo. stacks                         0       0.0%      0.0%      0.0%
 matmuls total                                  0       0.0%      0.0%      0.0%
 number of processed stacks                     0       0.0%      0.0%      0.0%
 average stack size                                     0.0       0.0       0.0
 marketing flops                     0.000000E+00
 -------------------------------------------------------------------------------
 -                                                                             -
 -                      DBCSR MESSAGE PASSING PERFORMANCE                      -
 -                                                                             -
 -------------------------------------------------------------------------------
 ROUTINE             CALLS      AVE VOLUME [Bytes]
 MP_Bcast                1                     12.
 MP_Allreduce        74569                      8.
 MP_Alltoall         29295                  51543.
 -------------------------------------------------------------------------------

 -------------------------------------------------------------------------------
 -                                                                             -
 -                                DBM STATISTICS                               -
 -                                                                             -
 -------------------------------------------------------------------------------
    M  x    N  x    K                                          COUNT     PERCENT
 -------------------------------------------------------------------------------

 -------------------------------------------------------------------------------
 -                                                                             -
 -                                GRID STATISTICS                              -
 -                                                                             -
 -------------------------------------------------------------------------------
 LP    KERNEL             BACKEND                              COUNT     PERCENT
 4     collocate ortho    REF                               98149692      48.78%
 4     integrate ortho    REF                               95679051      47.55%
 5     integrate ortho    REF                                2393894       1.19%
 0     collocate general  REF                                1757376       0.87%
 0     integrate general  REF                                1562112       0.78%
 3     collocate ortho    REF                                 628648       0.31%
 3     integrate ortho    REF                                 615612       0.31%
 1     integrate general  REF                                 188032       0.09%
 2     collocate ortho    REF                                 118326       0.06%
 2     integrate ortho    REF                                 115329       0.06%
 -------------------------------------------------------------------------------

 MEMORY| Estimated peak process memory [MiB]                                 671

 -------------------------------------------------------------------------------
 ----                             MULTIGRID INFO                            ----
 -------------------------------------------------------------------------------
 count for grid        1:         131061          cutoff [a.u.]          300.00
 count for grid        2:         789891          cutoff [a.u.]          100.00
 count for grid        3:         674796          cutoff [a.u.]           33.33
 count for grid        4:        1147219          cutoff [a.u.]           11.11
 total gridlevel count  :        2742967

 -------------------------------------------------------------------------------
 -                                                                             -
 -                         MESSAGE PASSING PERFORMANCE                         -
 -                                                                             -
 -------------------------------------------------------------------------------

 ROUTINE             CALLS      AVE VOLUME [Bytes]
 MP_Group                5
 MP_Bcast           101871                  85073.
 MP_Allreduce        52829                    270.
 MP_Sync                56
 MP_Alltoall         25948                5133860.
 MP_ISendRecv       268506                  34688.
 MP_Wait            615483
 MP_comm_split          26
 MP_ISend           422919                  73390.
 MP_IRecv           423291                  73323.
 MP_Recv             58840                 257575.
 MP_Write_All           54                  62568.
 -------------------------------------------------------------------------------


 -------------------------------------------------------------------------------
 -                                                                             -
 -                           R E F E R E N C E S                               -
 -                                                                             -
 -------------------------------------------------------------------------------
 
 CP2K version 2022.1 (Development Version), the CP2K developers group (2022).
 CP2K is freely available from https://www.cp2k.org/ .

 Kuehne,Thomas D.; Iannuzzi,Marcella; Del Ben,Mauro;
 Rybkin,Vladimir V.; Seewald,Patrick; Stein,Frederick; Laino,Teodoro;
 Khaliullin,Rustam Z.; Schuett,Ole; Schiffmann,Florian; Golze,Dorothea;
 Wilhelm,Jan; Chulkov,Sergey; Bani-Hashemian,Mohammad Hossein;
 Weber,Valery; Borstnik,Urban; Taillefumier,Mathieu;
 Jakobovits,Alice Shoshana; Lazzaro,Alfio; Pabst,Hans; Mueller,Tiziano;
 Schade,Robert; Guidon,Manuel; Andermatt,Samuel; Holmberg,Nico;
 Schenter,Gregory K.; Hehn,Anna; Bussy,Augustin; Belleflamme,Fabian;
 Tabacchi,Gloria; Gloess,Andreas; Lass,Michael; Bethune,Iain;
 Mundy,Christopher J.; Plessl,Christian; Watkins,Matt;
 VandeVondele,Joost; Krack,Matthias; Hutter,Juerg. 
 The Journal of Chemical Physics, 152 (19), (2020). 
 CP2K: An electronic structure and molecular dynamics software package -
 Quickstep: Efficient and accurate electronic structure calculations.
 https://doi.org/10.1063/5.0007045

 Schuett, Ole; Messmer, Peter; Hutter, Juerg; VandeVondele, Joost. 
 Electronic Structure Calculations on Graphics Processing Units, John
 Wiley & Sons, Ltd, 173-190 (2016). 
 GPU-Accelerated Sparse Matrix-Matrix Multiplication for
 Linear Scaling Density Functional Theory.
 https://doi.org/10.1002/9781118670712.ch8

 Borstnik, U; VandeVondele, J; Weber, V; Hutter, J. 
 PARALLEL COMPUTING, 40 (5-6), 47-58 (2014). 
 Sparse matrix multiplication: The distributed block-compressed sparse
 row library.
 https://doi.org/10.1016/j.parco.2014.03.012

 Hutter, J; Iannuzzi, M; Schiffmann, F; VandeVondele, J. 
 WIREs Comput Mol Sci., 4 (1), 15-25 (2014). 
 CP2K: atomistic simulations of condensed matter systems.
 https://doi.org/10.1002/wcms.1159

 Marek, A; Blum, V; Johanni, R; Havu, V; Lang, B; Auckenthaler, T;
 Heinecke, A; Bungartz, H; Lederer, H. 
 Journal of Physics: Condensed Matter, 26 (21), (2014). 
 The ELPA library: scalable parallel eigenvalue solutions for
 electronic structure
 theory and computational science.
 https://doi.org/10.1088/0953-8984/26/21/213201

 VandeVondele, J; Hutter, J. 
 JOURNAL OF CHEMICAL PHYSICS, 127 (11), 114105 (2007). 
 Gaussian basis sets for accurate calculations on molecular systems in
 gas and condensed phases.
 https://doi.org/10.1063/1.2770708

 Krack, M. 
 THEORETICAL CHEMISTRY ACCOUNTS, 114 (1-3), 145-152 (2005). 
 Pseudopotentials for H to Kr optimized for gradient-corrected
 exchange-correlation functionals.
 https://doi.org/10.1007/s00214-005-0655-y

 VandeVondele, J; Krack, M; Mohamed, F; Parrinello, M; Chassaing, T;
 Hutter, J. COMPUTER PHYSICS COMMUNICATIONS, 167 (2), 103-128 (2005). 
 QUICKSTEP: Fast and accurate density functional calculations using a
 mixed Gaussian and plane waves approach.
 https://doi.org/10.1016/j.cpc.2004.12.014

 Frigo, M; Johnson, SG. 
 PROCEEDINGS OF THE IEEE, 93 (2), 216-231 (2005). 
 The design and implementation of FFTW3.
 https://doi.org/10.1109/JPROC.2004.840301

 Hartwigsen, C; Goedecker, S; Hutter, J. 
 PHYSICAL REVIEW B, 58 (7), 3641-3662 (1998). 
 Relativistic separable dual-space Gaussian pseudopotentials from H to Rn.
 https://doi.org/10.1103/PhysRevB.58.3641

 Lippert, G; Hutter, J; Parrinello, M. 
 MOLECULAR PHYSICS, 92 (3), 477-487 (1997). 
 A hybrid Gaussian and plane wave density functional scheme.
 https://doi.org/10.1080/002689797170220

 Perdew, JP; Burke, K; Ernzerhof, M. 
 PHYSICAL REVIEW LETTERS, 77 (18), 3865-3868 (1996). 
 Generalized gradient approximation made simple.
 https://doi.org/10.1103/PhysRevLett.77.3865

 Goedecker, S; Teter, M; Hutter, J. 
 PHYSICAL REVIEW B, 54 (3), 1703-1710 (1996). 
 Separable dual-space Gaussian pseudopotentials.
 https://doi.org/10.1103/PhysRevB.54.1703


 -------------------------------------------------------------------------------
 -                                                                             -
 -                                T I M I N G                                  -
 -                                                                             -
 -------------------------------------------------------------------------------
 SUBROUTINE                       CALLS  ASD         SELF TIME        TOTAL TIME
                                MAXIMUM       AVERAGE  MAXIMUM  AVERAGE  MAXIMUM
 CP2K                                 1  1.0     0.58     0.61 24627.59 24627.59
 cp_geo_opt                           1  2.0     0.04     0.04 24626.65 24626.65
 geoopt_bfgs                          1  3.0     1.45     1.47 24626.62 24626.62
 cp_eval_at                          27  4.0     1.21     1.23 24606.88 24606.93
 qs_energies                         27  6.0     2.56     2.64 24565.08 24565.62
 qs_forces                           26  5.0     0.88     0.95 23722.54 23722.55
 run_smeagol_emtrans               1066  9.9 23336.97 23383.24 23434.96 23435.68
 scf_env_do_scf                      27  7.0     0.18     0.68 23257.68 23257.90
 scf_env_do_scf_inner_loop         1039  8.0     2.07     2.43 23257.38 23257.63
 qs_scf_new_mos_kp                 1039  9.0     0.57     0.57 22190.18 22190.33
 rebuild_ks_matrix                 1065  9.9     0.09     0.09   650.11   650.14
 qs_ks_build_kohn_sham_matrix      1065 10.9     3.36    12.20   650.02   650.05
 qs_ks_update_qs_env               1039  9.0     0.02     0.02   634.84   634.88
 -------------------------------------------------------------------------------

 The number of warnings for this run is : 1
 
 -------------------------------------------------------------------------------
  **** **** ******  **  PROGRAM ENDED AT                 2023-09-12 16:16:54.636
 ***** ** ***  *** **   PROGRAM RAN ON                                 nid001341
 **    ****   ******    PROGRAM RAN BY                                    cahart
 ***** **    ** ** **   PROGRAM PROCESS ID                                183111
  **** **  *******  **  PROGRAM STOPPED IN /mnt/lustre/a2fs-work2/work/e05/e05/c
                                           ahart/postdoc/transport/AuH2/cp2k-sme
                                           agol/archer_pbe/geo_opt/NEnergReal-64
                                           _kpoints-3-3-20_omp-1_ParallelOverKNu
                                           m-1/0.1
