SIESTA 1.3.7  -- [1.3f1 release] (04 Feb 2004)
Architecture  : mpif90
Compiler flags:  -O3 -check bounds -fp-model strict
PARALLEL version

* Running on   64 nodes in parallel
>> Start of run:   7-NOV-2023   0:17:01

                           ***********************       
                           *  WELCOME TO SIESTA  *       
                           ***********************       

reinit: Reading from standard input
************************** Dump of input data file ****************************
SystemName                   0.7V          # Descriptive name of the system
SystemLabel                     0.7V               # Short name for naming files
NumberOfAtoms    113
NumberOfSpecies                 2               # Number of species
%block ChemicalSpeciesLabel
 1   79   Au
 2    1   H
%endblock ChemicalSpeciesLabel
# ps
%block Ps.lmax
  Au    3
  H     3
%endblock Ps.lmax
# Basis
PAO.BasisType                split         # Type of basis ('nones', 'nonodes', 'split')
PAO.SplitNorm  0.15
PAO.EnergyShift              10 meV
PAO.BasisSize                DZP
%block PAO.Basis                           # basis
Au 2
n=6   0   2 P   1                   # n, l, Nzeta, Polarization, NzetaPol
6.0 0.0
n=5   2   1                         # n, l, Nzeta
5.5
H     2      0.00
 n=1    0    2   E      2.07      0.50
   5.75  1.5
   1.000   1.000
 n=2    1    1   E      0.89      0.01
   5.500
   1.000
%endblock PAO.Basis
# lattice vectors
LatticeConstant              1.0 Ang
%block LatticeVectors
         8.86712000        0.00000000        0.00000000
         0.00000        8.86712000        0.00000000
         0.00000000        0.00000000       38.72
%endblock LatticeVectors
AtomicCoordinatesFormat Ang
%block AtomicCoordinatesAndAtomicSpecies
    1.78720903    1.28067091    0.00000000   1  Au         1
    0.30935586    2.75852409    2.09000000   1  Au         2
    1.78720903    1.28067091    4.18000000   1  Au         3
    0.30935586    2.75852409    6.27000000   1  Au         4
    4.74291537    1.28067091    0.00000000   1  Au         5
    3.26506220    2.75852409    2.09000000   1  Au         6
    4.74291537    1.28067091    4.18000000   1  Au         7
    3.26506220    2.75852409    6.27000000   1  Au         8
    7.69862172    1.28067091    0.00000000   1  Au         9
    6.22076855    2.75852409    2.09000000   1  Au        10
    7.69862172    1.28067091    4.18000000   1  Au        11
    6.22076855    2.75852409    6.27000000   1  Au        12
    1.78720903    4.23637726    0.00000000   1  Au        13
    0.30935586    5.71423043    2.09000000   1  Au        14
    1.78720903    4.23637726    4.18000000   1  Au        15
    0.30935586    5.71423043    6.27000000   1  Au        16
    4.74291537    4.23637726    0.00000000   1  Au        17
    3.26506220    5.71423043    2.09000000   1  Au        18
    4.74291537    4.23637726    4.18000000   1  Au        19
    3.26506220    5.71423043    6.27000000   1  Au        20
    7.69862172    4.23637726    0.00000000   1  Au        21
    6.22076855    5.71423043    2.09000000   1  Au        22
    7.69862172    4.23637726    4.18000000   1  Au        23
    6.22076855    5.71423043    6.27000000   1  Au        24
    1.78720903    7.19208360    0.00000000   1  Au        25
    0.30935586    8.66993678    2.09000000   1  Au        26
    1.78720903    7.19208360    4.18000000   1  Au        27
    0.30935586    8.66993678    6.27000000   1  Au        28
    4.74291537    7.19208360    0.00000000   1  Au        29
    3.26506220    8.66993678    2.09000000   1  Au        30
    4.74291537    7.19208360    4.18000000   1  Au        31
    3.26506220    8.66993678    6.27000000   1  Au        32
    7.69862172    7.19208360    0.00000000   1  Au        33
    6.22076855    8.66993678    2.09000000   1  Au        34
    7.69862172    7.19208360    4.18000000   1  Au        35
    6.22076855    8.66993678    6.27000000   1  Au        36
    1.78720903    1.28067091    8.36000000   1  Au        37
    1.78720903    4.23637726    8.36000000   1  Au        38
    1.78720903    7.19208360    8.36000000   1  Au        39
    4.74291537    1.28067091    8.36000000   1  Au        40
    4.74291537    4.23637726    8.36000000   1  Au        41
    4.74291537    7.19208360    8.36000000   1  Au        42
    7.69862172    1.28067091    8.36000000   1  Au        43
    7.69862172    4.23637726    8.36000000   1  Au        44
    7.69862172    7.19208360    8.36000000   1  Au        45
    0.30935586    2.75852409   10.45000000   1  Au        46
    0.30935586    5.71423043   10.45000000   1  Au        47
    0.30935586    8.66993678   10.45000000   1  Au        48
    3.26506220    2.75852409   10.45000000   1  Au        49
    3.26506220    5.71423043   10.45000000   1  Au        50
    3.26506220    8.66993678   10.45000000   1  Au        51
    6.22076855    2.75852409   10.45000000   1  Au        52
    6.22076855    5.71423043   10.45000000   1  Au        53
    6.22076855    8.66993678   10.45000000   1  Au        54
    1.76654230    4.21456129   12.44622226   1  Au        55
    1.76571726    7.21384751   12.44606367   1  Au        56
    4.76517827    4.21310838   12.44623947   1  Au        57
    4.76653556    7.21402638   12.44527002   1  Au        58
    3.26757000    5.71658975   14.39611266   1  Au        59
    3.26678460    5.74417782   17.05024600   1  Au        60
    3.25353201    5.72009504   18.92650888   2  H         61
    3.26037283    5.72625871   19.79615533   2  H         62
    3.23348415    5.71184569   21.67153259   1  Au        63
    3.26393973    5.71426053   24.32585498   1  Au        64
    1.76545874    4.21333306   26.27477034   1  Au        65
    1.76464334    7.21396574   26.27443287   1  Au        66
    4.76500612    4.21358582   26.27428138   1  Au        67
    4.76495772    7.21413074   26.27504918   1  Au        68
    0.30935586    2.75852409   28.27000000   1  Au        69
    0.30935586    5.71423043   28.27000000   1  Au        70
    0.30935586    8.66993678   28.27000000   1  Au        71
    3.26506220    2.75852409   28.27000000   1  Au        72
    3.26506220    5.71423043   28.27000000   1  Au        73
    3.26506220    8.66993678   28.27000000   1  Au        74
    6.22076855    2.75852409   28.27000000   1  Au        75
    6.22076855    5.71423043   28.27000000   1  Au        76
    6.22076855    8.66993678   28.27000000   1  Au        77
    1.78720903    1.28067091   30.36000000   1  Au        78
    0.30935586    2.75852409   32.45000000   1  Au        79
    1.78720903    1.28067091   34.54000000   1  Au        80
    0.30935586    2.75852409   36.63000000   1  Au        81
    4.74291537    1.28067091   30.36000000   1  Au        82
    3.26506220    2.75852409   32.45000000   1  Au        83
    4.74291537    1.28067091   34.54000000   1  Au        84
    3.26506220    2.75852409   36.63000000   1  Au        85
    7.69862172    1.28067091   30.36000000   1  Au        86
    6.22076855    2.75852409   32.45000000   1  Au        87
    7.69862172    1.28067091   34.54000000   1  Au        88
    6.22076855    2.75852409   36.63000000   1  Au        89
    1.78720903    4.23637726   30.36000000   1  Au        90
    0.30935586    5.71423043   32.45000000   1  Au        91
    1.78720903    4.23637726   34.54000000   1  Au        92
    0.30935586    5.71423043   36.63000000   1  Au        93
    4.74291537    4.23637726   30.36000000   1  Au        94
    3.26506220    5.71423043   32.45000000   1  Au        95
    4.74291537    4.23637726   34.54000000   1  Au        96
    3.26506220    5.71423043   36.63000000   1  Au        97
    7.69862172    4.23637726   30.36000000   1  Au        98
    6.22076855    5.71423043   32.45000000   1  Au        99
    7.69862172    4.23637726   34.54000000   1  Au       100
    6.22076855    5.71423043   36.63000000   1  Au       101
    1.78720903    7.19208360   30.36000000   1  Au       102
    0.30935586    8.66993678   32.45000000   1  Au       103
    1.78720903    7.19208360   34.54000000   1  Au       104
    0.30935586    8.66993678   36.63000000   1  Au       105
    4.74291537    7.19208360   30.36000000   1  Au       106
    3.26506220    8.66993678   32.45000000   1  Au       107
    4.74291537    7.19208360   34.54000000   1  Au       108
    3.26506220    8.66993678   36.63000000   1  Au       109
    7.69862172    7.19208360   30.36000000   1  Au       110
    6.22076855    8.66993678   32.45000000   1  Au       111
    7.69862172    7.19208360   34.54000000   1  Au       112
    6.22076855    8.66993678   36.63000000   1  Au       113
%endblock AtomicCoordinatesAndAtomicSpecies 	
%block kgrid_Monkhorst_Pack
  3   0   0     0.0
  0   3   0     0.0
  0   0   1     0.0
%endblock kgrid_Monkhorst_Pack
# constrains in relaxation
%block GeometryConstraints
   position   from  1 to  54
   position   from  -1 to  -45
%endblock GeometryConstraints
# real space mesh grid
MeshCutoff                   800.0 Ry
%block GridCellSampling
  0.5  0.5   0.0
  0.5  0.0   0.5
  0.0  0.5   0.5
%endblock GridCellSampling
#ProcessorY                   4
#BlockSize                    100
# functional
xc.functional                GGA           # 'LDA', 'GGA'
xc.authors                   PBE           # 'CA'='PZ', 'PW92', 'PBE'
# scf
MaxSCFIterations             300
DM.MixingWeight              0.02
DM.Tolerance                 1.0E-4
DM.UseSaveDM                 T
DM.NumberPulay               6             # Pulay convergency accelerator
SolutionMethod               diagon
ElectronicTemperature        300 K         # Default value
#Siesta Output Flags
SaveHS                       F           # Hamiltonian and overlap in sparse
SaveRHO                      T
WriteMullikenPop             1
WriteForces                  T
WriteCoorStep                T
SaveElectrostaticPotential   T             # Hartree Potential file
# MD options
MD.TypeOfRun                 cg            # Type of dynamics:
MD.VariableCell              false         # if vary cell
MD.NumCGsteps                300             # Number of CG steps for relaxation
MD.MaxCGDispl                0.08 Ang     # Maximum atomic displacement at one step
MD.MaxForceTol               0.01 eV/Ang   # Tolerance in the maximum force min(fx, fy, fz)
MD.MaxStressTol              0.1 Gpa
MD.FCDispl                 0.02 ang
MD.FCIR                    F
MD.FCEigenVectors          T
MD.FCfirst                 59
MD.FClast                  64
MD.FCRead                  F
MD.FCAtomRestart           46
MD.FCAxisRestart           1
#-----
#smeagol
#-----
# Perform a transport calculation
EMTransport              T
# Set number of energy points for integrals
NEnergReal               64
# Set bias range
VInitial             0.7 eV
VFinal               0.7 eV
NIVPoints                0
# General variables
Delta                    1e-4
EnergLowestBound    -100.0 eV
# Print transmission coefficient
TrCoefficients           T
InitTransmRange      -10.0 eV
FinalTransmRange      10.0 eV
NTransmPoints            800
TRC.EMDOS                T
TRC.LeadsDOS             T
# Matching of Hartree potential with the leads
HartreeLeadsBottom  -12.19948196 eV
%block SaveBiasSteps
 0
%endblock SaveBiasSteps
************************** End of input data file *****************************

reinit: -----------------------------------------------------------------------
reinit: System Name: 0.7V                                                       
reinit: -----------------------------------------------------------------------
reinit: System Label: 0.7V                
reinit: -----------------------------------------------------------------------

initatom: Reading input for the pseudopotentials and atomic orbitals ----------
 Species number:            1  Label: Au Atomic number:          79
 Species number:            2  Label: H Atomic number:           1
Ground state valence configuration:   6s01  5d10
Reading pseudopotential information in formatted form from Au.psf
Ground state valence configuration:   1s01
Reading pseudopotential information in formatted form from H.psf
relmxkb: Read Max KB Ang. Momentum=    3 for species Au
relmxkb: Read Max KB Ang. Momentum=    3 for species H
 Warning: Empty PAO shell. l =           1
 Will have a KB projector anyway...

<basis_specs>
===============================================================================
Au                   Z=  79    Mass=  196.97        Charge=  0.0000    
Lmxo=2 Lmxkb=3     BasisType=split      Semic=F
L=0  Nsemic=0  Cnfigmx=6
          n=1  nzeta=2  polorb=1
               vcte:    0.0000    
               rinn:    0.0000    
                rcs:    6.0000      0.0000    
            lambdas:    1.0000      1.0000    
L=1  Nsemic=0  Cnfigmx=6
L=2  Nsemic=0  Cnfigmx=5
          n=1  nzeta=1  polorb=0
               vcte:    0.0000    
               rinn:    0.0000    
                rcs:    5.5000    
            lambdas:    1.0000    
-------------------------------------------------------------------------------
L=0  Nkbl=1  erefs: 0.17977+309
L=1  Nkbl=1  erefs: 0.17977+309
L=2  Nkbl=1  erefs: 0.17977+309
L=3  Nkbl=1  erefs: 0.17977+309
===============================================================================
</basis_specs>

atom: Called for Au  (Z =  79)

read_vps: Pseudopotential generation method:
read_vps: ATM 3.2.2 Troullier-Martins                       

read_vps: Pseudopotential generated from a relativistic atomic calculation
read_vps: There are spin-orbit pseudopotentials available

read_vps: Valence configuration (pseudopotential and basis set generation):
6s( 1.00) rc: 2.57
6p( 0.00) rc: 2.70
5d(10.00) rc: 2.57
5f( 0.00) rc: 2.57
Total valence charge:   11.00000

xc_check: Exchange-correlation functional:
xc_check: GGA Perdew, Burke & Ernzerhof 1996
V l=0 = -2*Zval/r beyond r=  2.8378
V l=1 = -2*Zval/r beyond r=  2.8026
V l=2 = -2*Zval/r beyond r=  2.8378
V l=3 = -2*Zval/r beyond r=  2.8378
All V_l potentials equal beyond r=  2.6659
This should be close to max(r_c) in ps generation
All pots = -2*Zval/r beyond r=  2.8378

VLOCAL1: 99.0% of the norm of Vloc inside      6.108 Ry
VLOCAL1: 99.9% of the norm of Vloc inside     13.920 Ry
atom: Maximum radius for 4*pi*r*r*local-pseudopot. charge    3.21569
atom: Maximum radius for r*vlocal+2*Zval:    2.83783
GHOST: No ghost state for L =  0
GHOST: No ghost state for L =  1
GHOST: No ghost state for L =  2
GHOST: No ghost state for L =  3

KBgen: Kleinman-Bylander projectors: 
   l= 0   rc=  3.338571   el= -0.421346   Ekb=  4.108132   kbcos=  0.281999
   l= 1   rc=  3.509744   el= -0.057987   Ekb=  2.158847   kbcos=  0.223567
   l= 2   rc=  2.909675   el= -0.508781   Ekb= -5.041211   kbcos= -0.695264
   l= 3   rc=  3.878871   el=  0.003083   Ekb= -1.533214   kbcos= -0.016134

KBgen: Total number of  Kleinman-Bylander projectors:   16
atom: -------------------------------------------------------------------------

atom: SANKEY-TYPE ORBITALS:
atom: Selected multiple-zeta basis: split     

SPLIT: Orbitals with angular momentum L= 0

SPLIT: Basis orbitals for state 6s

   izeta = 1
                 lambda =    1.000000
                     rc =    6.083298
                 energy =   -0.401153
                kinetic =    0.393167
    potential(screened) =   -0.794320
       potential(ionic) =   -8.569036

   izeta = 2
                 rmatch =    5.714728
              splitnorm =    0.150000
                 energy =   -0.341190
                kinetic =    0.593789
    potential(screened) =   -0.934979
       potential(ionic) =   -9.135222

SPLIT: Orbitals with angular momentum L= 2

SPLIT: Basis orbitals for state 5d

   izeta = 1
                 lambda =    1.000000
                     rc =    5.504393
                 energy =   -0.506115
                kinetic =    4.701767
    potential(screened) =   -5.207882
       potential(ionic) =  -15.830994

POLgen: Perturbative polarization orbital with L=  1

POLgen: Polarization orbital for state 6s

   izeta = 1
                     rc =    6.083298
                 energy =   -0.044961
                kinetic =    0.720380
    potential(screened) =   -0.765342
       potential(ionic) =   -8.110664
atom: Total number of Sankey-type orbitals: 10

atm_pop: Valence configuration(local Pseudopot. screening):
 6s( 1.00)                                                            
 6p( 0.00)                                                            
 5d(10.00)                                                            
Vna: chval, zval:   11.00000  11.00000

Vna:  Cut-off radius for the neutral-atom potential:   6.083298

atom: _________________________________________________________________________

<basis_specs>
===============================================================================
H                    Z=   1    Mass=  1.0100        Charge=  0.0000    
Lmxo=1 Lmxkb=3     BasisType=split      Semic=F
L=0  Nsemic=0  Cnfigmx=1
          n=1  nzeta=2  polorb=0
               vcte:    2.0700    
               rinn:   0.50000    
                rcs:    5.7500      1.5000    
            lambdas:    1.0000      1.0000    
L=1  Nsemic=0  Cnfigmx=2
          n=1  nzeta=1  polorb=0
               vcte:   0.89000    
               rinn:   0.10000E-01
                rcs:    5.5000    
            lambdas:    1.0000    
-------------------------------------------------------------------------------
L=0  Nkbl=1  erefs: 0.17977+309
L=1  Nkbl=1  erefs: 0.17977+309
L=2  Nkbl=1  erefs: 0.17977+309
L=3  Nkbl=1  erefs: 0.17977+309
===============================================================================
</basis_specs>

atom: Called for H   (Z =   1)

read_vps: Pseudopotential generation method:
read_vps: ATM3      Troullier-Martins                       

read_vps: Valence configuration (pseudopotential and basis set generation):
1s( 1.00) rc: 1.89
2p( 0.00) rc: 1.80
3d( 0.00) rc: 1.49
4f( 0.00) rc: 1.49
read_vps: Spin-orbit interaction is not included in this calculation
Total valence charge:    1.00000

xc_check: Exchange-correlation functional:
xc_check: GGA Perdew, Burke & Ernzerhof 1996
V l=0 = -2*Zval/r beyond r=  1.8658
V l=1 = -2*Zval/r beyond r=  1.7970
V l=2 = -2*Zval/r beyond r=  1.8196
V l=3 = -2*Zval/r beyond r=  1.8196
All V_l potentials equal beyond r=  1.8658
This should be close to max(r_c) in ps generation
All pots = -2*Zval/r beyond r=  1.8658

VLOCAL1: 99.0% of the norm of Vloc inside     12.470 Ry
VLOCAL1: 99.9% of the norm of Vloc inside     28.418 Ry
atom: Maximum radius for 4*pi*r*r*local-pseudopot. charge    2.16811
atom: Maximum radius for r*vlocal+2*Zval:    1.84256
GHOST: No ghost state for L =  0
GHOST: No ghost state for L =  1
GHOST: No ghost state for L =  2
GHOST: No ghost state for L =  3

KBgen: Kleinman-Bylander projectors: 
   l= 0   rc=  2.011274   el= -0.477200   Ekb= -1.572097   kbcos= -0.493163
   l= 1   rc=  2.141150   el=  0.001076   Ekb= -0.356432   kbcos= -0.050277
   l= 2   rc=  2.195416   el=  0.002010   Ekb= -0.177656   kbcos= -0.007774
   l= 3   rc=  2.251056   el=  0.003122   Ekb= -0.068270   kbcos= -0.002268

KBgen: Total number of  Kleinman-Bylander projectors:   16
atom: -------------------------------------------------------------------------

atom: SANKEY-TYPE ORBITALS:
atom: Selected multiple-zeta basis: split     

SPLIT: Orbitals with angular momentum L= 0

SPLIT: Basis orbitals for state 1s

   izeta = 1
                 lambda =    1.000000
                     rc =    5.752124
                 energy =   -0.469599
                kinetic =    0.919264
    potential(screened) =   -1.388863
       potential(ionic) =   -1.911599

   izeta = 2
                 rmatch =    1.527112
              splitnorm =    0.807394
                 energy =    2.126033
                kinetic =    5.261681
    potential(screened) =   -3.135649
       potential(ionic) =   -3.696632

SPLIT: Orbitals with angular momentum L= 1

SPLIT: Basis orbitals for state 2p

   izeta = 1
                 lambda =    1.000000
                     rc =    5.471469
                 energy =    0.371359
                kinetic =    0.737398
    potential(screened) =   -0.366040
       potential(ionic) =   -0.791603
atom: Total number of Sankey-type orbitals:  5

atm_pop: Valence configuration(local Pseudopot. screening):
 1s( 1.00)                                                            
 2p( 0.00)                                                            
Vna: chval, zval:    1.00000   1.00000

Vna:  Cut-off radius for the neutral-atom potential:   5.752124

atom: _________________________________________________________________________

prinput: Basis input ----------------------------------------------------------

PAO.BasisType split     

%block ChemicalSpeciesLabel
    1   79 Au                      # Species index, atomic number, species label
    2    1 H                       # Species index, atomic number, species label
%endblock ChemicalSpeciesLabel

%block PAO.Basis                 # Define Basis set
Au          2                    # Species label, number of l-shells
 n=6   0   2 P   1                   # n, l, Nzeta, Polarization, NzetaPol
   6.083      5.715   
   1.000      1.000   
 n=5   2   1                         # n, l, Nzeta 
   5.504   
   1.000   
H           2                    # Species label, number of l-shells
 n=1   0   2                         # n, l, Nzeta 
   5.752      1.527   
   1.000      1.000   
 n=2   1   1                         # n, l, Nzeta 
   5.471   
   1.000   
%endblock PAO.Basis

prinput: ----------------------------------------------------------------------


siesta: ******************** Simulation parameters ****************************
siesta:
siesta: The following are some of the parameters of the simulation.
siesta: A complete list of the parameters used, including defect values,
siesta: can be found in file out.fdf
siesta:
coor:   Atomic-coordinates input format  =     Cartesian coordinates
coor:                                          (in Angstroms)
redata: Number of spin components        =     1
redata: SpinOrbit                        =     0
redata: Long output                      =     F
redata: Number of Atomic Species         =     2
redata: Charge density info will appear in .RHO file
redata: Write Mulliken Pop.              =     Atomic and Orbital charges
redata: Write Hamilton Pop.              =     NO
redata: Mesh Cutoff                      =   800.0000  Ry
redata: Net charge of the system         =     0.0000 |e|
redata: Max. number of SCF Iter          =   300
redata: One Pulay mixing every           =     6 iterations
redata: Mix DM in first SCF step ?       =     F
redata: Write Pulay info on disk?        =     F
redata: New DM Mixing Weight             =     0.0200
redata: No kicks to SCF
redata: DM Mixing Weight for Kicks       =     0.5000
redata: DM Tolerance for SCF             =     0.000100
redata: Use continuation files for DM    =     T
redata: Neglect nonoverlap interactions  =     F
redata: Method of Calculation            =     Diagonalization
redata: Divide and Conquer               =     F
redata: Electronic Temperature           =     0.0019  Ry
redata: Fix the spin of the system       =     F
redata: Dynamics option                  =     CG coord. optimization
redata: Variable cell                    =     F
redata: Use continuation files for CG    =     F
redata: Maximum number of CG moves       =   300
redata: Max atomic displ per move        =     0.1512  Bohr
redata: Force tolerance                  =     0.0004  Ry/Bohr
redata: ***********************************************************************

siesta: Atomic coordinates (Bohr) and species
siesta:      3.37734   2.42012   0.00000  1        1
siesta:      0.58460   5.21286   3.94953  1        2
siesta:      3.37734   2.42012   7.89906  1        3
siesta:      0.58460   5.21286  11.84859  1        4
siesta:      8.96281   2.42012   0.00000  1        5
siesta:      6.17008   5.21286   3.94953  1        6
siesta:      8.96281   2.42012   7.89906  1        7
siesta:      6.17008   5.21286  11.84859  1        8
siesta:     14.54829   2.42012   0.00000  1        9
siesta:     11.75555   5.21286   3.94953  1       10
siesta:     14.54829   2.42012   7.89906  1       11
siesta:     11.75555   5.21286  11.84859  1       12
siesta:      3.37734   8.00560   0.00000  1       13
siesta:      0.58460  10.79833   3.94953  1       14
siesta:      3.37734   8.00560   7.89906  1       15
siesta:      0.58460  10.79833  11.84859  1       16
siesta:      8.96281   8.00560   0.00000  1       17
siesta:      6.17008  10.79833   3.94953  1       18
siesta:      8.96281   8.00560   7.89906  1       19
siesta:      6.17008  10.79833  11.84859  1       20
siesta:     14.54829   8.00560   0.00000  1       21
siesta:     11.75555  10.79833   3.94953  1       22
siesta:     14.54829   8.00560   7.89906  1       23
siesta:     11.75555  10.79833  11.84859  1       24
siesta:      3.37734  13.59107   0.00000  1       25
siesta:      0.58460  16.38381   3.94953  1       26
siesta:      3.37734  13.59107   7.89906  1       27
siesta:      0.58460  16.38381  11.84859  1       28
siesta:      8.96281  13.59107   0.00000  1       29
siesta:      6.17008  16.38381   3.94953  1       30
siesta:      8.96281  13.59107   7.89906  1       31
siesta:      6.17008  16.38381  11.84859  1       32
siesta:     14.54829  13.59107   0.00000  1       33
siesta:     11.75555  16.38381   3.94953  1       34
siesta:     14.54829  13.59107   7.89906  1       35
siesta:     11.75555  16.38381  11.84859  1       36
siesta:      3.37734   2.42012  15.79812  1       37
siesta:      3.37734   8.00560  15.79812  1       38
siesta:      3.37734  13.59107  15.79812  1       39
siesta:      8.96281   2.42012  15.79812  1       40
siesta:      8.96281   8.00560  15.79812  1       41
siesta:      8.96281  13.59107  15.79812  1       42
siesta:     14.54829   2.42012  15.79812  1       43
siesta:     14.54829   8.00560  15.79812  1       44
siesta:     14.54829  13.59107  15.79812  1       45
siesta:      0.58460   5.21286  19.74765  1       46
siesta:      0.58460  10.79833  19.74765  1       47
siesta:      0.58460  16.38381  19.74765  1       48
siesta:      6.17008   5.21286  19.74765  1       49
siesta:      6.17008  10.79833  19.74765  1       50
siesta:      6.17008  16.38381  19.74765  1       51
siesta:     11.75555   5.21286  19.74765  1       52
siesta:     11.75555  10.79833  19.74765  1       53
siesta:     11.75555  16.38381  19.74765  1       54
siesta:      3.33828   7.96437  23.51996  1       55
siesta:      3.33672  13.63220  23.51966  1       56
siesta:      9.00489   7.96162  23.51999  1       57
siesta:      9.00745  13.63254  23.51816  1       58
siesta:      6.17481  10.80279  27.20472  1       59
siesta:      6.17333  10.85493  32.22031  1       60
siesta:      6.14829  10.80942  35.76593  2       61
siesta:      6.16121  10.82106  37.40933  2       62
siesta:      6.11040  10.79383  40.95328  1       63
siesta:      6.16795  10.79839  45.96922  1       64
siesta:      3.33623   7.96205  49.65214  1       65
siesta:      3.33469  13.63242  49.65150  1       66
siesta:      9.00456   7.96253  49.65122  1       67
siesta:      9.00447  13.63274  49.65267  1       68
siesta:      0.58460   5.21286  53.42258  1       69
siesta:      0.58460  10.79833  53.42258  1       70
siesta:      0.58460  16.38381  53.42258  1       71
siesta:      6.17008   5.21286  53.42258  1       72
siesta:      6.17008  10.79833  53.42258  1       73
siesta:      6.17008  16.38381  53.42258  1       74
siesta:     11.75555   5.21286  53.42258  1       75
siesta:     11.75555  10.79833  53.42258  1       76
siesta:     11.75555  16.38381  53.42258  1       77
siesta:      3.37734   2.42012  57.37211  1       78
siesta:      0.58460   5.21286  61.32164  1       79
siesta:      3.37734   2.42012  65.27117  1       80
siesta:      0.58460   5.21286  69.22070  1       81
siesta:      8.96281   2.42012  57.37211  1       82
siesta:      6.17008   5.21286  61.32164  1       83
siesta:      8.96281   2.42012  65.27117  1       84
siesta:      6.17008   5.21286  69.22070  1       85
siesta:     14.54829   2.42012  57.37211  1       86
siesta:     11.75555   5.21286  61.32164  1       87
siesta:     14.54829   2.42012  65.27117  1       88
siesta:     11.75555   5.21286  69.22070  1       89
siesta:      3.37734   8.00560  57.37211  1       90
siesta:      0.58460  10.79833  61.32164  1       91
siesta:      3.37734   8.00560  65.27117  1       92
siesta:      0.58460  10.79833  69.22070  1       93
siesta:      8.96281   8.00560  57.37211  1       94
siesta:      6.17008  10.79833  61.32164  1       95
siesta:      8.96281   8.00560  65.27117  1       96
siesta:      6.17008  10.79833  69.22070  1       97
siesta:     14.54829   8.00560  57.37211  1       98
siesta:     11.75555  10.79833  61.32164  1       99
siesta:     14.54829   8.00560  65.27117  1      100
siesta:     11.75555  10.79833  69.22070  1      101
siesta:      3.37734  13.59107  57.37211  1      102
siesta:      0.58460  16.38381  61.32164  1      103
siesta:      3.37734  13.59107  65.27117  1      104
siesta:      0.58460  16.38381  69.22070  1      105
siesta:      8.96281  13.59107  57.37211  1      106
siesta:      6.17008  16.38381  61.32164  1      107
siesta:      8.96281  13.59107  65.27117  1      108
siesta:      6.17008  16.38381  69.22070  1      109
siesta:     14.54829  13.59107  57.37211  1      110
siesta:     11.75555  16.38381  61.32164  1      111
siesta:     14.54829  13.59107  65.27117  1      112
siesta:     11.75555  16.38381  69.22070  1      113

initatomlists: Number of atoms, orbitals, and projectors:    113  1120  1808

siesta: System type = bulk      
 Nodes, Orbitals          64        1120
 blocksizedefault           8

* ProcessorY, Blocksize:    8   8


siesta: k-grid: Number of k-points =     6
siesta: k-grid: Cutoff             =    13.301 Ang
siesta: k-grid: Supercell and displacements
siesta: k-grid:    3   0   0      0.000
siesta: k-grid:    0   3   0      0.000
siesta: k-grid:    0   0   1      0.000
 Mixing Hamiltonian: Setting also DM.MixSCF1 to T
 Mixing Hamiltonian: Setting also DM.MixSCF1 to T
 Mixing Hamiltonian: Setting also DM.MixSCF1 to T
 Mixing Hamiltonian: Setting also DM.MixSCF1 to T
 Mixing Hamiltonian: Setting also DM.MixSCF1 to T
 Mixing Hamiltonian: Setting also DM.MixSCF1 to T
 Mixing Hamiltonian: Setting also DM.MixSCF1 to T
 Mixing Hamiltonian: Setting also DM.MixSCF1 to T
 Mixing Hamiltonian: Setting also DM.MixSCF1 to T
 Mixing Hamiltonian: Setting also DM.MixSCF1 to T
 Mixing Hamiltonian: Setting also DM.MixSCF1 to T
 Mixing Hamiltonian: Setting also DM.MixSCF1 to T
 Mixing Hamiltonian: Setting also DM.MixSCF1 to T
 Mixing Hamiltonian: Setting also DM.MixSCF1 to T
 Mixing Hamiltonian: Setting also DM.MixSCF1 to T
 Mixing Hamiltonian: Setting also DM.MixSCF1 to T
 Mixing Hamiltonian: Setting also DM.MixSCF1 to T
 Mixing Hamiltonian: Setting also DM.MixSCF1 to T
 Mixing Hamiltonian: Setting also DM.MixSCF1 to T
 Mixing Hamiltonian: Setting also DM.MixSCF1 to T
 Mixing Hamiltonian: Setting also DM.MixSCF1 to T
 Mixing Hamiltonian: Setting also DM.MixSCF1 to T
 Mixing Hamiltonian: Setting also DM.MixSCF1 to T
 Mixing Hamiltonian: Setting also DM.MixSCF1 to T
 Mixing Hamiltonian: Setting also DM.MixSCF1 to T
 Mixing Hamiltonian: Setting also DM.MixSCF1 to T
 Mixing Hamiltonian: Setting also DM.MixSCF1 to T
 Mixing Hamiltonian: Setting also DM.MixSCF1 to T
 Mixing Hamiltonian: Setting also DM.MixSCF1 to T
 Mixing Hamiltonian: Setting also DM.MixSCF1 to T
 Mixing Hamiltonian: Setting also DM.MixSCF1 to T
 Mixing Hamiltonian: Setting also DM.MixSCF1 to T
 Mixing Hamiltonian: Setting also DM.MixSCF1 to T
 Mixing Hamiltonian: Setting also DM.MixSCF1 to T
 Mixing Hamiltonian: Setting also DM.MixSCF1 to T
 Mixing Hamiltonian: Setting also DM.MixSCF1 to T
 Mixing Hamiltonian: Setting also DM.MixSCF1 to T
 Mixing Hamiltonian: Setting also DM.MixSCF1 to T
 Mixing Hamiltonian: Setting also DM.MixSCF1 to T
 Mixing Hamiltonian: Setting also DM.MixSCF1 to T
 Mixing Hamiltonian: Setting also DM.MixSCF1 to T
 Mixing Hamiltonian: Setting also DM.MixSCF1 to T
 Mixing Hamiltonian: Setting also DM.MixSCF1 to T
 Mixing Hamiltonian: Setting also DM.MixSCF1 to T
 Mixing Hamiltonian: Setting also DM.MixSCF1 to T
 Mixing Hamiltonian: Setting also DM.MixSCF1 to T
 Mixing Hamiltonian: Setting also DM.MixSCF1 to T
 Mixing Hamiltonian: Setting also DM.MixSCF1 to T
 Mixing Hamiltonian: Setting also DM.MixSCF1 to T
 Mixing Hamiltonian: Setting also DM.MixSCF1 to T
 Mixing Hamiltonian: Setting also DM.MixSCF1 to T
 Mixing Hamiltonian: Setting also DM.MixSCF1 to T
 Mixing Hamiltonian: Setting also DM.MixSCF1 to T
 Mixing Hamiltonian: Setting also DM.MixSCF1 to T
 Mixing Hamiltonian: Setting also DM.MixSCF1 to T
 Mixing Hamiltonian: Setting also DM.MixSCF1 to T
 Mixing Hamiltonian: Setting also DM.MixSCF1 to T
 Mixing Hamiltonian: Setting also DM.MixSCF1 to T
 Mixing Hamiltonian: Setting also DM.MixSCF1 to T
 Mixing Hamiltonian: Setting also DM.MixSCF1 to T
 Mixing Hamiltonian: Setting also DM.MixSCF1 to T
 Mixing Hamiltonian: Setting also DM.MixSCF1 to T
 Mixing Hamiltonian: Setting also DM.MixSCF1 to T
 Mixing Hamiltonian: Setting also DM.MixSCF1 to T
siesta: overlap:  rmaxh   veclen  direction
siesta: overlap:  19.9243 16.7564   1
siesta: overlap:  rmaxh   veclen  direction
siesta: overlap:  19.9243 16.7564   2
siesta: overlap:  rmaxh   veclen  direction
siesta: overlap:  19.9243 73.1702   3
 label:           1 Au                             1 s      
 label:           2 Au                             1 s      
 label:           3 Au                             1 dxy    
 label:           4 Au                             1 dyz    
 label:           5 Au                             1 dz2    
 label:           6 Au                             1 dxz    
 label:           7 Au                             1 dx2-y2 
 label:           8 Au                             1 Ppy    
 label:           9 Au                             1 Ppz    
 label:          10 Au                             1 Ppx    
 label:          11 Au                             2 s      
 label:          12 Au                             2 s      
 label:          13 Au                             2 dxy    
 label:          14 Au                             2 dyz    
 label:          15 Au                             2 dz2    
 label:          16 Au                             2 dxz    
 label:          17 Au                             2 dx2-y2 
 label:          18 Au                             2 Ppy    
 label:          19 Au                             2 Ppz    
 label:          20 Au                             2 Ppx    
 label:          21 Au                             3 s      
 label:          22 Au                             3 s      
 label:          23 Au                             3 dxy    
 label:          24 Au                             3 dyz    
 label:          25 Au                             3 dz2    
 label:          26 Au                             3 dxz    
 label:          27 Au                             3 dx2-y2 
 label:          28 Au                             3 Ppy    
 label:          29 Au                             3 Ppz    
 label:          30 Au                             3 Ppx    
 label:          31 Au                             4 s      
 label:          32 Au                             4 s      
 label:          33 Au                             4 dxy    
 label:          34 Au                             4 dyz    
 label:          35 Au                             4 dz2    
 label:          36 Au                             4 dxz    
 label:          37 Au                             4 dx2-y2 
 label:          38 Au                             4 Ppy    
 label:          39 Au                             4 Ppz    
 label:          40 Au                             4 Ppx    
 label:          41 Au                             5 s      
 label:          42 Au                             5 s      
 label:          43 Au                             5 dxy    
 label:          44 Au                             5 dyz    
 label:          45 Au                             5 dz2    
 label:          46 Au                             5 dxz    
 label:          47 Au                             5 dx2-y2 
 label:          48 Au                             5 Ppy    
 label:          49 Au                             5 Ppz    
 label:          50 Au                             5 Ppx    
 label:          51 Au                             6 s      
 label:          52 Au                             6 s      
 label:          53 Au                             6 dxy    
 label:          54 Au                             6 dyz    
 label:          55 Au                             6 dz2    
 label:          56 Au                             6 dxz    
 label:          57 Au                             6 dx2-y2 
 label:          58 Au                             6 Ppy    
 label:          59 Au                             6 Ppz    
 label:          60 Au                             6 Ppx    
 label:          61 Au                             7 s      
 label:          62 Au                             7 s      
 label:          63 Au                             7 dxy    
 label:          64 Au                             7 dyz    
 label:          65 Au                             7 dz2    
 label:          66 Au                             7 dxz    
 label:          67 Au                             7 dx2-y2 
 label:          68 Au                             7 Ppy    
 label:          69 Au                             7 Ppz    
 label:          70 Au                             7 Ppx    
 label:          71 Au                             8 s      
 label:          72 Au                             8 s      
 label:          73 Au                             8 dxy    
 label:          74 Au                             8 dyz    
 label:          75 Au                             8 dz2    
 label:          76 Au                             8 dxz    
 label:          77 Au                             8 dx2-y2 
 label:          78 Au                             8 Ppy    
 label:          79 Au                             8 Ppz    
 label:          80 Au                             8 Ppx    
 label:          81 Au                             9 s      
 label:          82 Au                             9 s      
 label:          83 Au                             9 dxy    
 label:          84 Au                             9 dyz    
 label:          85 Au                             9 dz2    
 label:          86 Au                             9 dxz    
 label:          87 Au                             9 dx2-y2 
 label:          88 Au                             9 Ppy    
 label:          89 Au                             9 Ppz    
 label:          90 Au                             9 Ppx    
 label:          91 Au                            10 s      
 label:          92 Au                            10 s      
 label:          93 Au                            10 dxy    
 label:          94 Au                            10 dyz    
 label:          95 Au                            10 dz2    
 label:          96 Au                            10 dxz    
 label:          97 Au                            10 dx2-y2 
 label:          98 Au                            10 Ppy    
 label:          99 Au                            10 Ppz    
 label:         100 Au                            10 Ppx    
 label:         101 Au                            11 s      
 label:         102 Au                            11 s      
 label:         103 Au                            11 dxy    
 label:         104 Au                            11 dyz    
 label:         105 Au                            11 dz2    
 label:         106 Au                            11 dxz    
 label:         107 Au                            11 dx2-y2 
 label:         108 Au                            11 Ppy    
 label:         109 Au                            11 Ppz    
 label:         110 Au                            11 Ppx    
 label:         111 Au                            12 s      
 label:         112 Au                            12 s      
 label:         113 Au                            12 dxy    
 label:         114 Au                            12 dyz    
 label:         115 Au                            12 dz2    
 label:         116 Au                            12 dxz    
 label:         117 Au                            12 dx2-y2 
 label:         118 Au                            12 Ppy    
 label:         119 Au                            12 Ppz    
 label:         120 Au                            12 Ppx    
 label:         121 Au                            13 s      
 label:         122 Au                            13 s      
 label:         123 Au                            13 dxy    
 label:         124 Au                            13 dyz    
 label:         125 Au                            13 dz2    
 label:         126 Au                            13 dxz    
 label:         127 Au                            13 dx2-y2 
 label:         128 Au                            13 Ppy    
 label:         129 Au                            13 Ppz    
 label:         130 Au                            13 Ppx    
 label:         131 Au                            14 s      
 label:         132 Au                            14 s      
 label:         133 Au                            14 dxy    
 label:         134 Au                            14 dyz    
 label:         135 Au                            14 dz2    
 label:         136 Au                            14 dxz    
 label:         137 Au                            14 dx2-y2 
 label:         138 Au                            14 Ppy    
 label:         139 Au                            14 Ppz    
 label:         140 Au                            14 Ppx    
 label:         141 Au                            15 s      
 label:         142 Au                            15 s      
 label:         143 Au                            15 dxy    
 label:         144 Au                            15 dyz    
 label:         145 Au                            15 dz2    
 label:         146 Au                            15 dxz    
 label:         147 Au                            15 dx2-y2 
 label:         148 Au                            15 Ppy    
 label:         149 Au                            15 Ppz    
 label:         150 Au                            15 Ppx    
 label:         151 Au                            16 s      
 label:         152 Au                            16 s      
 label:         153 Au                            16 dxy    
 label:         154 Au                            16 dyz    
 label:         155 Au                            16 dz2    
 label:         156 Au                            16 dxz    
 label:         157 Au                            16 dx2-y2 
 label:         158 Au                            16 Ppy    
 label:         159 Au                            16 Ppz    
 label:         160 Au                            16 Ppx    
 label:         161 Au                            17 s      
 label:         162 Au                            17 s      
 label:         163 Au                            17 dxy    
 label:         164 Au                            17 dyz    
 label:         165 Au                            17 dz2    
 label:         166 Au                            17 dxz    
 label:         167 Au                            17 dx2-y2 
 label:         168 Au                            17 Ppy    
 label:         169 Au                            17 Ppz    
 label:         170 Au                            17 Ppx    
 label:         171 Au                            18 s      
 label:         172 Au                            18 s      
 label:         173 Au                            18 dxy    
 label:         174 Au                            18 dyz    
 label:         175 Au                            18 dz2    
 label:         176 Au                            18 dxz    
 label:         177 Au                            18 dx2-y2 
 label:         178 Au                            18 Ppy    
 label:         179 Au                            18 Ppz    
 label:         180 Au                            18 Ppx    
 label:         181 Au                            19 s      
 label:         182 Au                            19 s      
 label:         183 Au                            19 dxy    
 label:         184 Au                            19 dyz    
 label:         185 Au                            19 dz2    
 label:         186 Au                            19 dxz    
 label:         187 Au                            19 dx2-y2 
 label:         188 Au                            19 Ppy    
 label:         189 Au                            19 Ppz    
 label:         190 Au                            19 Ppx    
 label:         191 Au                            20 s      
 label:         192 Au                            20 s      
 label:         193 Au                            20 dxy    
 label:         194 Au                            20 dyz    
 label:         195 Au                            20 dz2    
 label:         196 Au                            20 dxz    
 label:         197 Au                            20 dx2-y2 
 label:         198 Au                            20 Ppy    
 label:         199 Au                            20 Ppz    
 label:         200 Au                            20 Ppx    
 label:         201 Au                            21 s      
 label:         202 Au                            21 s      
 label:         203 Au                            21 dxy    
 label:         204 Au                            21 dyz    
 label:         205 Au                            21 dz2    
 label:         206 Au                            21 dxz    
 label:         207 Au                            21 dx2-y2 
 label:         208 Au                            21 Ppy    
 label:         209 Au                            21 Ppz    
 label:         210 Au                            21 Ppx    
 label:         211 Au                            22 s      
 label:         212 Au                            22 s      
 label:         213 Au                            22 dxy    
 label:         214 Au                            22 dyz    
 label:         215 Au                            22 dz2    
 label:         216 Au                            22 dxz    
 label:         217 Au                            22 dx2-y2 
 label:         218 Au                            22 Ppy    
 label:         219 Au                            22 Ppz    
 label:         220 Au                            22 Ppx    
 label:         221 Au                            23 s      
 label:         222 Au                            23 s      
 label:         223 Au                            23 dxy    
 label:         224 Au                            23 dyz    
 label:         225 Au                            23 dz2    
 label:         226 Au                            23 dxz    
 label:         227 Au                            23 dx2-y2 
 label:         228 Au                            23 Ppy    
 label:         229 Au                            23 Ppz    
 label:         230 Au                            23 Ppx    
 label:         231 Au                            24 s      
 label:         232 Au                            24 s      
 label:         233 Au                            24 dxy    
 label:         234 Au                            24 dyz    
 label:         235 Au                            24 dz2    
 label:         236 Au                            24 dxz    
 label:         237 Au                            24 dx2-y2 
 label:         238 Au                            24 Ppy    
 label:         239 Au                            24 Ppz    
 label:         240 Au                            24 Ppx    
 label:         241 Au                            25 s      
 label:         242 Au                            25 s      
 label:         243 Au                            25 dxy    
 label:         244 Au                            25 dyz    
 label:         245 Au                            25 dz2    
 label:         246 Au                            25 dxz    
 label:         247 Au                            25 dx2-y2 
 label:         248 Au                            25 Ppy    
 label:         249 Au                            25 Ppz    
 label:         250 Au                            25 Ppx    
 label:         251 Au                            26 s      
 label:         252 Au                            26 s      
 label:         253 Au                            26 dxy    
 label:         254 Au                            26 dyz    
 label:         255 Au                            26 dz2    
 label:         256 Au                            26 dxz    
 label:         257 Au                            26 dx2-y2 
 label:         258 Au                            26 Ppy    
 label:         259 Au                            26 Ppz    
 label:         260 Au                            26 Ppx    
 label:         261 Au                            27 s      
 label:         262 Au                            27 s      
 label:         263 Au                            27 dxy    
 label:         264 Au                            27 dyz    
 label:         265 Au                            27 dz2    
 label:         266 Au                            27 dxz    
 label:         267 Au                            27 dx2-y2 
 label:         268 Au                            27 Ppy    
 label:         269 Au                            27 Ppz    
 label:         270 Au                            27 Ppx    
 label:         271 Au                            28 s      
 label:         272 Au                            28 s      
 label:         273 Au                            28 dxy    
 label:         274 Au                            28 dyz    
 label:         275 Au                            28 dz2    
 label:         276 Au                            28 dxz    
 label:         277 Au                            28 dx2-y2 
 label:         278 Au                            28 Ppy    
 label:         279 Au                            28 Ppz    
 label:         280 Au                            28 Ppx    
 label:         281 Au                            29 s      
 label:         282 Au                            29 s      
 label:         283 Au                            29 dxy    
 label:         284 Au                            29 dyz    
 label:         285 Au                            29 dz2    
 label:         286 Au                            29 dxz    
 label:         287 Au                            29 dx2-y2 
 label:         288 Au                            29 Ppy    
 label:         289 Au                            29 Ppz    
 label:         290 Au                            29 Ppx    
 label:         291 Au                            30 s      
 label:         292 Au                            30 s      
 label:         293 Au                            30 dxy    
 label:         294 Au                            30 dyz    
 label:         295 Au                            30 dz2    
 label:         296 Au                            30 dxz    
 label:         297 Au                            30 dx2-y2 
 label:         298 Au                            30 Ppy    
 label:         299 Au                            30 Ppz    
 label:         300 Au                            30 Ppx    
 label:         301 Au                            31 s      
 label:         302 Au                            31 s      
 label:         303 Au                            31 dxy    
 label:         304 Au                            31 dyz    
 label:         305 Au                            31 dz2    
 label:         306 Au                            31 dxz    
 label:         307 Au                            31 dx2-y2 
 label:         308 Au                            31 Ppy    
 label:         309 Au                            31 Ppz    
 label:         310 Au                            31 Ppx    
 label:         311 Au                            32 s      
 label:         312 Au                            32 s      
 label:         313 Au                            32 dxy    
 label:         314 Au                            32 dyz    
 label:         315 Au                            32 dz2    
 label:         316 Au                            32 dxz    
 label:         317 Au                            32 dx2-y2 
 label:         318 Au                            32 Ppy    
 label:         319 Au                            32 Ppz    
 label:         320 Au                            32 Ppx    
 label:         321 Au                            33 s      
 label:         322 Au                            33 s      
 label:         323 Au                            33 dxy    
 label:         324 Au                            33 dyz    
 label:         325 Au                            33 dz2    
 label:         326 Au                            33 dxz    
 label:         327 Au                            33 dx2-y2 
 label:         328 Au                            33 Ppy    
 label:         329 Au                            33 Ppz    
 label:         330 Au                            33 Ppx    
 label:         331 Au                            34 s      
 label:         332 Au                            34 s      
 label:         333 Au                            34 dxy    
 label:         334 Au                            34 dyz    
 label:         335 Au                            34 dz2    
 label:         336 Au                            34 dxz    
 label:         337 Au                            34 dx2-y2 
 label:         338 Au                            34 Ppy    
 label:         339 Au                            34 Ppz    
 label:         340 Au                            34 Ppx    
 label:         341 Au                            35 s      
 label:         342 Au                            35 s      
 label:         343 Au                            35 dxy    
 label:         344 Au                            35 dyz    
 label:         345 Au                            35 dz2    
 label:         346 Au                            35 dxz    
 label:         347 Au                            35 dx2-y2 
 label:         348 Au                            35 Ppy    
 label:         349 Au                            35 Ppz    
 label:         350 Au                            35 Ppx    
 label:         351 Au                            36 s      
 label:         352 Au                            36 s      
 label:         353 Au                            36 dxy    
 label:         354 Au                            36 dyz    
 label:         355 Au                            36 dz2    
 label:         356 Au                            36 dxz    
 label:         357 Au                            36 dx2-y2 
 label:         358 Au                            36 Ppy    
 label:         359 Au                            36 Ppz    
 label:         360 Au                            36 Ppx    
 label:         361 Au                            37 s      
 label:         362 Au                            37 s      
 label:         363 Au                            37 dxy    
 label:         364 Au                            37 dyz    
 label:         365 Au                            37 dz2    
 label:         366 Au                            37 dxz    
 label:         367 Au                            37 dx2-y2 
 label:         368 Au                            37 Ppy    
 label:         369 Au                            37 Ppz    
 label:         370 Au                            37 Ppx    
 label:         371 Au                            38 s      
 label:         372 Au                            38 s      
 label:         373 Au                            38 dxy    
 label:         374 Au                            38 dyz    
 label:         375 Au                            38 dz2    
 label:         376 Au                            38 dxz    
 label:         377 Au                            38 dx2-y2 
 label:         378 Au                            38 Ppy    
 label:         379 Au                            38 Ppz    
 label:         380 Au                            38 Ppx    
 label:         381 Au                            39 s      
 label:         382 Au                            39 s      
 label:         383 Au                            39 dxy    
 label:         384 Au                            39 dyz    
 label:         385 Au                            39 dz2    
 label:         386 Au                            39 dxz    
 label:         387 Au                            39 dx2-y2 
 label:         388 Au                            39 Ppy    
 label:         389 Au                            39 Ppz    
 label:         390 Au                            39 Ppx    
 label:         391 Au                            40 s      
 label:         392 Au                            40 s      
 label:         393 Au                            40 dxy    
 label:         394 Au                            40 dyz    
 label:         395 Au                            40 dz2    
 label:         396 Au                            40 dxz    
 label:         397 Au                            40 dx2-y2 
 label:         398 Au                            40 Ppy    
 label:         399 Au                            40 Ppz    
 label:         400 Au                            40 Ppx    
 label:         401 Au                            41 s      
 label:         402 Au                            41 s      
 label:         403 Au                            41 dxy    
 label:         404 Au                            41 dyz    
 label:         405 Au                            41 dz2    
 label:         406 Au                            41 dxz    
 label:         407 Au                            41 dx2-y2 
 label:         408 Au                            41 Ppy    
 label:         409 Au                            41 Ppz    
 label:         410 Au                            41 Ppx    
 label:         411 Au                            42 s      
 label:         412 Au                            42 s      
 label:         413 Au                            42 dxy    
 label:         414 Au                            42 dyz    
 label:         415 Au                            42 dz2    
 label:         416 Au                            42 dxz    
 label:         417 Au                            42 dx2-y2 
 label:         418 Au                            42 Ppy    
 label:         419 Au                            42 Ppz    
 label:         420 Au                            42 Ppx    
 label:         421 Au                            43 s      
 label:         422 Au                            43 s      
 label:         423 Au                            43 dxy    
 label:         424 Au                            43 dyz    
 label:         425 Au                            43 dz2    
 label:         426 Au                            43 dxz    
 label:         427 Au                            43 dx2-y2 
 label:         428 Au                            43 Ppy    
 label:         429 Au                            43 Ppz    
 label:         430 Au                            43 Ppx    
 label:         431 Au                            44 s      
 label:         432 Au                            44 s      
 label:         433 Au                            44 dxy    
 label:         434 Au                            44 dyz    
 label:         435 Au                            44 dz2    
 label:         436 Au                            44 dxz    
 label:         437 Au                            44 dx2-y2 
 label:         438 Au                            44 Ppy    
 label:         439 Au                            44 Ppz    
 label:         440 Au                            44 Ppx    
 label:         441 Au                            45 s      
 label:         442 Au                            45 s      
 label:         443 Au                            45 dxy    
 label:         444 Au                            45 dyz    
 label:         445 Au                            45 dz2    
 label:         446 Au                            45 dxz    
 label:         447 Au                            45 dx2-y2 
 label:         448 Au                            45 Ppy    
 label:         449 Au                            45 Ppz    
 label:         450 Au                            45 Ppx    
 label:         451 Au                            46 s      
 label:         452 Au                            46 s      
 label:         453 Au                            46 dxy    
 label:         454 Au                            46 dyz    
 label:         455 Au                            46 dz2    
 label:         456 Au                            46 dxz    
 label:         457 Au                            46 dx2-y2 
 label:         458 Au                            46 Ppy    
 label:         459 Au                            46 Ppz    
 label:         460 Au                            46 Ppx    
 label:         461 Au                            47 s      
 label:         462 Au                            47 s      
 label:         463 Au                            47 dxy    
 label:         464 Au                            47 dyz    
 label:         465 Au                            47 dz2    
 label:         466 Au                            47 dxz    
 label:         467 Au                            47 dx2-y2 
 label:         468 Au                            47 Ppy    
 label:         469 Au                            47 Ppz    
 label:         470 Au                            47 Ppx    
 label:         471 Au                            48 s      
 label:         472 Au                            48 s      
 label:         473 Au                            48 dxy    
 label:         474 Au                            48 dyz    
 label:         475 Au                            48 dz2    
 label:         476 Au                            48 dxz    
 label:         477 Au                            48 dx2-y2 
 label:         478 Au                            48 Ppy    
 label:         479 Au                            48 Ppz    
 label:         480 Au                            48 Ppx    
 label:         481 Au                            49 s      
 label:         482 Au                            49 s      
 label:         483 Au                            49 dxy    
 label:         484 Au                            49 dyz    
 label:         485 Au                            49 dz2    
 label:         486 Au                            49 dxz    
 label:         487 Au                            49 dx2-y2 
 label:         488 Au                            49 Ppy    
 label:         489 Au                            49 Ppz    
 label:         490 Au                            49 Ppx    
 label:         491 Au                            50 s      
 label:         492 Au                            50 s      
 label:         493 Au                            50 dxy    
 label:         494 Au                            50 dyz    
 label:         495 Au                            50 dz2    
 label:         496 Au                            50 dxz    
 label:         497 Au                            50 dx2-y2 
 label:         498 Au                            50 Ppy    
 label:         499 Au                            50 Ppz    
 label:         500 Au                            50 Ppx    
 label:         501 Au                            51 s      
 label:         502 Au                            51 s      
 label:         503 Au                            51 dxy    
 label:         504 Au                            51 dyz    
 label:         505 Au                            51 dz2    
 label:         506 Au                            51 dxz    
 label:         507 Au                            51 dx2-y2 
 label:         508 Au                            51 Ppy    
 label:         509 Au                            51 Ppz    
 label:         510 Au                            51 Ppx    
 label:         511 Au                            52 s      
 label:         512 Au                            52 s      
 label:         513 Au                            52 dxy    
 label:         514 Au                            52 dyz    
 label:         515 Au                            52 dz2    
 label:         516 Au                            52 dxz    
 label:         517 Au                            52 dx2-y2 
 label:         518 Au                            52 Ppy    
 label:         519 Au                            52 Ppz    
 label:         520 Au                            52 Ppx    
 label:         521 Au                            53 s      
 label:         522 Au                            53 s      
 label:         523 Au                            53 dxy    
 label:         524 Au                            53 dyz    
 label:         525 Au                            53 dz2    
 label:         526 Au                            53 dxz    
 label:         527 Au                            53 dx2-y2 
 label:         528 Au                            53 Ppy    
 label:         529 Au                            53 Ppz    
 label:         530 Au                            53 Ppx    
 label:         531 Au                            54 s      
 label:         532 Au                            54 s      
 label:         533 Au                            54 dxy    
 label:         534 Au                            54 dyz    
 label:         535 Au                            54 dz2    
 label:         536 Au                            54 dxz    
 label:         537 Au                            54 dx2-y2 
 label:         538 Au                            54 Ppy    
 label:         539 Au                            54 Ppz    
 label:         540 Au                            54 Ppx    
 label:         541 Au                            55 s      
 label:         542 Au                            55 s      
 label:         543 Au                            55 dxy    
 label:         544 Au                            55 dyz    
 label:         545 Au                            55 dz2    
 label:         546 Au                            55 dxz    
 label:         547 Au                            55 dx2-y2 
 label:         548 Au                            55 Ppy    
 label:         549 Au                            55 Ppz    
 label:         550 Au                            55 Ppx    
 label:         551 Au                            56 s      
 label:         552 Au                            56 s      
 label:         553 Au                            56 dxy    
 label:         554 Au                            56 dyz    
 label:         555 Au                            56 dz2    
 label:         556 Au                            56 dxz    
 label:         557 Au                            56 dx2-y2 
 label:         558 Au                            56 Ppy    
 label:         559 Au                            56 Ppz    
 label:         560 Au                            56 Ppx    
 label:         561 Au                            57 s      
 label:         562 Au                            57 s      
 label:         563 Au                            57 dxy    
 label:         564 Au                            57 dyz    
 label:         565 Au                            57 dz2    
 label:         566 Au                            57 dxz    
 label:         567 Au                            57 dx2-y2 
 label:         568 Au                            57 Ppy    
 label:         569 Au                            57 Ppz    
 label:         570 Au                            57 Ppx    
 label:         571 Au                            58 s      
 label:         572 Au                            58 s      
 label:         573 Au                            58 dxy    
 label:         574 Au                            58 dyz    
 label:         575 Au                            58 dz2    
 label:         576 Au                            58 dxz    
 label:         577 Au                            58 dx2-y2 
 label:         578 Au                            58 Ppy    
 label:         579 Au                            58 Ppz    
 label:         580 Au                            58 Ppx    
 label:         581 Au                            59 s      
 label:         582 Au                            59 s      
 label:         583 Au                            59 dxy    
 label:         584 Au                            59 dyz    
 label:         585 Au                            59 dz2    
 label:         586 Au                            59 dxz    
 label:         587 Au                            59 dx2-y2 
 label:         588 Au                            59 Ppy    
 label:         589 Au                            59 Ppz    
 label:         590 Au                            59 Ppx    
 label:         591 Au                            60 s      
 label:         592 Au                            60 s      
 label:         593 Au                            60 dxy    
 label:         594 Au                            60 dyz    
 label:         595 Au                            60 dz2    
 label:         596 Au                            60 dxz    
 label:         597 Au                            60 dx2-y2 
 label:         598 Au                            60 Ppy    
 label:         599 Au                            60 Ppz    
 label:         600 Au                            60 Ppx    
 label:         601 H                             61 s      
 label:         602 H                             61 s      
 label:         603 H                             61 py     
 label:         604 H                             61 pz     
 label:         605 H                             61 px     
 label:         606 H                             62 s      
 label:         607 H                             62 s      
 label:         608 H                             62 py     
 label:         609 H                             62 pz     
 label:         610 H                             62 px     
 label:         611 Au                            63 s      
 label:         612 Au                            63 s      
 label:         613 Au                            63 dxy    
 label:         614 Au                            63 dyz    
 label:         615 Au                            63 dz2    
 label:         616 Au                            63 dxz    
 label:         617 Au                            63 dx2-y2 
 label:         618 Au                            63 Ppy    
 label:         619 Au                            63 Ppz    
 label:         620 Au                            63 Ppx    
 label:         621 Au                            64 s      
 label:         622 Au                            64 s      
 label:         623 Au                            64 dxy    
 label:         624 Au                            64 dyz    
 label:         625 Au                            64 dz2    
 label:         626 Au                            64 dxz    
 label:         627 Au                            64 dx2-y2 
 label:         628 Au                            64 Ppy    
 label:         629 Au                            64 Ppz    
 label:         630 Au                            64 Ppx    
 label:         631 Au                            65 s      
 label:         632 Au                            65 s      
 label:         633 Au                            65 dxy    
 label:         634 Au                            65 dyz    
 label:         635 Au                            65 dz2    
 label:         636 Au                            65 dxz    
 label:         637 Au                            65 dx2-y2 
 label:         638 Au                            65 Ppy    
 label:         639 Au                            65 Ppz    
 label:         640 Au                            65 Ppx    
 label:         641 Au                            66 s      
 label:         642 Au                            66 s      
 label:         643 Au                            66 dxy    
 label:         644 Au                            66 dyz    
 label:         645 Au                            66 dz2    
 label:         646 Au                            66 dxz    
 label:         647 Au                            66 dx2-y2 
 label:         648 Au                            66 Ppy    
 label:         649 Au                            66 Ppz    
 label:         650 Au                            66 Ppx    
 label:         651 Au                            67 s      
 label:         652 Au                            67 s      
 label:         653 Au                            67 dxy    
 label:         654 Au                            67 dyz    
 label:         655 Au                            67 dz2    
 label:         656 Au                            67 dxz    
 label:         657 Au                            67 dx2-y2 
 label:         658 Au                            67 Ppy    
 label:         659 Au                            67 Ppz    
 label:         660 Au                            67 Ppx    
 label:         661 Au                            68 s      
 label:         662 Au                            68 s      
 label:         663 Au                            68 dxy    
 label:         664 Au                            68 dyz    
 label:         665 Au                            68 dz2    
 label:         666 Au                            68 dxz    
 label:         667 Au                            68 dx2-y2 
 label:         668 Au                            68 Ppy    
 label:         669 Au                            68 Ppz    
 label:         670 Au                            68 Ppx    
 label:         671 Au                            69 s      
 label:         672 Au                            69 s      
 label:         673 Au                            69 dxy    
 label:         674 Au                            69 dyz    
 label:         675 Au                            69 dz2    
 label:         676 Au                            69 dxz    
 label:         677 Au                            69 dx2-y2 
 label:         678 Au                            69 Ppy    
 label:         679 Au                            69 Ppz    
 label:         680 Au                            69 Ppx    
 label:         681 Au                            70 s      
 label:         682 Au                            70 s      
 label:         683 Au                            70 dxy    
 label:         684 Au                            70 dyz    
 label:         685 Au                            70 dz2    
 label:         686 Au                            70 dxz    
 label:         687 Au                            70 dx2-y2 
 label:         688 Au                            70 Ppy    
 label:         689 Au                            70 Ppz    
 label:         690 Au                            70 Ppx    
 label:         691 Au                            71 s      
 label:         692 Au                            71 s      
 label:         693 Au                            71 dxy    
 label:         694 Au                            71 dyz    
 label:         695 Au                            71 dz2    
 label:         696 Au                            71 dxz    
 label:         697 Au                            71 dx2-y2 
 label:         698 Au                            71 Ppy    
 label:         699 Au                            71 Ppz    
 label:         700 Au                            71 Ppx    
 label:         701 Au                            72 s      
 label:         702 Au                            72 s      
 label:         703 Au                            72 dxy    
 label:         704 Au                            72 dyz    
 label:         705 Au                            72 dz2    
 label:         706 Au                            72 dxz    
 label:         707 Au                            72 dx2-y2 
 label:         708 Au                            72 Ppy    
 label:         709 Au                            72 Ppz    
 label:         710 Au                            72 Ppx    
 label:         711 Au                            73 s      
 label:         712 Au                            73 s      
 label:         713 Au                            73 dxy    
 label:         714 Au                            73 dyz    
 label:         715 Au                            73 dz2    
 label:         716 Au                            73 dxz    
 label:         717 Au                            73 dx2-y2 
 label:         718 Au                            73 Ppy    
 label:         719 Au                            73 Ppz    
 label:         720 Au                            73 Ppx    
 label:         721 Au                            74 s      
 label:         722 Au                            74 s      
 label:         723 Au                            74 dxy    
 label:         724 Au                            74 dyz    
 label:         725 Au                            74 dz2    
 label:         726 Au                            74 dxz    
 label:         727 Au                            74 dx2-y2 
 label:         728 Au                            74 Ppy    
 label:         729 Au                            74 Ppz    
 label:         730 Au                            74 Ppx    
 label:         731 Au                            75 s      
 label:         732 Au                            75 s      
 label:         733 Au                            75 dxy    
 label:         734 Au                            75 dyz    
 label:         735 Au                            75 dz2    
 label:         736 Au                            75 dxz    
 label:         737 Au                            75 dx2-y2 
 label:         738 Au                            75 Ppy    
 label:         739 Au                            75 Ppz    
 label:         740 Au                            75 Ppx    
 label:         741 Au                            76 s      
 label:         742 Au                            76 s      
 label:         743 Au                            76 dxy    
 label:         744 Au                            76 dyz    
 label:         745 Au                            76 dz2    
 label:         746 Au                            76 dxz    
 label:         747 Au                            76 dx2-y2 
 label:         748 Au                            76 Ppy    
 label:         749 Au                            76 Ppz    
 label:         750 Au                            76 Ppx    
 label:         751 Au                            77 s      
 label:         752 Au                            77 s      
 label:         753 Au                            77 dxy    
 label:         754 Au                            77 dyz    
 label:         755 Au                            77 dz2    
 label:         756 Au                            77 dxz    
 label:         757 Au                            77 dx2-y2 
 label:         758 Au                            77 Ppy    
 label:         759 Au                            77 Ppz    
[...]
              0.009  -0.000
  72 -0.007  -0.000   0.009  -0.000   0.003  -0.005  -0.019   0.018  -0.012
              0.001  -0.002
  73 -0.036  -0.021  -0.018   0.011   0.002  -0.025   0.008  -0.002  -0.011
              0.031  -0.009
  74  0.032   0.017   0.004  -0.016  -0.021   0.030   0.005   0.001   0.012
              0.001  -0.000
  75 -0.003   0.007   0.001   0.001   0.025  -0.036  -0.013  -0.007  -0.005
              0.019   0.006
  76  0.003   0.012   0.002   0.014   0.022  -0.008  -0.001  -0.013   0.000
             -0.024  -0.002
  77  0.006   0.033   0.005  -0.013  -0.014   0.001   0.005  -0.015   0.010
             -0.008   0.002
  78 10.776   0.291   0.441   1.945   1.896   1.952   1.897   1.910   0.173
              0.124   0.148
  79 10.996   0.314   0.521   1.943   1.901   1.942   1.901   1.899   0.190
              0.195   0.190
  80 11.000   0.325   0.518   1.943   1.900   1.942   1.900   1.899   0.190
              0.191   0.191
  81 11.000   0.325   0.518   1.943   1.900   1.942   1.900   1.899   0.191
              0.191   0.191
  82 10.721   0.305   0.451   1.944   1.899   1.955   1.903   1.904   0.129
              0.104   0.127
  83 11.009   0.328   0.519   1.943   1.901   1.942   1.901   1.899   0.190
              0.196   0.191
  84 11.000   0.325   0.518   1.943   1.900   1.942   1.900   1.899   0.190
              0.191   0.191
  85 11.000   0.325   0.518   1.943   1.900   1.942   1.900   1.899   0.191
              0.191   0.190
  86 10.661   0.266   0.413   1.942   1.892   1.955   1.901   1.905   0.163
              0.062   0.163
  87 11.006   0.325   0.525   1.943   1.901   1.942   1.901   1.899   0.191
              0.187   0.191
  88 11.000   0.325   0.518   1.943   1.901   1.942   1.901   1.899   0.190
              0.191   0.190
  89 11.000   0.325   0.518   1.943   1.900   1.942   1.900   1.899   0.191
              0.191   0.191
  90 10.777   0.287   0.453   1.948   1.893   1.959   1.894   1.902   0.149
              0.124   0.168
  91 11.008   0.333   0.512   1.943   1.901   1.943   1.901   1.899   0.191
              0.195   0.190
  92 11.000   0.325   0.518   1.943   1.900   1.942   1.900   1.899   0.191
              0.191   0.191
  93 11.000   0.325   0.518   1.943   1.900   1.942   1.900   1.899   0.190
              0.191   0.191
  94 10.770   0.311   0.445   1.945   1.898   1.937   1.898   1.906   0.153
              0.107   0.170
  95 10.995   0.323   0.518   1.943   1.901   1.943   1.901   1.899   0.190
              0.189   0.190
  96 11.000   0.325   0.518   1.943   1.900   1.942   1.900   1.899   0.191
              0.191   0.191
  97 11.000   0.325   0.518   1.943   1.901   1.942   1.901   1.899   0.190
              0.191   0.190
  98 10.772   0.275   0.438   1.936   1.901   1.955   1.895   1.908   0.155
              0.168   0.140
  99 11.002   0.327   0.516   1.943   1.901   1.942   1.901   1.899   0.191
              0.192   0.191
 100 11.000   0.325   0.518   1.943   1.900   1.942   1.900   1.899   0.191
              0.191   0.190
 101 11.000   0.325   0.518   1.943   1.900   1.942   1.900   1.899   0.190
              0.191   0.191
 102 10.737   0.292   0.426   1.945   1.894   1.947   1.893   1.909   0.174
              0.112   0.145
 103 10.994   0.321   0.520   1.943   1.901   1.942   1.901   1.899   0.190
              0.188   0.190
 104 11.000   0.325   0.518   1.943   1.900   1.942   1.900   1.899   0.191
              0.191   0.191
 105 11.000   0.325   0.518   1.943   1.900   1.942   1.900   1.899   0.191
              0.191   0.191
 106 10.773   0.270   0.471   1.947   1.890   1.945   1.894   1.901   0.149
              0.149   0.157
 107 11.001   0.324   0.518   1.943   1.900   1.943   1.901   1.899   0.190
              0.193   0.190
 108 11.000   0.325   0.518   1.943   1.900   1.942   1.900   1.899   0.191
              0.191   0.191
 109 11.000   0.325   0.518   1.943   1.900   1.942   1.900   1.899   0.191
              0.191   0.190
 110 10.735   0.308   0.438   1.933   1.894   1.948   1.903   1.910   0.145
              0.124   0.133
 111 11.020   0.350   0.515   1.943   1.901   1.943   1.901   1.899   0.190
              0.188   0.191
 112 11.000   0.325   0.518   1.943   1.900   1.942   1.900   1.899   0.191
              0.191   0.190
 113 11.000   0.325   0.518   1.943   1.900   1.942   1.900   1.899   0.191
              0.191   0.191

Species: H                   
Atom  Qatom  Qorb
               1s      1s      2py     2pz     2px     
  61-39.914 -17.670   0.630 -10.535   0.245 -12.584
  62-27.644 -18.357   2.651  -5.362  -2.871  -3.705

mulliken: Qtot =  732.401

cgvc: Finished line minimization    2.  Mean atomic displacement =    0.0550
 
* Maximum dynamic memory allocated =   328 MB

siesta:                 ==============================
SMEAGOL                 Bias step =    0, V =  0.051 Ry
                            Begin CG move =      6
                        ==============================

outcoor: Atomic coordinates (Ang):                          
    1.78720903    1.28067091    0.00000000   1  Au         1
    0.30935586    2.75852409    2.09000000   1  Au         2
    1.78720903    1.28067091    4.18000000   1  Au         3
    0.30935586    2.75852409    6.27000000   1  Au         4
    4.74291537    1.28067091    0.00000000   1  Au         5
    3.26506220    2.75852409    2.09000000   1  Au         6
    4.74291537    1.28067091    4.18000000   1  Au         7
    3.26506220    2.75852409    6.27000000   1  Au         8
    7.69862172    1.28067091    0.00000000   1  Au         9
    6.22076855    2.75852409    2.09000000   1  Au        10
    7.69862172    1.28067091    4.18000000   1  Au        11
    6.22076855    2.75852409    6.27000000   1  Au        12
    1.78720903    4.23637726    0.00000000   1  Au        13
    0.30935586    5.71423043    2.09000000   1  Au        14
    1.78720903    4.23637726    4.18000000   1  Au        15
    0.30935586    5.71423043    6.27000000   1  Au        16
    4.74291537    4.23637726    0.00000000   1  Au        17
    3.26506220    5.71423043    2.09000000   1  Au        18
    4.74291537    4.23637726    4.18000000   1  Au        19
    3.26506220    5.71423043    6.27000000   1  Au        20
    7.69862172    4.23637726    0.00000000   1  Au        21
    6.22076855    5.71423043    2.09000000   1  Au        22
    7.69862172    4.23637726    4.18000000   1  Au        23
    6.22076855    5.71423043    6.27000000   1  Au        24
    1.78720903    7.19208360    0.00000000   1  Au        25
    0.30935586    8.66993678    2.09000000   1  Au        26
    1.78720903    7.19208360    4.18000000   1  Au        27
    0.30935586    8.66993678    6.27000000   1  Au        28
    4.74291537    7.19208360    0.00000000   1  Au        29
    3.26506220    8.66993678    2.09000000   1  Au        30
    4.74291537    7.19208360    4.18000000   1  Au        31
    3.26506220    8.66993678    6.27000000   1  Au        32
    7.69862172    7.19208360    0.00000000   1  Au        33
    6.22076855    8.66993678    2.09000000   1  Au        34
    7.69862172    7.19208360    4.18000000   1  Au        35
    6.22076855    8.66993678    6.27000000   1  Au        36
    1.78720903    1.28067091    8.36000000   1  Au        37
    1.78720903    4.23637726    8.36000000   1  Au        38
    1.78720903    7.19208360    8.36000000   1  Au        39
    4.74291537    1.28067091    8.36000000   1  Au        40
    4.74291537    4.23637726    8.36000000   1  Au        41
    4.74291537    7.19208360    8.36000000   1  Au        42
    7.69862172    1.28067091    8.36000000   1  Au        43
    7.69862172    4.23637726    8.36000000   1  Au        44
    7.69862172    7.19208360    8.36000000   1  Au        45
    0.30935586    2.75852409   10.45000000   1  Au        46
    0.30935586    5.71423043   10.45000000   1  Au        47
    0.30935586    8.66993678   10.45000000   1  Au        48
    3.26506220    2.75852409   10.45000000   1  Au        49
    3.26506220    5.71423043   10.45000000   1  Au        50
    3.26506220    8.66993678   10.45000000   1  Au        51
    6.22076855    2.75852409   10.45000000   1  Au        52
    6.22076855    5.71423043   10.45000000   1  Au        53
    6.22076855    8.66993678   10.45000000   1  Au        54
    1.57372324    4.02133444   12.75620488   1  Au        55
    1.57276097    7.40647237   12.75515409   1  Au        56
    4.95813826    4.01951946   12.75602542   1  Au        57
    4.95973519    7.40663851   12.75400047   1  Au        58
    3.26804038    5.71478349   14.59988509   1  Au        59
    3.26693394    5.74755443   17.20033022   1  Au        60
    3.25447230    5.72049253   18.57757368   2  H         61
    3.26054823    5.72569450   20.14486976   2  H         62
    3.22879954    5.71057825   21.49661816   1  Au        63
    3.26754056    5.71404151   24.14677151   1  Au        64
    1.55987904    4.00788894   25.94486184   1  Au        65
    1.55900080    7.41957780   25.94417376   1  Au        66
    4.97064838    4.00800623   25.94393477   1  Au        67
    4.97034844    7.41993835   25.94457333   1  Au        68
    0.30935586    2.75852409   28.27000000   1  Au        69
    0.30935586    5.71423043   28.27000000   1  Au        70
    0.30935586    8.66993678   28.27000000   1  Au        71
    3.26506220    2.75852409   28.27000000   1  Au        72
    3.26506220    5.71423043   28.27000000   1  Au        73
    3.26506220    8.66993678   28.27000000   1  Au        74
    6.22076855    2.75852409   28.27000000   1  Au        75
    6.22076855    5.71423043   28.27000000   1  Au        76
    6.22076855    8.66993678   28.27000000   1  Au        77
    1.78720903    1.28067091   30.36000000   1  Au        78
    0.30935586    2.75852409   32.45000000   1  Au        79
    1.78720903    1.28067091   34.54000000   1  Au        80
    0.30935586    2.75852409   36.63000000   1  Au        81
    4.74291537    1.28067091   30.36000000   1  Au        82
    3.26506220    2.75852409   32.45000000   1  Au        83
    4.74291537    1.28067091   34.54000000   1  Au        84
    3.26506220    2.75852409   36.63000000   1  Au        85
    7.69862172    1.28067091   30.36000000   1  Au        86
    6.22076855    2.75852409   32.45000000   1  Au        87
    7.69862172    1.28067091   34.54000000   1  Au        88
    6.22076855    2.75852409   36.63000000   1  Au        89
    1.78720903    4.23637726   30.36000000   1  Au        90
    0.30935586    5.71423043   32.45000000   1  Au        91
    1.78720903    4.23637726   34.54000000   1  Au        92
    0.30935586    5.71423043   36.63000000   1  Au        93
    4.74291537    4.23637726   30.36000000   1  Au        94
    3.26506220    5.71423043   32.45000000   1  Au        95
    4.74291537    4.23637726   34.54000000   1  Au        96
    3.26506220    5.71423043   36.63000000   1  Au        97
    7.69862172    4.23637726   30.36000000   1  Au        98
    6.22076855    5.71423043   32.45000000   1  Au        99
    7.69862172    4.23637726   34.54000000   1  Au       100
    6.22076855    5.71423043   36.63000000   1  Au       101
    1.78720903    7.19208360   30.36000000   1  Au       102
    0.30935586    8.66993678   32.45000000   1  Au       103
    1.78720903    7.19208360   34.54000000   1  Au       104
    0.30935586    8.66993678   36.63000000   1  Au       105
    4.74291537    7.19208360   30.36000000   1  Au       106
    3.26506220    8.66993678   32.45000000   1  Au       107
    4.74291537    7.19208360   34.54000000   1  Au       108
    3.26506220    8.66993678   36.63000000   1  Au       109
    7.69862172    7.19208360   30.36000000   1  Au       110
    6.22076855    8.66993678   32.45000000   1  Au       111
    7.69862172    7.19208360   34.54000000   1  Au       112
    6.22076855    8.66993678   36.63000000   1  Au       113

superc: Internal auxiliary supercell:     3 x     3 x     1  =       9
superc: Number of atoms, orbitals, and projectors:   1017 10080 16272
siesta: reading saved Hamiltonian

iodm: Reading Density Matrix from files

0.7V.HM                          
siesta: found saved Hamiltonian

siesta: iscf   Eharris(eV)      E_KS(eV)   FreeEng(eV)     dDmax   Ef(eV)
siesta:    1    23737.8459   116791.2795   116791.2795 113.85778   0.0000
siesta:    2    72978.9945    74637.8274    74637.8274 134.26372   0.0000
siesta:    3   112202.0734   110055.7808   110055.7808 127.44371   0.0000
siesta:    4    69402.3546    85284.2346    85284.2346 126.34303   0.0000
siesta:    5  4350961.5838  4346593.9004  4346593.90041300.28050   0.0000
siesta:    6 82284387.8300 82284689.1537 82284689.15375856.22629   0.0000
siesta:    7  2253106.0122  2266292.4967  2266292.4967 723.46625   0.0000
siesta:    8 87832803.5539 87863085.9633 87863085.96335660.70948   0.0000
siesta:    9 21910296.8076 21900829.8011 21900829.80112669.78216   0.0000
siesta:   10  1948899.6466  1954856.7365  1954856.7365 846.82350   0.0000
siesta:   11  8038393.7407  8035602.8622  8035602.86221737.07574   0.0000
siesta:   12  5877435.6177  5886204.4376  5886204.43761454.60502   0.0000
siesta:   13344271034.0306344037705.3382344037705.33828851.07207   0.0000
siesta:   14  3059748.0460  3058332.4058  3058332.40581015.53065   0.0000
siesta:   15  3957922.3510  3955142.2130  3955142.21301289.97161   0.0000
siesta:   16  5858044.5989  5855069.1240  5855069.12401653.83480   0.0000
siesta:   17 11018535.0038 11045704.5451 11045704.54512040.67253   0.0000
siesta:   18  2653359.4533  2677659.6189  2677659.6189 956.68340   0.0000
siesta:   19   445556.2448   455883.1144   455883.1144 212.50318   0.0000
siesta:   20   315691.7271   339976.7056   339976.7056 158.38488   0.0000
siesta:   21   178274.1151   184239.9728   184239.9728 272.11634   0.0000
siesta:   22   141225.9752   143611.2548   143611.2548 238.67004   0.0000
siesta:   23   159297.8855   166512.5337   166512.5337 268.47041   0.0000
siesta:   24   121753.8797   124973.4592   124973.4592 215.98225   0.0000
siesta:   25   126820.0221   114703.9868   114703.9868 157.76969   0.0000
siesta:   26 54266846.7164 54301970.4628 54301970.46284861.73491   0.0000
siesta:   27  1905735.7920  1925595.7085  1925595.7085 857.12011   0.0000
siesta:   28   425686.2922   420568.4058   420568.4058 317.07827   0.0000
siesta:   29   953855.1451   963093.0007   963093.0007 525.24581   0.0000
siesta:   30   224647.9963   229397.4836   229397.4836 251.53061   0.0000
siesta:   31   103521.9492   103378.2296   103378.2296 146.47210   0.0000
siesta:   32    96953.7955    94682.2383    94682.2383 146.84016   0.0000
siesta:   33   200607.6707   200985.2642   200985.2642 337.75535   0.0000
siesta:   34   184877.5569   187698.0402   187698.0402 325.99928   0.0000
siesta:   35    92574.0304    89437.1248    89437.1248 160.17059   0.0000
siesta:   36 32801281.9301 32808460.6873 32808460.68733087.04599   0.0000
siesta:   37  1112524.1441  1077214.4246  1077214.4246 635.85757   0.0000
siesta:   38  8019674.2537  8157200.8904  8157200.89042011.40288   0.0000
siesta:   39  2289680.4661  2275164.0755  2275164.0755 928.35091   0.0000
siesta:   40   167542.9365   160516.3347   160516.3347 292.19461   0.0000
siesta:   41   184350.6564   190267.8564   190267.8564 311.41536   0.0000
siesta:   42  1460759.8291  1468628.2174  1468628.2174 671.26336   0.0000
siesta:   43  2529612.8999  2526187.5329  2526187.5329 923.72171   0.0000
siesta:   44   294693.5623   301752.5629   301752.5629 386.54298   0.0000
siesta:   45   144082.4799   136453.3873   136453.3873 268.08125   0.0000
siesta:   46   144736.0378   147482.4914   147482.4914 274.74418   0.0000
siesta:   47    88839.2879    93478.9116    93478.9116 172.16514   0.0000
siesta:   48   112420.6895   111683.0724   111683.0724 140.83233   0.0000
siesta:   49    85761.3936    84414.6953    84414.6953 162.94366   0.0000
siesta:   50    87580.1010    84652.5933    84652.5933 162.40572   0.0000
siesta:   51    77046.7419    82770.9878    82770.9878 115.52830   0.0000
siesta:   52    79278.8922    79233.5735    79233.5735 128.00327   0.0000
siesta:   53    82065.3172    72814.2315    72814.2315 137.03713   0.0000
siesta:   54   284084.9215   286489.0120   286489.0120 201.75925   0.0000
siesta:   55   135055.4933   128014.0591   128014.0591 139.84019   0.0000
siesta:   56   433746.9996   432260.7785   432260.7785 200.68221   0.0000
siesta:   57   381195.7359   419639.4417   419639.4417 289.90636   0.0000
siesta:   58   186170.8993   184526.5841   184526.5841  41.21619   0.0000
siesta:   59   592046.5533   588504.7373   588504.7373 301.65955   0.0000
siesta:   60 10743857.0210 10729697.9213 10729697.92131800.97500   0.0000
siesta:   61    91502.8002    91713.6680    91713.6680 125.97507   0.0000
siesta:   62    91606.9718    92643.5438    92643.5438 115.27525   0.0000
siesta:   63    90026.9739    87311.8002    87311.8002 119.98876   0.0000
siesta:   64   113092.7258    94121.5248    94121.5248 109.35061   0.0000
siesta:   65   203703.1413   218054.9960   218054.9960  78.91356   0.0000
siesta:   66   111068.0515   104156.2008   104156.2008 103.04842   0.0000
siesta:   67   100688.3676    95159.5938    95159.5938 101.43798   0.0000
siesta:   68   184998.0776   201170.9320   201170.9320 310.54306   0.0000
siesta:   69    97269.2631    95519.0086    95519.0086  78.50620   0.0000
siesta:   70    99027.0769   100021.3070   100021.3070  64.57932   0.0000
siesta:   71    96892.1536    97552.5356    97552.5356  73.41223   0.0000
siesta:   72    97153.3117    96783.9045    96783.9045  76.40178   0.0000
siesta:   73    95473.0885    95804.6778    95804.6778  79.02500   0.0000
siesta:   74    99515.6204    96585.3821    96585.3821  75.18431   0.0000
siesta:   75    96903.5658    99450.8559    99450.8559  80.35817   0.0000
siesta:   76   100763.7914   100154.0575   100154.0575  75.05514   0.0000
siesta:   77   114994.6227   111564.6431   111564.6431  42.79226   0.0000
siesta:   78   334807.0276   336523.8334   336523.8334 150.10217   0.0000
siesta:   79   245980.7734   235356.7585   235356.7585 160.85787   0.0000
siesta:   80   113647.0448   125479.4089   125479.4089  36.03022   0.0000
siesta:   81   144577.7803   142277.8765   142277.8765  95.18706   0.0000
siesta:   82   103725.2549   100213.8255   100213.8255  59.90492   0.0000
siesta:   83   138946.8742   140321.5279   140321.5279  78.74698   0.0000
siesta:   84    92862.4677    92929.8763    92929.8763  78.47433   0.0000
siesta:   85    98594.7747    88274.1766    88274.1766  92.88967   0.0000
siesta:   86    91783.0741    97501.6532    97501.6532  66.12863   0.0000
siesta:   87   140933.9187   146416.6248   146416.6248  84.86816   0.0000
siesta:   88  2009270.4352  2005117.1496  2005117.1496 373.72595   0.0000
siesta:   89   195969.0893   195560.9988   195560.9988  78.78595   0.0000
siesta:   90  1080372.4956  1077831.5392  1077831.5392 338.93163   0.0000
siesta:   91    86997.5869    90497.6638    90497.6638  60.84133   0.0000
siesta:   92   100823.6367   100667.0581   100667.0581  62.89562   0.0000
siesta:   93   104939.9694   105946.3277   105946.3277  30.26661   0.0000
siesta:   94   103431.6831   103884.6388   103884.6388  11.57488   0.0000
siesta:   95  1421447.2916  1413786.2857  1413786.2857 582.55278   0.0000
siesta:   96   148232.7341   151747.3966   151747.3966  27.37175   0.0000
siesta:   97   251095.8540   250334.7924   250334.7924 139.47564   0.0000
siesta:   98   149178.9709   148869.2751   148869.2751  54.02087   0.0000
siesta:   99   114057.6047   112930.8014   112930.8014  16.87164   0.0000
siesta:  100  1739915.3168  1740417.2914  1740417.2914 368.15134   0.0000
siesta:  101   105404.3469   100781.3740   100781.3740  47.43304   0.0000
siesta:  102    92213.4234    92572.7633    92572.7633  61.95148   0.0000
siesta:  103    85156.5285    89287.0100    89287.0100  60.92121   0.0000
siesta:  104    89133.0071    88468.4385    88468.4385  33.06067   0.0000
