 DBCSR| CPU Multiplication driver                                           XSMM
 DBCSR| Multrec recursion limit                                              512
 DBCSR| Multiplication stack size                                           1000
 DBCSR| Maximum elements for images                                    UNLIMITED
 DBCSR| Multiplicative factor virtual images                                   1
 DBCSR| Use multiplication densification                                       T
 DBCSR| Multiplication size stacks                                             3
 DBCSR| Use memory pool for CPU allocation                                     F
 DBCSR| Number of 3D layers                                               SINGLE
 DBCSR| Use MPI memory allocation                                              F
 DBCSR| Use RMA algorithm                                                      F
 DBCSR| Use Communication thread                                               T
 DBCSR| Communication thread load                                             87
 DBCSR| MPI: My node id                                                        0
 DBCSR| MPI: Number of nodes                                                 240
 DBCSR| OMP: Current number of threads                                         1
 DBCSR| OMP: Max number of threads                                             1
 DBCSR| Split modifier for TAS multiplication algorithm                  1.0E+00


  **** **** ******  **  PROGRAM STARTED AT               2023-02-17 15:07:05.487
 ***** ** ***  *** **   PROGRAM STARTED ON                 cn1000.scarf.rl.ac.uk
 **    ****   ******    PROGRAM STARTED BY                             scarf1157
 ***** **    ** ** **   PROGRAM PROCESS ID                                 19731
  **** **  *******  **  PROGRAM STARTED IN /work4/scd/scarf1157/work/testing/cp2
                                           k-smeagol/bdt/cp2k/hollow-site/transp
                                           ort-cp2k/5-4/geometry-ordered/3x3-4/s
                                           z/kpoints_bulk-31_em-4-4-1_sz-all

 CP2K| version string:                 CP2K version 2022.1 (Development Version)
 CP2K| source code revision number:                                  git:1ef701d
 CP2K| cp2kflags: omp fftw3 libxc parallel mpi3 scalapack xsmm spglib           
 CP2K| is freely available from                            https://www.cp2k.org/
 CP2K| Program compiled at                          Thu 26 Jan 13:39:53 GMT 2023
 CP2K| Program compiled on                                 cn1108.scarf.rl.ac.uk
 CP2K| Program compiled for                                                local
 CP2K| Data directory path    /home/vol07/scarf1157/code/smeagol/cp2k-smeagol/sc
 CP2K| Input file name                                              1_bulkLR.inp

 GLOBAL| Force Environment number                                              1
 GLOBAL| Basis set file name                                        BASIS_MOLOPT
 GLOBAL| Potential file name                                      GTH_POTENTIALS
 GLOBAL| MM Potential file name                                     MM_POTENTIAL
 GLOBAL| Coordinate file name                                           bulk.xyz
 GLOBAL| Method name                                                        CP2K
 GLOBAL| Project name                                                       bulk
 GLOBAL| Run type                                                         ENERGY
 GLOBAL| FFT library                                                       FFTW3
 GLOBAL| Diagonalization library                                       ScaLAPACK
 GLOBAL| Orthonormality check for eigenvectors                          DISABLED
 GLOBAL| Matrix multiplication library                                 ScaLAPACK
 GLOBAL| All-to-all communication in single precision                          F
 GLOBAL| FFTs using library dependent lengths                                  T
 GLOBAL| Grid backend                                                       AUTO
 GLOBAL| Global print level                                               MEDIUM
 GLOBAL| MPI I/O enabled                                                       T
 GLOBAL| Total number of message passing processes                           240
 GLOBAL| Number of threads for this process                                    1
 GLOBAL| This output is from process                                           0
 GLOBAL| Stack size for threads created by OpenMP (OMP_STACKSIZE)        default
 GLOBAL| CPU model name                         AMD EPYC 7502P 32-Core Processor
 GLOBAL| CPUID                                                              1002

 MEMORY| system memory details [Kb]
 MEMORY|                        rank 0           min           max       average
 MEMORY| MemTotal            263897776     263896980     263897776     263897081
 MEMORY| MemFree              54574868      54574868     233692956     174210875
 MEMORY| Buffers                  2492          2488          2952          2595
 MEMORY| Cached              190031824      14983380     190031824      74157135
 MEMORY| Slab                  1638928       1017552       2059508       1302697
 MEMORY| SReclaimable          1113488        523092       1535048        792528
 MEMORY| MemLikelyFree       245722672     245722672     253678612     249163133


 *** Fundamental physical constants (SI units) ***

 *** Literature: B. J. Mohr and B. N. Taylor,
 ***             CODATA recommended values of the fundamental physical
 ***             constants: 2006, Web Version 5.1
 ***             http://physics.nist.gov/constants

 Speed of light in vacuum [m/s]                             2.99792458000000E+08
 Magnetic constant or permeability of vacuum [N/A**2]       1.25663706143592E-06
 Electric constant or permittivity of vacuum [F/m]          8.85418781762039E-12
 Planck constant (h) [J*s]                                  6.62606896000000E-34
 Planck constant (h-bar) [J*s]                              1.05457162825177E-34
 Elementary charge [C]                                      1.60217648700000E-19
 Electron mass [kg]                                         9.10938215000000E-31
 Electron g factor [ ]                                     -2.00231930436220E+00
 Proton mass [kg]                                           1.67262163700000E-27
 Fine-structure constant                                    7.29735253760000E-03
 Rydberg constant [1/m]                                     1.09737315685270E+07
 Avogadro constant [1/mol]                                  6.02214179000000E+23
 Boltzmann constant [J/K]                                   1.38065040000000E-23
 Atomic mass unit [kg]                                      1.66053878200000E-27
 Bohr radius [m]                                            5.29177208590000E-11

 *** Conversion factors ***

 [u] -> [a.u.]                                              1.82288848426455E+03
 [Angstrom] -> [Bohr] = [a.u.]                              1.88972613288564E+00
 [a.u.] = [Bohr] -> [Angstrom]                              5.29177208590000E-01
 [a.u.] -> [s]                                              2.41888432650478E-17
 [a.u.] -> [fs]                                             2.41888432650478E-02
 [a.u.] -> [J]                                              4.35974393937059E-18
 [a.u.] -> [N]                                              8.23872205491840E-08
 [a.u.] -> [K]                                              3.15774647902944E+05
 [a.u.] -> [kJ/mol]                                         2.62549961709828E+03
 [a.u.] -> [kcal/mol]                                       6.27509468713739E+02
 [a.u.] -> [Pa]                                             2.94210107994716E+13
 [a.u.] -> [bar]                                            2.94210107994716E+08
 [a.u.] -> [atm]                                            2.90362800883016E+08
 [a.u.] -> [eV]                                             2.72113838565563E+01
 [a.u.] -> [Hz]                                             6.57968392072181E+15
 [a.u.] -> [1/cm] (wave numbers)                            2.19474631370540E+05
 [a.u./Bohr**2] -> [1/cm]                                   5.14048714338585E+03
 

 CELL_TOP| Volume [angstrom^3]:                                      1306.420954
 CELL_TOP| Vector a [angstrom    12.514     0.000     0.000   |a| =    12.513863
 CELL_TOP| Vector b [angstrom     0.000    12.514     0.000   |b| =    12.513863
 CELL_TOP| Vector c [angstrom     0.000     0.000     8.343   |c| =     8.342580
 CELL_TOP| Angle (b,c), alpha [degree]:                                90.000000
 CELL_TOP| Angle (a,c), beta  [degree]:                                90.000000
 CELL_TOP| Angle (a,b), gamma [degree]:                                90.000000
 CELL_TOP| Numerically orthorhombic:                                         YES
 CELL_TOP| Periodicity                                                       XYZ

 GENERATE|  Preliminary Number of Bonds generated:                             0
 GENERATE|  Achieved consistency in connectivity generation.

 CELL| Volume [angstrom^3]:                                          1306.420954
 CELL| Vector a [angstrom]:      12.514     0.000     0.000   |a| =    12.513863
 CELL| Vector b [angstrom]:       0.000    12.514     0.000   |b| =    12.513863
 CELL| Vector c [angstrom]:       0.000     0.000     8.343   |c| =     8.342580
 CELL| Angle (b,c), alpha [degree]:                                    90.000000
 CELL| Angle (a,c), beta  [degree]:                                    90.000000
 CELL| Angle (a,b), gamma [degree]:                                    90.000000
 CELL| Numerically orthorhombic:                                             YES
 CELL| Periodicity                                                           XYZ

 CELL_REF| Volume [angstrom^3]:                                      1306.420954
 CELL_REF| Vector a [angstrom    12.514     0.000     0.000   |a| =    12.513863
 CELL_REF| Vector b [angstrom     0.000    12.514     0.000   |b| =    12.513863
 CELL_REF| Vector c [angstrom     0.000     0.000     8.343   |c| =     8.342580
 CELL_REF| Angle (b,c), alpha [degree]:                                90.000000
 CELL_REF| Angle (a,c), beta  [degree]:                                90.000000
 CELL_REF| Angle (a,b), gamma [degree]:                                90.000000
 CELL_REF| Numerically orthorhombic:                                         YES
 CELL_REF| Periodicity                                                       XYZ

 *******************************************************************************
                                    Kpoints
 *******************************************************************************
 BRILLOUIN| K-point scheme                                        Monkhorst-Pack
 BRILLOUIN| K-Point grid                                             1    1   31
 BRILLOUIN| Accuracy in Symmetry determination                      0.100000E-07
 BRILLOUIN| K-Point point group symmetrization                               OFF
 BRILLOUIN| Wavefunction type                                            COMPLEX
 BRILLOUIN| Use full k-point grid     
 BRILLOUIN| List of Kpoints [2 Pi/Bohr]                                       31
 BRILLOUIN| Number           Weight            X              Y              Z
 BRILLOUIN|     1           0.03226        0.00000        0.00000       -0.48387
 BRILLOUIN|     2           0.03226        0.00000        0.00000       -0.45161
 BRILLOUIN|     3           0.03226        0.00000        0.00000       -0.41935
 BRILLOUIN|     4           0.03226        0.00000        0.00000       -0.38710
 BRILLOUIN|     5           0.03226        0.00000        0.00000       -0.35484
 BRILLOUIN|     6           0.03226        0.00000        0.00000       -0.32258
 BRILLOUIN|     7           0.03226        0.00000        0.00000       -0.29032
 BRILLOUIN|     8           0.03226        0.00000        0.00000       -0.25806
 BRILLOUIN|     9           0.03226        0.00000        0.00000       -0.22581
 BRILLOUIN|    10           0.03226        0.00000        0.00000       -0.19355
 BRILLOUIN|    11           0.03226        0.00000        0.00000       -0.16129
 BRILLOUIN|    12           0.03226        0.00000        0.00000       -0.12903
 BRILLOUIN|    13           0.03226        0.00000        0.00000       -0.09677
 BRILLOUIN|    14           0.03226        0.00000        0.00000       -0.06452
 BRILLOUIN|    15           0.03226        0.00000        0.00000       -0.03226
 BRILLOUIN|    16           0.03226        0.00000        0.00000        0.00000
 BRILLOUIN|    17           0.03226        0.00000        0.00000        0.03226
 BRILLOUIN|    18           0.03226        0.00000        0.00000        0.06452
 BRILLOUIN|    19           0.03226        0.00000        0.00000        0.09677
 BRILLOUIN|    20           0.03226        0.00000        0.00000        0.12903
 BRILLOUIN|    21           0.03226        0.00000        0.00000        0.16129
 BRILLOUIN|    22           0.03226        0.00000        0.00000        0.19355
 BRILLOUIN|    23           0.03226        0.00000        0.00000        0.22581
 BRILLOUIN|    24           0.03226        0.00000        0.00000        0.25806
 BRILLOUIN|    25           0.03226        0.00000        0.00000        0.29032
 BRILLOUIN|    26           0.03226        0.00000        0.00000        0.32258
 BRILLOUIN|    27           0.03226        0.00000        0.00000        0.35484
 BRILLOUIN|    28           0.03226        0.00000        0.00000        0.38710
 BRILLOUIN|    29           0.03226        0.00000        0.00000        0.41935
 BRILLOUIN|    30           0.03226        0.00000        0.00000        0.45161
 BRILLOUIN|    31           0.03226        0.00000        0.00000        0.48387
 *******************************************************************************

 *******************************************************************************
 *******************************************************************************
 **                                                                           **
 **     #####                         ##              ##                      **
 **    ##   ##            ##          ##              ##                      **
 **   ##     ##                       ##            ######                    **
 **   ##     ##  ##   ##  ##   #####  ##  ##   ####   ##    #####    #####    **
 **   ##     ##  ##   ##  ##  ##      ## ##   ##      ##   ##   ##  ##   ##   **
 **   ##  ## ##  ##   ##  ##  ##      ####     ###    ##   ######   ######    **
 **    ##  ###   ##   ##  ##  ##      ## ##      ##   ##   ##       ##        **
 **     #######   #####   ##   #####  ##  ##  ####    ##    #####   ##        **
 **           ##                                                    ##        **
 **                                                                           **
 **                                                ... make the atoms dance   **
 **                                                                           **
 **            Copyright (C) by CP2K developers group (2000-2022)             **
 **                      J. Chem. Phys. 152, 194103 (2020)                    **
 **                                                                           **
 *******************************************************************************

 DFT| Spin restricted Kohn-Sham (RKS) calculation                            RKS
 DFT| Multiplicity                                                             1
 DFT| Number of spin states                                                    1
 DFT| Charge                                                                   0
 DFT| Self-interaction correction (SIC)                                       NO
 DFT| Cutoffs: density                                              1.000000E-10
 DFT|          gradient                                             1.000000E-10
 DFT|          tau                                                  1.000000E-10
 DFT|          cutoff_smoothing_range                               0.000000E+00
 DFT| XC density smoothing                                                  NONE
 DFT| XC derivatives                                                          PW

 FUNCTIONAL| PADE:
 FUNCTIONAL| S. Goedecker, M. Teter and J. Hutter, Phys. Rev. B 54, 1703 (1996) 


 QS| Method:                                                                 GPW
 QS| Density plane wave grid type                        NON-SPHERICAL FULLSPACE
 QS| Number of grid levels:                                                    4
 QS| Density cutoff [a.u.]:                                                200.0
 QS| Multi grid cutoff [a.u.]: 1) grid level                               200.0
 QS|                           2) grid level                                66.7
 QS|                           3) grid level                                22.2
 QS|                           4) grid level                                 7.4
 QS| Grid level progression factor:                                          3.0
 QS| Relative density cutoff [a.u.]:                                        20.0
 QS| Interaction thresholds: eps_pgf_orb:                                1.0E-05
 QS|                         eps_filter_matrix:                          0.0E+00
 QS|                         eps_core_charge:                            1.0E-12
 QS|                         eps_rho_gspace:                             1.0E-10
 QS|                         eps_rho_rspace:                             1.0E-10
 QS|                         eps_gvg_rspace:                             1.0E-05
 QS|                         eps_ppl:                                    1.0E-02
 QS|                         eps_ppnl:                                   1.0E-07


 ATOMIC KIND INFORMATION

  1. Atomic kind: Au                                    Number of atoms:      72

     Orbital Basis Set                                         SZV-MOLOPT-SR-GTH

       Number of orbital shell sets:                                           1
       Number of orbital shells:                                               3
       Number of primitive Cartesian functions:                                5
       Number of Cartesian basis functions:                                   10
       Number of spherical basis functions:                                    9
       Norm type:                                                              2

       Normalised Cartesian orbitals:

                        Set   Shell   Orbital            Exponent    Coefficient

                          1       1    2s                2.950008       0.074626
                                                         1.563057      -0.007898
                                                         0.666664      -0.297688
                                                         0.251083       0.136809
                                                         0.081714       0.088198

                          1       2    3px               2.950008       0.148824
                                                         1.563057       0.025430
                                                         0.666664      -0.123003
                                                         0.251083       0.033648
                                                         0.081714       0.059008
                          1       2    3py               2.950008       0.148824
                                                         1.563057       0.025430
                                                         0.666664      -0.123003
                                                         0.251083       0.033648
                                                         0.081714       0.059008
                          1       2    3pz               2.950008       0.148824
                                                         1.563057       0.025430
                                                         0.666664      -0.123003
                                                         0.251083       0.033648
                                                         0.081714       0.059008

                          1       3    4dx2              2.950008      -0.139595
                                                         1.563057       1.319655
                                                         0.666664       0.377081
                                                         0.251083       0.046872
                                                         0.081714       0.001393
                          1       3    4dxy              2.950008      -0.241786
                                                         1.563057       2.285709
                                                         0.666664       0.653124
                                                         0.251083       0.081185
                                                         0.081714       0.002412
                          1       3    4dxz              2.950008      -0.241786
                                                         1.563057       2.285709
                                                         0.666664       0.653124
                                                         0.251083       0.081185
                                                         0.081714       0.002412
                          1       3    4dy2              2.950008      -0.139595
                                                         1.563057       1.319655
                                                         0.666664       0.377081
                                                         0.251083       0.046872
                                                         0.081714       0.001393
                          1       3    4dyz              2.950008      -0.241786
                                                         1.563057       2.285709
                                                         0.666664       0.653124
                                                         0.251083       0.081185
                                                         0.081714       0.002412
                          1       3    4dz2              2.950008      -0.139595
                                                         1.563057       1.319655
                                                         0.666664       0.377081
                                                         0.251083       0.046872
                                                         0.081714       0.001393

       Atomic covalent radius [Angstrom]:                                  1.340

       Atomic van der Waals radius [Angstrom]:                             1.660

     GTH Potential information for                                  GTH-PADE-q11

       Description:                       Goedecker-Teter-Hutter pseudopotential
                                           Goedecker et al., PRB 54, 1703 (1996)
                                          Hartwigsen et al., PRB 58, 3641 (1998)
                                                      Krack, TCA 114, 145 (2005)

       Gaussian exponent of the core charge distribution:               1.436369
       Electronic configuration (s p d ...):                           1   0  10

       Parameters of the local part of the GTH pseudopotential:

                          rloc        C1          C2          C3          C4
                        0.590000   11.604428

       Parameters of the non-local part of the GTH pseudopotential:

                   l      r(l)      h(i,j,l)

                   0    0.521180    2.538614   -1.046137
                                   -1.046137    2.701113
                   1    0.630613    0.394853   -0.869592
                                   -0.869592    2.057831
                   2    0.440706   -4.719070    0.727771
                                    0.727771   -1.650429


 MOLECULE KIND INFORMATION


 All atoms are their own molecule, skipping detailed information


 TOTAL NUMBERS AND MAXIMUM NUMBERS

  Total number of            - Atomic kinds:                                   1
                             - Atoms:                                         72
                             - Shell sets:                                    72
                             - Shells:                                       216
                             - Primitive Cartesian functions:                360
                             - Cartesian basis functions:                    720
                             - Spherical basis functions:                    648

  Maximum angular momentum of- Orbital basis functions:                        2
                             - Local part of the GTH pseudopotential:          0
                             - Non-local part of the GTH pseudopotential:      4


 MODULE QUICKSTEP: ATOMIC COORDINATES IN ANGSTROM

   Atom Kind Element         X             Y             Z       Z(eff)     Mass
      1    1 Au   79      0.000000      0.000000      0.000000  11.0000 196.9666
      2    1 Au   79      8.342575      8.342575      0.000000  11.0000 196.9666
      3    1 Au   79      6.256932     10.428219      0.000000  11.0000 196.9666
      4    1 Au   79      4.171288      8.342575      0.000000  11.0000 196.9666
      5    1 Au   79      2.085644     10.428219      0.000000  11.0000 196.9666
      6    1 Au   79      0.000000      8.342575      0.000000  11.0000 196.9666
      7    1 Au   79     10.428219      6.256932      0.000000  11.0000 196.9666
      8    1 Au   79      8.342575      4.171288      0.000000  11.0000 196.9666
      9    1 Au   79      6.256932      6.256932      0.000000  11.0000 196.9666
     10    1 Au   79      4.171288      4.171288      0.000000  11.0000 196.9666
     11    1 Au   79      2.085644      6.256932      0.000000  11.0000 196.9666
     12    1 Au   79      0.000000      4.171288      0.000000  11.0000 196.9666
     13    1 Au   79     10.428219     10.428219      0.000000  11.0000 196.9666
     14    1 Au   79     10.428219      2.085644      0.000000  11.0000 196.9666
     15    1 Au   79      8.342575      0.000000      0.000000  11.0000 196.9666
     16    1 Au   79      6.256932      2.085644      0.000000  11.0000 196.9666
     17    1 Au   79      2.085644      2.085644      0.000000  11.0000 196.9666
     18    1 Au   79      4.171288      0.000000      0.000000  11.0000 196.9666
     19    1 Au   79      0.000000      6.256932      2.085644  11.0000 196.9666
     20    1 Au   79     10.428219      8.342575      2.085644  11.0000 196.9666
     21    1 Au   79      8.342575     10.428219      2.085644  11.0000 196.9666
     22    1 Au   79      0.000000      2.085644      2.085644  11.0000 196.9666
     23    1 Au   79      2.085644      0.000000      2.085644  11.0000 196.9666
     24    1 Au   79      6.256932      8.342575      2.085644  11.0000 196.9666
     25    1 Au   79      2.085644      8.342575      2.085644  11.0000 196.9666
     26    1 Au   79      4.171288     10.428219      2.085644  11.0000 196.9666
     27    1 Au   79      4.171288      2.085644      2.085644  11.0000 196.9666
     28    1 Au   79      6.256932      0.000000      2.085644  11.0000 196.9666
     29    1 Au   79     10.428219      4.171288      2.085644  11.0000 196.9666
     30    1 Au   79      8.342575      6.256932      2.085644  11.0000 196.9666
     31    1 Au   79      6.256932      4.171288      2.085644  11.0000 196.9666
     32    1 Au   79      4.171288      6.256932      2.085644  11.0000 196.9666
     33    1 Au   79      8.342575      2.085644      2.085644  11.0000 196.9666
     34    1 Au   79     10.428219      0.000000      2.085644  11.0000 196.9666
     35    1 Au   79      0.000000     10.428219      2.085644  11.0000 196.9666
     36    1 Au   79      2.085644      4.171288      2.085644  11.0000 196.9666
     37    1 Au   79      4.171288      4.171288      4.171288  11.0000 196.9666
     38    1 Au   79      6.256932      6.256932      4.171288  11.0000 196.9666
     39    1 Au   79      8.342575      4.171288      4.171288  11.0000 196.9666
     40    1 Au   79     10.428219      6.256932      4.171288  11.0000 196.9666
     41    1 Au   79      6.256932     10.428219      4.171288  11.0000 196.9666
     42    1 Au   79      2.085644     10.428219      4.171288  11.0000 196.9666
     43    1 Au   79      4.171288      8.342575      4.171288  11.0000 196.9666
     44    1 Au   79      8.342575      8.342575      4.171288  11.0000 196.9666
     45    1 Au   79      2.085644      6.256932      4.171288  11.0000 196.9666
     46    1 Au   79      0.000000      8.342575      4.171288  11.0000 196.9666
     47    1 Au   79      0.000000      4.171288      4.171288  11.0000 196.9666
     48    1 Au   79     10.428219     10.428219      4.171288  11.0000 196.9666
     49    1 Au   79      4.171288      0.000000      4.171288  11.0000 196.9666
     50    1 Au   79      0.000000      0.000000      4.171288  11.0000 196.9666
     51    1 Au   79      8.342575      0.000000      4.171288  11.0000 196.9666
     52    1 Au   79      6.256932      2.085644      4.171288  11.0000 196.9666
     53    1 Au   79     10.428219      2.085644      4.171288  11.0000 196.9666
     54    1 Au   79      2.085644      2.085644      4.171288  11.0000 196.9666
     55    1 Au   79      8.342575     10.428219      6.256932  11.0000 196.9666
     56    1 Au   79     10.428219      8.342575      6.256932  11.0000 196.9666
     57    1 Au   79      6.256932      8.342575      6.256932  11.0000 196.9666
     58    1 Au   79      4.171288     10.428219      6.256932  11.0000 196.9666
     59    1 Au   79      0.000000      2.085644      6.256932  11.0000 196.9666
     60    1 Au   79      2.085644      0.000000      6.256932  11.0000 196.9666
     61    1 Au   79      2.085644      8.342575      6.256932  11.0000 196.9666
     62    1 Au   79     10.428219      0.000000      6.256932  11.0000 196.9666
     63    1 Au   79     10.428219      4.171288      6.256932  11.0000 196.9666
     64    1 Au   79      8.342575      6.256932      6.256932  11.0000 196.9666
     65    1 Au   79      4.171288      2.085644      6.256932  11.0000 196.9666
     66    1 Au   79      6.256932      4.171288      6.256932  11.0000 196.9666
     67    1 Au   79      4.171288      6.256932      6.256932  11.0000 196.9666
     68    1 Au   79      8.342575      2.085644      6.256932  11.0000 196.9666
     69    1 Au   79      2.085644      4.171288      6.256932  11.0000 196.9666
     70    1 Au   79      0.000000      6.256932      6.256932  11.0000 196.9666
     71    1 Au   79      0.000000     10.428219      6.256932  11.0000 196.9666
     72    1 Au   79      6.256932      0.000000      6.256932  11.0000 196.9666



 SCF PARAMETERS         Density guess:                                    ATOMIC
                        --------------------------------------------------------
                        max_scf:                                             100
                        max_scf_history:                                       0
                        max_diis:                                              4
                        --------------------------------------------------------
                        eps_scf:                                        1.00E-07
                        eps_scf_history:                                0.00E+00
                        eps_diis:                                       1.00E-01
                        eps_eigval:                                     1.00E-05
                        --------------------------------------------------------
                        level_shift [a.u.]:                             0.000000
                        added MOs                                       100    0
                        --------------------------------------------------------
                        Mixing method:                            BROYDEN_MIXING
                                                charge density mixing in g-space
                        --------------------------------------------------------
                        Smear method:                                FERMI_DIRAC
                        Electronic temperature [K]:                        293.0
                        Electronic temperature [a.u.]:                  9.28E-04
                        Accuracy threshold:                             1.00E-10
                        --------------------------------------------------------
                        No outer SCF

 PW_GRID| Information for grid number                                          1
 PW_GRID| Grid distributed over                                   240 processors
 PW_GRID| Real space group dimensions                                    12   20
 PW_GRID| the grid is blocked:                                               YES
 PW_GRID| Cutoff [a.u.]                                                    200.0
 PW_GRID| spherical cutoff:                                                   NO
 PW_GRID|   Bounds   1            -77      76                Points:         154
 PW_GRID|   Bounds   2            -77      76                Points:         154
 PW_GRID|   Bounds   3            -52      52                Points:         105
 PW_GRID| Volume element (a.u.^3)  0.3540E-02     Volume (a.u.^3)      8816.1657
 PW_GRID| Grid span                                                    FULLSPACE
 PW_GRID|   Distribution                         Average         Max         Min
 PW_GRID|   G-Vectors                            10375.8       12012        9240
 PW_GRID|   G-Rays                                  67.4          78          60
 PW_GRID|   Real Space Points                    10375.8       12012        9240

 PW_GRID| Information for grid number                                          2
 PW_GRID| Number of the reference grid                                         1
 PW_GRID| Grid distributed over                                   240 processors
 PW_GRID| Real space group dimensions                                    12   20
 PW_GRID| the grid is blocked:                                                NO
 PW_GRID| Cutoff [a.u.]                                                     66.7
 PW_GRID| spherical cutoff:                                                   NO
 PW_GRID|   Bounds   1            -44      43                Points:          88
 PW_GRID|   Bounds   2            -44      43                Points:          88
 PW_GRID|   Bounds   3            -30      29                Points:          60
 PW_GRID| Volume element (a.u.^3)  0.1897E-01     Volume (a.u.^3)      8816.1657
 PW_GRID| Grid span                                                    FULLSPACE
 PW_GRID|   Distribution                         Average         Max         Min
 PW_GRID|   G-Vectors                             1936.0        6864           0
 PW_GRID|   G-Rays                                  22.0          78           0
 PW_GRID|   Real Space Points                     1936.0        2400        1680

 PW_GRID| Information for grid number                                          3
 PW_GRID| Number of the reference grid                                         1
 PW_GRID| Grid distributed over                                   240 processors
 PW_GRID| Real space group dimensions                                    12   20
 PW_GRID| the grid is blocked:                                                NO
 PW_GRID| Cutoff [a.u.]                                                     22.2
 PW_GRID| spherical cutoff:                                                   NO
 PW_GRID|   Bounds   1            -27      26                Points:          54
 PW_GRID|   Bounds   2            -27      26                Points:          54
 PW_GRID|   Bounds   3            -16      16                Points:          33
 PW_GRID| Volume element (a.u.^3)  0.9162E-01     Volume (a.u.^3)      8816.1657
 PW_GRID| Grid span                                                    FULLSPACE
 PW_GRID|   Distribution                         Average         Max         Min
 PW_GRID|   G-Vectors                              400.9        4212           0
 PW_GRID|   G-Rays                                   7.4          78           0
 PW_GRID|   Real Space Points                      400.9         495         264

 PW_GRID| Information for grid number                                          4
 PW_GRID| Number of the reference grid                                         1
 PW_GRID| Grid distributed over                                   240 processors
 PW_GRID| Real space group dimensions                                    12   20
 PW_GRID| the grid is blocked:                                                NO
 PW_GRID| Cutoff [a.u.]                                                      7.4
 PW_GRID| spherical cutoff:                                                   NO
 PW_GRID|   Bounds   1            -15      14                Points:          30
 PW_GRID|   Bounds   2            -15      14                Points:          30
 PW_GRID|   Bounds   3            -10       9                Points:          20
 PW_GRID| Volume element (a.u.^3)  0.4898         Volume (a.u.^3)      8816.1657
 PW_GRID| Grid span                                                    FULLSPACE
 PW_GRID|   Distribution                         Average         Max         Min
 PW_GRID|   G-Vectors                               75.0        1950           0
 PW_GRID|   G-Rays                                   2.5          65           0
 PW_GRID|   Real Space Points                       75.0         120          40

 POISSON| Solver                                                        PERIODIC
 POISSON| Periodicity                                                        XYZ

 RS_GRID| Information for grid number                                          1
 RS_GRID|   Bounds   1            -77      76                Points:         154
 RS_GRID|   Bounds   2            -77      76                Points:         154
 RS_GRID|   Bounds   3            -52      52                Points:         105
 RS_GRID| Real space distribution over                                 15 groups
 RS_GRID| Real space distribution along direction                              1
 RS_GRID| Border size                                                         30
 RS_GRID| Real space distribution over                                 16 groups
 RS_GRID| Real space distribution along direction                              2
 RS_GRID| Border size                                                         30
 RS_GRID|   Distribution                         Average         Max         Min
 RS_GRID|   Planes                                  70.3          71          70
 RS_GRID|   Distribution                         Average         Max         Min
 RS_GRID|   Planes                                  69.6          70          69

 RS_GRID| Information for grid number                                          2
 RS_GRID|   Bounds   1            -44      43                Points:          88
 RS_GRID|   Bounds   2            -44      43                Points:          88
 RS_GRID|   Bounds   3            -30      29                Points:          60
 RS_GRID| Real space distribution over                                 15 groups
 RS_GRID| Real space distribution along direction                              1
 RS_GRID| Border size                                                         20
 RS_GRID| Real space distribution over                                 16 groups
 RS_GRID| Real space distribution along direction                              2
 RS_GRID| Border size                                                         20
 RS_GRID|   Distribution                         Average         Max         Min
 RS_GRID|   Planes                                  45.9          46          45
 RS_GRID|   Distribution                         Average         Max         Min
 RS_GRID|   Planes                                  45.5          46          45

 RS_GRID| Information for grid number                                          3
 RS_GRID|   Bounds   1            -27      26                Points:          54
 RS_GRID|   Bounds   2            -27      26                Points:          54
 RS_GRID|   Bounds   3            -16      16                Points:          33
 RS_GRID| Real space fully replicated
 RS_GRID| Group size                                                           1

 RS_GRID| Information for grid number                                          4
 RS_GRID|   Bounds   1            -15      14                Points:          30
 RS_GRID|   Bounds   2            -15      14                Points:          30
 RS_GRID|   Bounds   3            -10       9                Points:          20
 RS_GRID| Real space fully replicated
 RS_GRID| Group size                                                           1

 KPOINTS| Number of kpoint groups                                              1
 KPOINTS| Size of each kpoint group                                          240
 KPOINTS| Number of kpoints per group                                         31

 Number of electrons:                                                        792
 Number of occupied orbitals:                                                396
 Number of molecular orbitals:                                               496

 Number of orbital functions:                                                648
 Number of independent orbital functions:                                    648

 Extrapolation method: initial_guess

 Atomic guess: The first density matrix is obtained in terms of atomic orbitals
               and electronic configurations assigned to each atomic kind

 Guess for atomic kind: Au

 Electronic structure
    Total number of core electrons                                         68.00
    Total number of valence electrons                                      11.00
    Total number of electrons                                              79.00
    Multiplicity                                                   not specified
    S   [  2.00  2.00  2.00  2.00  2.00] 1.00
    P   [  6.00  6.00  6.00  6.00]
    D   [ 10.00 10.00]10.00
    F   [ 14.00]


 *******************************************************************************
                  Iteration          Convergence                     Energy [au]
 *******************************************************************************
                          1         0.00000                     -33.033218197848

 Energy components [Hartree]           Total Energy ::          -33.033218197848
                                        Band Energy ::           -1.147505983145
                                     Kinetic Energy ::           24.744064437587
                                   Potential Energy ::          -57.777282635435
                                      Virial (-V/T) ::            2.334995642336
                                        Core Energy ::          -60.197309615488
                                          XC Energy ::           -5.116883226844
                                     Coulomb Energy ::           32.280974644483
                       Total Pseudopotential Energy ::          -85.042885173964
                       Local Pseudopotential Energy ::          -66.341694915099
                    Nonlocal Pseudopotential Energy ::          -18.701190258865
                                        Confinement ::            1.015111208892

 Orbital energies  State     L     Occupation   Energy[a.u.]          Energy[eV]

                       1     0          1.000      -0.213792           -5.817572

                       1     2         10.000      -0.093371           -2.540765


 Total Electron Density at R=0:                                         0.000035
 Re-scaling the density matrix to get the right number of electrons
                  # Electrons              Trace(P)               Scaling factor
                          792               792.000                        1.000


 SCF WAVEFUNCTION OPTIMIZATION

  Step     Update method      Time    Convergence         Total energy    Change
  ------------------------------------------------------------------------------
     1 NoMix/Diag. 0.30E+00    5.3     0.23858300     -2397.6823250872 -2.40E+03
     2 Broy./Diag. 0.30E+00    5.6     0.03545056     -2449.2981465058 -5.16E+01
     3 Broy./Diag. 0.30E+00    5.8     0.03638216     -2412.4358681851  3.69E+01
     4 Broy./Diag. 0.30E+00    5.7     0.00099968     -2396.9874609020  1.54E+01
     5 Broy./Diag. 0.30E+00    5.7     0.00039241     -2396.4854686248  5.02E-01
     6 Broy./Diag. 0.30E+00    5.8     0.00004694     -2396.4445379943  4.09E-02
     7 Broy./Diag. 0.30E+00    5.9     0.00003497     -2396.4685841698 -2.40E-02
     8 Broy./Diag. 0.30E+00    5.8     0.00000367     -2396.4682706086  3.14E-04
     9 Broy./Diag. 0.30E+00    5.9     0.00000142     -2396.4675625978  7.08E-04
    10 Broy./Diag. 0.30E+00    6.3     0.00000025     -2396.4676590867 -9.65E-05
    11 Broy./Diag. 0.30E+00    6.2     2.9464E-09     -2396.4677015479 -4.25E-05

  *** SCF run converged in    11 steps ***


  Electronic density on regular grids:       -791.9999999994        0.0000000006
  Core density on regular grids:              791.9999998703       -0.0000001297
  Total charge density on r-space grids:       -0.0000001291
  Total charge density g-space grids:          -0.0000001291

  Overlap energy of the core charge distribution:               0.00000022383312
  Self energy of the core charge distribution:              -4165.44038293902850
  Core Hamiltonian energy:                                   1319.68644071977656
  Hartree energy:                                             822.99991240775171
  Exchange-correlation energy:                               -373.71067044824781
  Electronic entropic energy:                                  -0.00300151203048
  Fermi energy:                                                 0.33939638880674

  Total energy:                                             -2396.46770154792739

 The electron density is written in cube file format to the file:

 bulk-ELECTRON_DENSITY-1_0.cube

 !-----------------------------------------------------------------------------!
                     Mulliken Population Analysis

 #  Atom  Element  Kind  Atomic population                           Net charge
       1     Au       1         11.000000                             -0.000000
       2     Au       1         11.000001                             -0.000001
       3     Au       1         11.000000                             -0.000000
       4     Au       1         11.000001                             -0.000001
       5     Au       1         11.000001                             -0.000001
       6     Au       1         11.000000                             -0.000000
       7     Au       1         11.000000                             -0.000000
       8     Au       1         11.000001                             -0.000001
       9     Au       1         11.000000                             -0.000000
      10     Au       1         11.000001                             -0.000001
      11     Au       1         11.000000                             -0.000000
      12     Au       1         11.000000                             -0.000000
      13     Au       1         11.000001                             -0.000001
      14     Au       1         11.000001                             -0.000001
      15     Au       1         11.000000                             -0.000000
      16     Au       1         11.000000                             -0.000000
      17     Au       1         11.000001                             -0.000001
      18     Au       1         11.000000                             -0.000000
      19     Au       1         10.999999                              0.000001
      20     Au       1         10.999999                              0.000001
      21     Au       1         10.999999                              0.000001
      22     Au       1         10.999999                              0.000001
      23     Au       1         10.999999                              0.000001
      24     Au       1         10.999999                              0.000001
      25     Au       1         10.999999                              0.000001
      26     Au       1         10.999999                              0.000001
      27     Au       1         10.999999                              0.000001
      28     Au       1         10.999999                              0.000001
      29     Au       1         10.999999                              0.000001
      30     Au       1         10.999999                              0.000001
      31     Au       1         10.999999                              0.000001
      32     Au       1         10.999999                              0.000001
      33     Au       1         10.999999                              0.000001
      34     Au       1         10.999999                              0.000001
      35     Au       1         10.999999                              0.000001
      36     Au       1         10.999999                              0.000001
      37     Au       1         11.000000                              0.000000
      38     Au       1         10.999999                              0.000001
      39     Au       1         11.000000                              0.000000
      40     Au       1         10.999999                              0.000001
      41     Au       1         10.999999                              0.000001
      42     Au       1         11.000000                              0.000000
      43     Au       1         11.000000                              0.000000
      44     Au       1         11.000000                              0.000000
      45     Au       1         10.999999                              0.000001
      46     Au       1         10.999999                              0.000001
      47     Au       1         10.999999                              0.000001
      48     Au       1         11.000000                              0.000000
      49     Au       1         10.999999                              0.000001
      50     Au       1         10.999999                              0.000001
      51     Au       1         10.999999                              0.000001
      52     Au       1         10.999999                              0.000001
      53     Au       1         11.000000                              0.000000
      54     Au       1         11.000000                              0.000000
      55     Au       1         11.000001                             -0.000001
      56     Au       1         11.000001                             -0.000001
      57     Au       1         11.000001                             -0.000001
      58     Au       1         11.000001                             -0.000001
      59     Au       1         11.000001                             -0.000001
      60     Au       1         11.000001                             -0.000001
      61     Au       1         11.000001                             -0.000001
      62     Au       1         11.000001                             -0.000001
      63     Au       1         11.000001                             -0.000001
      64     Au       1         11.000001                             -0.000001
      65     Au       1         11.000001                             -0.000001
      66     Au       1         11.000001                             -0.000001
      67     Au       1         11.000001                             -0.000001
      68     Au       1         11.000001                             -0.000001
      69     Au       1         11.000001                             -0.000001
      70     Au       1         11.000000                             -0.000000
      71     Au       1         11.000001                             -0.000001
      72     Au       1         11.000000                             -0.000000
 # Total charge                            792.000000                 -0.000000

 !-----------------------------------------------------------------------------!

 !-----------------------------------------------------------------------------!
                           Hirshfeld Charges

  #Atom  Element  Kind  Ref Charge     Population                    Net charge
      1       Au     1      11.000         11.000                         0.000
      2       Au     1      11.000         11.000                        -0.000
      3       Au     1      11.000         11.000                         0.000
      4       Au     1      11.000         11.000                        -0.000
      5       Au     1      11.000         11.000                        -0.000
      6       Au     1      11.000         11.000                         0.000
      7       Au     1      11.000         11.000                         0.000
      8       Au     1      11.000         11.000                        -0.000
      9       Au     1      11.000         11.000                         0.000
     10       Au     1      11.000         11.000                        -0.000
     11       Au     1      11.000         11.000                         0.000
     12       Au     1      11.000         11.000                         0.000
     13       Au     1      11.000         11.000                        -0.000
     14       Au     1      11.000         11.000                        -0.000
     15       Au     1      11.000         11.000                         0.000
     16       Au     1      11.000         11.000                         0.000
     17       Au     1      11.000         11.000                        -0.000
     18       Au     1      11.000         11.000                         0.000
     19       Au     1      11.000         11.000                         0.000
     20       Au     1      11.000         11.000                        -0.000
     21       Au     1      11.000         11.000                        -0.000
     22       Au     1      11.000         11.000                         0.000
     23       Au     1      11.000         11.000                         0.000
     24       Au     1      11.000         11.000                         0.000
     25       Au     1      11.000         11.000                        -0.000
     26       Au     1      11.000         11.000                        -0.000
     27       Au     1      11.000         11.000                        -0.000
     28       Au     1      11.000         11.000                         0.000
     29       Au     1      11.000         11.000                        -0.000
     30       Au     1      11.000         11.000                         0.000
     31       Au     1      11.000         11.000                         0.000
     32       Au     1      11.000         11.000                         0.000
     33       Au     1      11.000         11.000                        -0.000
     34       Au     1      11.000         11.000                         0.000
     35       Au     1      11.000         11.000                         0.000
     36       Au     1      11.000         11.000                        -0.000
     37       Au     1      11.000         11.000                        -0.000
     38       Au     1      11.000         11.000                         0.000
     39       Au     1      11.000         11.000                        -0.000
     40       Au     1      11.000         11.000                         0.000
     41       Au     1      11.000         11.000                         0.000
     42       Au     1      11.000         11.000                        -0.000
     43       Au     1      11.000         11.000                        -0.000
     44       Au     1      11.000         11.000                        -0.000
     45       Au     1      11.000         11.000                         0.000
     46       Au     1      11.000         11.000                         0.000
     47       Au     1      11.000         11.000                         0.000
     48       Au     1      11.000         11.000                        -0.000
     49       Au     1      11.000         11.000                         0.000
     50       Au     1      11.000         11.000                         0.000
     51       Au     1      11.000         11.000                         0.000
     52       Au     1      11.000         11.000                         0.000
     53       Au     1      11.000         11.000                        -0.000
     54       Au     1      11.000         11.000                        -0.000
     55       Au     1      11.000         11.000                        -0.000
     56       Au     1      11.000         11.000                        -0.000
     57       Au     1      11.000         11.000                         0.000
     58       Au     1      11.000         11.000                        -0.000
     59       Au     1      11.000         11.000                         0.000
     60       Au     1      11.000         11.000                         0.000
     61       Au     1      11.000         11.000                        -0.000
     62       Au     1      11.000         11.000                         0.000
     63       Au     1      11.000         11.000                        -0.000
     64       Au     1      11.000         11.000                         0.000
     65       Au     1      11.000         11.000                        -0.000
     66       Au     1      11.000         11.000                         0.000
     67       Au     1      11.000         11.000                         0.000
     68       Au     1      11.000         11.000                        -0.000
     69       Au     1      11.000         11.000                        -0.000
     70       Au     1      11.000         11.000                         0.000
     71       Au     1      11.000         11.000                         0.000
     72       Au     1      11.000         11.000                         0.000

  Total Charge                                                           -0.000
 !-----------------------------------------------------------------------------!

 BULKTRANSP| E_FERMI [a.u.] =                                   3.3939638881E-01
 BULKTRANSP| HartreeLeadsBottom [eV] =                         -1.0877738204E+01

 ENERGY| Total FORCE_EVAL ( QS ) energy [a.u.]:            -2396.467701547927390

 -------------------------------------------------------------------------------
 -                                                                             -
 -                                DBCSR STATISTICS                             -
 -                                                                             -
 -------------------------------------------------------------------------------
 COUNTER                                    TOTAL       BLAS       SMM       ACC
 flops inhomo. stacks                           0       0.0%      0.0%      0.0%
 flops total                         0.000000E+00       0.0%      0.0%      0.0%
 flops max/rank                      0.000000E+00       0.0%      0.0%      0.0%
 matmuls inhomo. stacks                         0       0.0%      0.0%      0.0%
 matmuls total                                  0       0.0%      0.0%      0.0%
 number of processed stacks                     0       0.0%      0.0%      0.0%
 average stack size                                     0.0       0.0       0.0
 marketing flops                     0.000000E+00
 -------------------------------------------------------------------------------
 -                                                                             -
 -                      DBCSR MESSAGE PASSING PERFORMANCE                      -
 -                                                                             -
 -------------------------------------------------------------------------------
 ROUTINE             CALLS      AVE VOLUME [Bytes]
 MP_Bcast                1                     12.
 MP_Allreduce          966                      8.
 MP_Alltoall         28912                 169616.
 -------------------------------------------------------------------------------

 -------------------------------------------------------------------------------
 -                                                                             -
 -                                DBM STATISTICS                               -
 -                                                                             -
 -------------------------------------------------------------------------------
    M  x    N  x    K                                          COUNT     PERCENT
 -------------------------------------------------------------------------------

 -------------------------------------------------------------------------------
 -                                                                             -
 -                                GRID STATISTICS                              -
 -                                                                             -
 -------------------------------------------------------------------------------
 LP    KERNEL             BACKEND                              COUNT     PERCENT
 4     collocate ortho    REF                                 843264      44.15%
 4     integrate ortho    REF                                 772992      40.47%
 0     collocate general  REF                                 155520       8.14%
 0     integrate general  REF                                 138240       7.24%
 -------------------------------------------------------------------------------

 MEMORY| Estimated peak process memory [MiB]                                 550

 -------------------------------------------------------------------------------
 ----                             MULTIGRID INFO                            ----
 -------------------------------------------------------------------------------
 count for grid        1:          44424          cutoff [a.u.]          200.00
 count for grid        2:         128952          cutoff [a.u.]           66.67
 count for grid        3:          63648          cutoff [a.u.]           22.22
 count for grid        4:          63648          cutoff [a.u.]            7.41
 total gridlevel count  :         300672

 -------------------------------------------------------------------------------
 -                                                                             -
 -                         MESSAGE PASSING PERFORMANCE                         -
 -                                                                             -
 -------------------------------------------------------------------------------

 ROUTINE             CALLS      AVE VOLUME [Bytes]
 MP_Group                5
 MP_Bcast            13905                  17297.
 MP_Allreduce         1018                   2034.
 MP_Sync               142
 MP_Alltoall           223
 MP_ISendRecv        10994                   2460.
 MP_Wait             22917
 MP_ISend            17735                  10134.
 MP_IRecv            18023                  10019.
 MP_Recv               860                 165888.
 MP_Write_All            2                 143832.
 -------------------------------------------------------------------------------


 -------------------------------------------------------------------------------
 -                                                                             -
 -                           R E F E R E N C E S                               -
 -                                                                             -
 -------------------------------------------------------------------------------
 
 CP2K version 2022.1 (Development Version), the CP2K developers group (2022).
 CP2K is freely available from https://www.cp2k.org/ .

 Kuehne,Thomas D.; Iannuzzi,Marcella; Del Ben,Mauro;
 Rybkin,Vladimir V.; Seewald,Patrick; Stein,Frederick; Laino,Teodoro;
 Khaliullin,Rustam Z.; Schuett,Ole; Schiffmann,Florian; Golze,Dorothea;
 Wilhelm,Jan; Chulkov,Sergey; Bani-Hashemian,Mohammad Hossein;
 Weber,Valery; Borstnik,Urban; Taillefumier,Mathieu;
 Jakobovits,Alice Shoshana; Lazzaro,Alfio; Pabst,Hans; Mueller,Tiziano;
 Schade,Robert; Guidon,Manuel; Andermatt,Samuel; Holmberg,Nico;
 Schenter,Gregory K.; Hehn,Anna; Bussy,Augustin; Belleflamme,Fabian;
 Tabacchi,Gloria; Gloess,Andreas; Lass,Michael; Bethune,Iain;
 Mundy,Christopher J.; Plessl,Christian; Watkins,Matt;
 VandeVondele,Joost; Krack,Matthias; Hutter,Juerg. 
 The Journal of Chemical Physics, 152 (19), (2020). 
 CP2K: An electronic structure and molecular dynamics software package -
 Quickstep: Efficient and accurate electronic structure calculations.
 https://doi.org/10.1063/5.0007045

 Togo, Atsushi; Tanaka, Isao. arXiv, 1808.01590 (2018). 
 Spglib : a software library for crystal symmetry search.
 https://doi.org/xxx

 Schuett, Ole; Messmer, Peter; Hutter, Juerg; VandeVondele, Joost. 
 Electronic Structure Calculations on Graphics Processing Units, John
 Wiley & Sons, Ltd, 173-190 (2016). 
 GPU-Accelerated Sparse Matrix-Matrix Multiplication for
 Linear Scaling Density Functional Theory.
 https://doi.org/10.1002/9781118670712.ch8

 Heinecke, A; Henry, G; Hutchinson, M; Pabst, H. 
 Proceedings of Intl. Supercomputing Conference, 981-991 (2016). 
 LIBXSMM: Accelerating Small Matrix Multiplications
 by Runtime Code Generation.
 https://doi.org/10.1109/SC.2016.83

 Borstnik, U; VandeVondele, J; Weber, V; Hutter, J. 
 PARALLEL COMPUTING, 40 (5-6), 47-58 (2014). 
 Sparse matrix multiplication: The distributed block-compressed sparse
 row library.
 https://doi.org/10.1016/j.parco.2014.03.012

 Hutter, J; Iannuzzi, M; Schiffmann, F; VandeVondele, J. 
 WIREs Comput Mol Sci., 4 (1), 15-25 (2014). 
 CP2K: atomistic simulations of condensed matter systems.
 https://doi.org/10.1002/wcms.1159

 VandeVondele, J; Hutter, J. 
 JOURNAL OF CHEMICAL PHYSICS, 127 (11), 114105 (2007). 
 Gaussian basis sets for accurate calculations on molecular systems in
 gas and condensed phases.
 https://doi.org/10.1063/1.2770708

 Krack, M. 
 THEORETICAL CHEMISTRY ACCOUNTS, 114 (1-3), 145-152 (2005). 
 Pseudopotentials for H to Kr optimized for gradient-corrected
 exchange-correlation functionals.
 https://doi.org/10.1007/s00214-005-0655-y

 VandeVondele, J; Krack, M; Mohamed, F; Parrinello, M; Chassaing, T;
 Hutter, J. COMPUTER PHYSICS COMMUNICATIONS, 167 (2), 103-128 (2005). 
 QUICKSTEP: Fast and accurate density functional calculations using a
 mixed Gaussian and plane waves approach.
 https://doi.org/10.1016/j.cpc.2004.12.014

 Frigo, M; Johnson, SG. 
 PROCEEDINGS OF THE IEEE, 93 (2), 216-231 (2005). 
 The design and implementation of FFTW3.
 https://doi.org/10.1109/JPROC.2004.840301

 Hartwigsen, C; Goedecker, S; Hutter, J. 
 PHYSICAL REVIEW B, 58 (7), 3641-3662 (1998). 
 Relativistic separable dual-space Gaussian pseudopotentials from H to Rn.
 https://doi.org/10.1103/PhysRevB.58.3641

 Lippert, G; Hutter, J; Parrinello, M. 
 MOLECULAR PHYSICS, 92 (3), 477-487 (1997). 
 A hybrid Gaussian and plane wave density functional scheme.
 https://doi.org/10.1080/002689797170220

 Goedecker, S; Teter, M; Hutter, J. 
 PHYSICAL REVIEW B, 54 (3), 1703-1710 (1996). 
 Separable dual-space Gaussian pseudopotentials.
 https://doi.org/10.1103/PhysRevB.54.1703


 -------------------------------------------------------------------------------
 -                                                                             -
 -                                T I M I N G                                  -
 -                                                                             -
 -------------------------------------------------------------------------------
 SUBROUTINE                       CALLS  ASD         SELF TIME        TOTAL TIME
                                MAXIMUM       AVERAGE  MAXIMUM  AVERAGE  MAXIMUM
 CP2K                                 1  1.0    0.033    0.040   88.374   88.377
 qs_energies                          1  2.0    0.000    0.001   87.972   88.190
 scf_env_do_scf                       1  3.0    0.000    0.000   64.593   64.616
 scf_env_do_scf_inner_loop           11  4.0    0.001    0.059   64.592   64.616
 qs_scf_new_mos_kp                   11  5.0    0.000    0.000   62.243   62.244
 do_general_diag_kp                  11  6.0    0.008    0.010   62.243   62.244
 cp_cfm_geeig                       341  7.0    0.004    0.005   49.155   49.169
 cp_cfm_heevd                       341  8.0   43.957   44.057   43.957   44.057
 run_smeagol_bulktrans                1  3.0    0.096   20.808   21.861   22.077
 convert_dbcsr_to_replsiesta          4  4.0    0.136    0.223   21.254   21.397
 mp_sum_iv                           26  5.5   20.584   20.790   20.584   20.790
 copy_dbcsr_to_fm                  1407  7.0    0.012    0.013    5.281    5.371
 dbcsr_desymmetrize_deep           2771  7.5    0.049    0.066    4.560    4.657
 dbcsr_complete_redistribute       2151  8.3    0.086    0.111    4.275    4.344
 mp_alltoall_d11v                 14789  9.4    3.727    4.329    3.727    4.329
 mp_alltoall_i11v                  9224  9.0    3.117    3.345    3.117    3.345
 cp_fm_start_copy_general          2108  7.3    0.061    0.090    3.146    3.220
 mp_allgather_i                    4216  8.3    2.831    2.983    2.831    2.983
 cp_cfm_cholesky_decompose          341  8.0    2.619    2.752    2.619    2.752
 hybrid_alltoall_any               2771  8.5    0.012    0.012    2.038    2.382
 kpoint_density_transform            12  6.8    0.002    0.003    2.351    2.354
 mp_alltoall_i22                   4922  8.8    1.385    2.297    1.385    2.297
 -------------------------------------------------------------------------------

 The number of warnings for this run is : 0
 
 -------------------------------------------------------------------------------
  **** **** ******  **  PROGRAM ENDED AT                 2023-02-17 15:08:35.678
 ***** ** ***  *** **   PROGRAM RAN ON                     cn1000.scarf.rl.ac.uk
 **    ****   ******    PROGRAM RAN BY                                 scarf1157
 ***** **    ** ** **   PROGRAM PROCESS ID                                 19731
  **** **  *******  **  PROGRAM STOPPED IN /work4/scd/scarf1157/work/testing/cp2
                                           k-smeagol/bdt/cp2k/hollow-site/transp
                                           ort-cp2k/5-4/geometry-ordered/3x3-4/s
                                           z/kpoints_bulk-31_em-4-4-1_sz-all
