 DBCSR| CPU Multiplication driver                                           XSMM
 DBCSR| Multrec recursion limit                                              512
 DBCSR| Multiplication stack size                                           1000
 DBCSR| Maximum elements for images                                    UNLIMITED
 DBCSR| Multiplicative factor virtual images                                   1
 DBCSR| Use multiplication densification                                       T
 DBCSR| Multiplication size stacks                                             3
 DBCSR| Use memory pool for CPU allocation                                     F
 DBCSR| Number of 3D layers                                               SINGLE
 DBCSR| Use MPI memory allocation                                              F
 DBCSR| Use RMA algorithm                                                      F
 DBCSR| Use Communication thread                                               T
 DBCSR| Communication thread load                                             87
 DBCSR| MPI: My node id                                                        0
 DBCSR| MPI: Number of nodes                                                 240
 DBCSR| OMP: Current number of threads                                         1
 DBCSR| OMP: Max number of threads                                             1
 DBCSR| Split modifier for TAS multiplication algorithm                  1.0E+00


  **** **** ******  **  PROGRAM STARTED AT               2023-02-17 15:08:37.399
 ***** ** ***  *** **   PROGRAM STARTED ON                 cn1000.scarf.rl.ac.uk
 **    ****   ******    PROGRAM STARTED BY                             scarf1157
 ***** **    ** ** **   PROGRAM PROCESS ID                                 20449
  **** **  *******  **  PROGRAM STARTED IN /work4/scd/scarf1157/work/testing/cp2
                                           k-smeagol/bdt/cp2k/hollow-site/transp
                                           ort-cp2k/5-4/geometry-ordered/3x3-4/s
                                           z/kpoints_bulk-31_em-4-4-1_sz-all

 CP2K| version string:                 CP2K version 2022.1 (Development Version)
 CP2K| source code revision number:                                  git:1ef701d
 CP2K| cp2kflags: omp fftw3 libxc parallel mpi3 scalapack xsmm spglib           
 CP2K| is freely available from                            https://www.cp2k.org/
 CP2K| Program compiled at                          Thu 26 Jan 13:39:53 GMT 2023
 CP2K| Program compiled on                                 cn1108.scarf.rl.ac.uk
 CP2K| Program compiled for                                                local
 CP2K| Data directory path    /home/vol07/scarf1157/code/smeagol/cp2k-smeagol/sc
 CP2K| Input file name                                             2_dft_wfn.inp

 GLOBAL| Force Environment number                                              1
 GLOBAL| Basis set file name                                        BASIS_MOLOPT
 GLOBAL| Potential file name                                      GTH_POTENTIALS
 GLOBAL| MM Potential file name                                     MM_POTENTIAL
 GLOBAL| Coordinate file name                                             em.xyz
 GLOBAL| Method name                                                        CP2K
 GLOBAL| Project name                                                    dft_wfn
 GLOBAL| Run type                                                         ENERGY
 GLOBAL| FFT library                                                       FFTW3
 GLOBAL| Diagonalization library                                       ScaLAPACK
 GLOBAL| Orthonormality check for eigenvectors                          DISABLED
 GLOBAL| Matrix multiplication library                                 ScaLAPACK
 GLOBAL| All-to-all communication in single precision                          F
 GLOBAL| FFTs using library dependent lengths                                  T
 GLOBAL| Grid backend                                                       AUTO
 GLOBAL| Global print level                                               MEDIUM
 GLOBAL| MPI I/O enabled                                                       T
 GLOBAL| Total number of message passing processes                           240
 GLOBAL| Number of threads for this process                                    1
 GLOBAL| This output is from process                                           0
 GLOBAL| Stack size for threads created by OpenMP (OMP_STACKSIZE)        default
 GLOBAL| CPU model name                         AMD EPYC 7502P 32-Core Processor
 GLOBAL| CPUID                                                              1002

 MEMORY| system memory details [Kb]
 MEMORY|                        rank 0           min           max       average
 MEMORY| MemTotal            263897776     263896980     263897776     263897081
 MEMORY| MemFree              53736992      53736668     233672488     174107160
 MEMORY| Buffers                  2492          2488          2952          2595
 MEMORY| Cached              190801736      14997708     190801736      74256964
 MEMORY| Slab                  1681896       1028184       2077884       1318718
 MEMORY| SReclaimable          1135900        523668       1540256        797554
 MEMORY| MemLikelyFree       245677120     245676796     253676996     249164273


 *** Fundamental physical constants (SI units) ***

 *** Literature: B. J. Mohr and B. N. Taylor,
 ***             CODATA recommended values of the fundamental physical
 ***             constants: 2006, Web Version 5.1
 ***             http://physics.nist.gov/constants

 Speed of light in vacuum [m/s]                             2.99792458000000E+08
 Magnetic constant or permeability of vacuum [N/A**2]       1.25663706143592E-06
 Electric constant or permittivity of vacuum [F/m]          8.85418781762039E-12
 Planck constant (h) [J*s]                                  6.62606896000000E-34
 Planck constant (h-bar) [J*s]                              1.05457162825177E-34
 Elementary charge [C]                                      1.60217648700000E-19
 Electron mass [kg]                                         9.10938215000000E-31
 Electron g factor [ ]                                     -2.00231930436220E+00
 Proton mass [kg]                                           1.67262163700000E-27
 Fine-structure constant                                    7.29735253760000E-03
 Rydberg constant [1/m]                                     1.09737315685270E+07
 Avogadro constant [1/mol]                                  6.02214179000000E+23
 Boltzmann constant [J/K]                                   1.38065040000000E-23
 Atomic mass unit [kg]                                      1.66053878200000E-27
 Bohr radius [m]                                            5.29177208590000E-11

 *** Conversion factors ***

 [u] -> [a.u.]                                              1.82288848426455E+03
 [Angstrom] -> [Bohr] = [a.u.]                              1.88972613288564E+00
 [a.u.] = [Bohr] -> [Angstrom]                              5.29177208590000E-01
 [a.u.] -> [s]                                              2.41888432650478E-17
 [a.u.] -> [fs]                                             2.41888432650478E-02
 [a.u.] -> [J]                                              4.35974393937059E-18
 [a.u.] -> [N]                                              8.23872205491840E-08
 [a.u.] -> [K]                                              3.15774647902944E+05
 [a.u.] -> [kJ/mol]                                         2.62549961709828E+03
 [a.u.] -> [kcal/mol]                                       6.27509468713739E+02
 [a.u.] -> [Pa]                                             2.94210107994716E+13
 [a.u.] -> [bar]                                            2.94210107994716E+08
 [a.u.] -> [atm]                                            2.90362800883016E+08
 [a.u.] -> [eV]                                             2.72113838565563E+01
 [a.u.] -> [Hz]                                             6.57968392072181E+15
 [a.u.] -> [1/cm] (wave numbers)                            2.19474631370540E+05
 [a.u./Bohr**2] -> [1/cm]                                   5.14048714338585E+03
 

 CELL_TOP| Volume [angstrom^3]:                                      4009.343578
 CELL_TOP| Vector a [angstrom    12.514     0.000     0.000   |a| =    12.513863
 CELL_TOP| Vector b [angstrom     0.000    12.514     0.000   |b| =    12.513863
 CELL_TOP| Vector c [angstrom     0.000     0.000    25.603   |c| =    25.602980
 CELL_TOP| Angle (b,c), alpha [degree]:                                90.000000
 CELL_TOP| Angle (a,c), beta  [degree]:                                90.000000
 CELL_TOP| Angle (a,b), gamma [degree]:                                90.000000
 CELL_TOP| Numerically orthorhombic:                                         YES
 CELL_TOP| Periodicity                                                       XYZ

 GENERATE|  Preliminary Number of Bonds generated:                             0
 GENERATE|  Achieved consistency in connectivity generation.

 CELL| Volume [angstrom^3]:                                          4009.343578
 CELL| Vector a [angstrom]:      12.514     0.000     0.000   |a| =    12.513863
 CELL| Vector b [angstrom]:       0.000    12.514     0.000   |b| =    12.513863
 CELL| Vector c [angstrom]:       0.000     0.000    25.603   |c| =    25.602980
 CELL| Angle (b,c), alpha [degree]:                                    90.000000
 CELL| Angle (a,c), beta  [degree]:                                    90.000000
 CELL| Angle (a,b), gamma [degree]:                                    90.000000
 CELL| Numerically orthorhombic:                                             YES
 CELL| Periodicity                                                           XYZ

 CELL_REF| Volume [angstrom^3]:                                      4009.343578
 CELL_REF| Vector a [angstrom    12.514     0.000     0.000   |a| =    12.513863
 CELL_REF| Vector b [angstrom     0.000    12.514     0.000   |b| =    12.513863
 CELL_REF| Vector c [angstrom     0.000     0.000    25.603   |c| =    25.602980
 CELL_REF| Angle (b,c), alpha [degree]:                                90.000000
 CELL_REF| Angle (a,c), beta  [degree]:                                90.000000
 CELL_REF| Angle (a,b), gamma [degree]:                                90.000000
 CELL_REF| Numerically orthorhombic:                                         YES
 CELL_REF| Periodicity                                                       XYZ

 *******************************************************************************
                                    Kpoints
 *******************************************************************************
 BRILLOUIN| K-point scheme                                        Monkhorst-Pack
 BRILLOUIN| K-Point grid                                             4    4    1
 BRILLOUIN| Accuracy in Symmetry determination                      0.100000E-07
 BRILLOUIN| K-Point point group symmetrization                               OFF
 BRILLOUIN| Wavefunction type                                            COMPLEX
 BRILLOUIN| Use full k-point grid     
 BRILLOUIN| List of Kpoints [2 Pi/Bohr]                                       16
 BRILLOUIN| Number           Weight            X              Y              Z
 BRILLOUIN|     1           0.06250       -0.37500       -0.37500        0.00000
 BRILLOUIN|     2           0.06250       -0.37500       -0.12500        0.00000
 BRILLOUIN|     3           0.06250       -0.37500        0.12500        0.00000
 BRILLOUIN|     4           0.06250       -0.37500        0.37500        0.00000
 BRILLOUIN|     5           0.06250       -0.12500       -0.37500        0.00000
 BRILLOUIN|     6           0.06250       -0.12500       -0.12500        0.00000
 BRILLOUIN|     7           0.06250       -0.12500        0.12500        0.00000
 BRILLOUIN|     8           0.06250       -0.12500        0.37500        0.00000
 BRILLOUIN|     9           0.06250        0.12500       -0.37500        0.00000
 BRILLOUIN|    10           0.06250        0.12500       -0.12500        0.00000
 BRILLOUIN|    11           0.06250        0.12500        0.12500        0.00000
 BRILLOUIN|    12           0.06250        0.12500        0.37500        0.00000
 BRILLOUIN|    13           0.06250        0.37500       -0.37500        0.00000
 BRILLOUIN|    14           0.06250        0.37500       -0.12500        0.00000
 BRILLOUIN|    15           0.06250        0.37500        0.12500        0.00000
 BRILLOUIN|    16           0.06250        0.37500        0.37500        0.00000
 *******************************************************************************

 *******************************************************************************
 *******************************************************************************
 **                                                                           **
 **     #####                         ##              ##                      **
 **    ##   ##            ##          ##              ##                      **
 **   ##     ##                       ##            ######                    **
 **   ##     ##  ##   ##  ##   #####  ##  ##   ####   ##    #####    #####    **
 **   ##     ##  ##   ##  ##  ##      ## ##   ##      ##   ##   ##  ##   ##   **
 **   ##  ## ##  ##   ##  ##  ##      ####     ###    ##   ######   ######    **
 **    ##  ###   ##   ##  ##  ##      ## ##      ##   ##   ##       ##        **
 **     #######   #####   ##   #####  ##  ##  ####    ##    #####   ##        **
 **           ##                                                    ##        **
 **                                                                           **
 **                                                ... make the atoms dance   **
 **                                                                           **
 **            Copyright (C) by CP2K developers group (2000-2022)             **
 **                      J. Chem. Phys. 152, 194103 (2020)                    **
 **                                                                           **
 *******************************************************************************

 DFT| Spin restricted Kohn-Sham (RKS) calculation                            RKS
 DFT| Multiplicity                                                             1
 DFT| Number of spin states                                                    1
 DFT| Charge                                                                   0
 DFT| Self-interaction correction (SIC)                                       NO
 DFT| Cutoffs: density                                              1.000000E-10
 DFT|          gradient                                             1.000000E-10
 DFT|          tau                                                  1.000000E-10
 DFT|          cutoff_smoothing_range                               0.000000E+00
 DFT| XC density smoothing                                                  NONE
 DFT| XC derivatives                                                          PW

 FUNCTIONAL| PADE:
 FUNCTIONAL| S. Goedecker, M. Teter and J. Hutter, Phys. Rev. B 54, 1703 (1996) 


 QS| Method:                                                                 GPW
 QS| Density plane wave grid type                        NON-SPHERICAL FULLSPACE
 QS| Number of grid levels:                                                    4
 QS| Density cutoff [a.u.]:                                                200.0
 QS| Multi grid cutoff [a.u.]: 1) grid level                               200.0
 QS|                           2) grid level                                66.7
 QS|                           3) grid level                                22.2
 QS|                           4) grid level                                 7.4
 QS| Grid level progression factor:                                          3.0
 QS| Relative density cutoff [a.u.]:                                        20.0
 QS| Interaction thresholds: eps_pgf_orb:                                1.0E-05
 QS|                         eps_filter_matrix:                          0.0E+00
 QS|                         eps_core_charge:                            1.0E-12
 QS|                         eps_rho_gspace:                             1.0E-10
 QS|                         eps_rho_rspace:                             1.0E-10
 QS|                         eps_gvg_rspace:                             1.0E-05
 QS|                         eps_ppl:                                    1.0E-02
 QS|                         eps_ppnl:                                   1.0E-07


 ATOMIC KIND INFORMATION

  1. Atomic kind: Au                                    Number of atoms:     162

     Orbital Basis Set                                         SZV-MOLOPT-SR-GTH

       Number of orbital shell sets:                                           1
       Number of orbital shells:                                               3
       Number of primitive Cartesian functions:                                5
       Number of Cartesian basis functions:                                   10
       Number of spherical basis functions:                                    9
       Norm type:                                                              2

       Normalised Cartesian orbitals:

                        Set   Shell   Orbital            Exponent    Coefficient

                          1       1    2s                2.950008       0.074626
                                                         1.563057      -0.007898
                                                         0.666664      -0.297688
                                                         0.251083       0.136809
                                                         0.081714       0.088198

                          1       2    3px               2.950008       0.148824
                                                         1.563057       0.025430
                                                         0.666664      -0.123003
                                                         0.251083       0.033648
                                                         0.081714       0.059008
                          1       2    3py               2.950008       0.148824
                                                         1.563057       0.025430
                                                         0.666664      -0.123003
                                                         0.251083       0.033648
                                                         0.081714       0.059008
                          1       2    3pz               2.950008       0.148824
                                                         1.563057       0.025430
                                                         0.666664      -0.123003
                                                         0.251083       0.033648
                                                         0.081714       0.059008

                          1       3    4dx2              2.950008      -0.139595
                                                         1.563057       1.319655
                                                         0.666664       0.377081
                                                         0.251083       0.046872
                                                         0.081714       0.001393
                          1       3    4dxy              2.950008      -0.241786
                                                         1.563057       2.285709
                                                         0.666664       0.653124
                                                         0.251083       0.081185
                                                         0.081714       0.002412
                          1       3    4dxz              2.950008      -0.241786
                                                         1.563057       2.285709
                                                         0.666664       0.653124
                                                         0.251083       0.081185
                                                         0.081714       0.002412
                          1       3    4dy2              2.950008      -0.139595
                                                         1.563057       1.319655
                                                         0.666664       0.377081
                                                         0.251083       0.046872
                                                         0.081714       0.001393
                          1       3    4dyz              2.950008      -0.241786
                                                         1.563057       2.285709
                                                         0.666664       0.653124
                                                         0.251083       0.081185
                                                         0.081714       0.002412
                          1       3    4dz2              2.950008      -0.139595
                                                         1.563057       1.319655
                                                         0.666664       0.377081
                                                         0.251083       0.046872
                                                         0.081714       0.001393

       Atomic covalent radius [Angstrom]:                                  1.340

       Atomic van der Waals radius [Angstrom]:                             1.660

     GTH Potential information for                                  GTH-PADE-q11

       Description:                       Goedecker-Teter-Hutter pseudopotential
                                           Goedecker et al., PRB 54, 1703 (1996)
                                          Hartwigsen et al., PRB 58, 3641 (1998)
                                                      Krack, TCA 114, 145 (2005)

       Gaussian exponent of the core charge distribution:               1.436369
       Electronic configuration (s p d ...):                           1   0  10

       Parameters of the local part of the GTH pseudopotential:

                          rloc        C1          C2          C3          C4
                        0.590000   11.604428

       Parameters of the non-local part of the GTH pseudopotential:

                   l      r(l)      h(i,j,l)

                   0    0.521180    2.538614   -1.046137
                                   -1.046137    2.701113
                   1    0.630613    0.394853   -0.869592
                                   -0.869592    2.057831
                   2    0.440706   -4.719070    0.727771
                                    0.727771   -1.650429

  2. Atomic kind: S                                     Number of atoms:       2

     Orbital Basis Set                                         SZV-MOLOPT-SR-GTH

       Number of orbital shell sets:                                           1
       Number of orbital shells:                                               2
       Number of primitive Cartesian functions:                                4
       Number of Cartesian basis functions:                                    4
       Number of spherical basis functions:                                    4
       Norm type:                                                              2

       Normalised Cartesian orbitals:

                        Set   Shell   Orbital            Exponent    Coefficient

                          1       1    2s                2.215855       0.308496
                                                         1.131471       0.138505
                                                         0.410168      -0.373736
                                                         0.140587      -0.040370

                          1       2    3px               2.215855       0.420434
                                                         1.131471      -0.319283
                                                         0.410168      -0.335323
                                                         0.140587      -0.030976
                          1       2    3py               2.215855       0.420434
                                                         1.131471      -0.319283
                                                         0.410168      -0.335323
                                                         0.140587      -0.030976
                          1       2    3pz               2.215855       0.420434
                                                         1.131471      -0.319283
                                                         0.410168      -0.335323
                                                         0.140587      -0.030976

       Atomic covalent radius [Angstrom]:                                  1.020

       Atomic van der Waals radius [Angstrom]:                             1.800

     GTH Potential information for                                   GTH-PADE-q6

       Description:                       Goedecker-Teter-Hutter pseudopotential
                                           Goedecker et al., PRB 54, 1703 (1996)
                                          Hartwigsen et al., PRB 58, 3641 (1998)
                                                      Krack, TCA 114, 145 (2005)

       Gaussian exponent of the core charge distribution:               2.834467
       Electronic configuration (s p d ...):                               2   4

       Parameters of the local part of the GTH pseudopotential:

                          rloc        C1          C2          C3          C4
                        0.420000   -6.554492

       Parameters of the non-local part of the GTH pseudopotential:

                   l      r(l)      h(i,j,l)

                   0    0.361757    7.905303   -1.731881
                                   -1.731881    4.471698
                   1    0.405285    3.866579

  3. Atomic kind: C                                     Number of atoms:       6

     Orbital Basis Set                                         SZV-MOLOPT-SR-GTH

       Number of orbital shell sets:                                           1
       Number of orbital shells:                                               2
       Number of primitive Cartesian functions:                                5
       Number of Cartesian basis functions:                                    4
       Number of spherical basis functions:                                    4
       Norm type:                                                              2

       Normalised Cartesian orbitals:

                        Set   Shell   Orbital            Exponent    Coefficient

                          1       1    2s                5.605331       0.322515
                                                         2.113016       0.213043
                                                         0.769911      -0.209686
                                                         0.348157      -0.219794
                                                         0.128212      -0.022789

                          1       2    3px               5.605331      -0.703879
                                                         2.113016      -0.642521
                                                         0.769911      -0.374851
                                                         0.348157      -0.139743
                                                         0.128212      -0.027849
                          1       2    3py               5.605331      -0.703879
                                                         2.113016      -0.642521
                                                         0.769911      -0.374851
                                                         0.348157      -0.139743
                                                         0.128212      -0.027849
                          1       2    3pz               5.605331      -0.703879
                                                         2.113016      -0.642521
                                                         0.769911      -0.374851
                                                         0.348157      -0.139743
                                                         0.128212      -0.027849

       Atomic covalent radius [Angstrom]:                                  0.770

       Atomic van der Waals radius [Angstrom]:                             1.700

     GTH Potential information for                                   GTH-PADE-q4

       Description:                       Goedecker-Teter-Hutter pseudopotential
                                           Goedecker et al., PRB 54, 1703 (1996)
                                          Hartwigsen et al., PRB 58, 3641 (1998)
                                                      Krack, TCA 114, 145 (2005)

       Gaussian exponent of the core charge distribution:               4.109048
       Electronic configuration (s p d ...):                               2   2

       Parameters of the local part of the GTH pseudopotential:

                          rloc        C1          C2          C3          C4
                        0.348830   -8.513771    1.228432

       Parameters of the non-local part of the GTH pseudopotential:

                   l      r(l)      h(i,j,l)

                   0    0.304553    9.522842
                   1    0.232677

  4. Atomic kind: H                                     Number of atoms:       4

     Orbital Basis Set                                         SZV-MOLOPT-SR-GTH

       Number of orbital shell sets:                                           1
       Number of orbital shells:                                               1
       Number of primitive Cartesian functions:                                5
       Number of Cartesian basis functions:                                    1
       Number of spherical basis functions:                                    1
       Norm type:                                                              2

       Normalised Cartesian orbitals:

                        Set   Shell   Orbital            Exponent    Coefficient

                          1       1    2s               10.068468      -0.133023
                                                         2.680223      -0.177618
                                                         0.791502      -0.258419
                                                         0.239116      -0.107525
                                                         0.082193      -0.014019

       Atomic covalent radius [Angstrom]:                                  0.320

       Atomic van der Waals radius [Angstrom]:                             1.090

     GTH Potential information for                                   GTH-PADE-q1

       Description:                       Goedecker-Teter-Hutter pseudopotential
                                           Goedecker et al., PRB 54, 1703 (1996)
                                          Hartwigsen et al., PRB 58, 3641 (1998)
                                                      Krack, TCA 114, 145 (2005)

       Gaussian exponent of the core charge distribution:              12.500000
       Electronic configuration (s p d ...):                                   1

       Parameters of the local part of the GTH pseudopotential:

                          rloc        C1          C2          C3          C4
                        0.200000   -4.180237    0.725075


 MOLECULE KIND INFORMATION


 All atoms are their own molecule, skipping detailed information


 TOTAL NUMBERS AND MAXIMUM NUMBERS

  Total number of            - Atomic kinds:                                   4
                             - Atoms:                                        174
                             - Shell sets:                                   174
                             - Shells:                                       506
                             - Primitive Cartesian functions:                868
                             - Cartesian basis functions:                   1656
                             - Spherical basis functions:                   1494

  Maximum angular momentum of- Orbital basis functions:                        2
                             - Local part of the GTH pseudopotential:          2
                             - Non-local part of the GTH pseudopotential:      4


 MODULE QUICKSTEP: ATOMIC COORDINATES IN ANGSTROM

   Atom Kind Element         X             Y             Z       Z(eff)     Mass
      1    1 Au   79      0.000000      0.000000      0.000000  11.0000 196.9666
      2    1 Au   79      8.342575      4.171288      0.000000  11.0000 196.9666
      3    1 Au   79      6.256932      6.256932      0.000000  11.0000 196.9666
      4    1 Au   79      4.171288      4.171288      0.000000  11.0000 196.9666
      5    1 Au   79      2.085644      6.256932      0.000000  11.0000 196.9666
      6    1 Au   79      2.085644     10.428219      0.000000  11.0000 196.9666
      7    1 Au   79      4.171288      8.342575      0.000000  11.0000 196.9666
      8    1 Au   79      0.000000      4.171288      0.000000  11.0000 196.9666
      9    1 Au   79      0.000000      8.342575      0.000000  11.0000 196.9666
     10    1 Au   79     10.428219      2.085644      0.000000  11.0000 196.9666
     11    1 Au   79      8.342575      0.000000      0.000000  11.0000 196.9666
     12    1 Au   79      6.256932      2.085644      0.000000  11.0000 196.9666
     13    1 Au   79      8.342575      8.342575      0.000000  11.0000 196.9666
     14    1 Au   79      4.171288      0.000000      0.000000  11.0000 196.9666
     15    1 Au   79      2.085644      2.085644      0.000000  11.0000 196.9666
     16    1 Au   79     10.428219     10.428219      0.000000  11.0000 196.9666
     17    1 Au   79      6.256932     10.428219      0.000000  11.0000 196.9666
     18    1 Au   79     10.428219      6.256932      0.000000  11.0000 196.9666
     19    1 Au   79      6.256932      8.342575      2.085644  11.0000 196.9666
     20    1 Au   79      8.342575     10.428219      2.085644  11.0000 196.9666
     21    1 Au   79      2.085644      8.342575      2.085644  11.0000 196.9666
     22    1 Au   79      0.000000     10.428219      2.085644  11.0000 196.9666
     23    1 Au   79     10.428219      8.342575      2.085644  11.0000 196.9666
     24    1 Au   79      4.171288     10.428219      2.085644  11.0000 196.9666
     25    1 Au   79      8.342575      6.256932      2.085644  11.0000 196.9666
     26    1 Au   79     10.428219      4.171288      2.085644  11.0000 196.9666
     27    1 Au   79      0.000000      2.085644      2.085644  11.0000 196.9666
     28    1 Au   79      4.171288      2.085644      2.085644  11.0000 196.9666
     29    1 Au   79      6.256932      0.000000      2.085644  11.0000 196.9666
     30    1 Au   79      8.342575      2.085644      2.085644  11.0000 196.9666
     31    1 Au   79      2.085644      0.000000      2.085644  11.0000 196.9666
     32    1 Au   79      0.000000      6.256932      2.085644  11.0000 196.9666
     33    1 Au   79      2.085644      4.171288      2.085644  11.0000 196.9666
     34    1 Au   79      4.171288      6.256932      2.085644  11.0000 196.9666
     35    1 Au   79      6.256932      4.171288      2.085644  11.0000 196.9666
     36    1 Au   79     10.428219      0.000000      2.085644  11.0000 196.9666
     37    1 Au   79      8.342575      4.171288      4.171288  11.0000 196.9666
     38    1 Au   79     10.428219      2.085644      4.171288  11.0000 196.9666
     39    1 Au   79      6.256932      6.256932      4.171288  11.0000 196.9666
     40    1 Au   79      2.085644     10.428219      4.171288  11.0000 196.9666
     41    1 Au   79      4.171288      4.171288      4.171288  11.0000 196.9666
     42    1 Au   79      2.085644      6.256932      4.171288  11.0000 196.9666
     43    1 Au   79      4.171288      8.342575      4.171288  11.0000 196.9666
     44    1 Au   79      0.000000      4.171288      4.171288  11.0000 196.9666
     45    1 Au   79      6.256932     10.428219      4.171288  11.0000 196.9666
     46    1 Au   79     10.428219      6.256932      4.171288  11.0000 196.9666
     47    1 Au   79      6.256932      2.085644      4.171288  11.0000 196.9666
     48    1 Au   79      8.342575      8.342575      4.171288  11.0000 196.9666
     49    1 Au   79      4.171288      0.000000      4.171288  11.0000 196.9666
     50    1 Au   79      2.085644      2.085644      4.171288  11.0000 196.9666
     51    1 Au   79     10.428219     10.428219      4.171288  11.0000 196.9666
     52    1 Au   79      0.000000      0.000000      4.171288  11.0000 196.9666
     53    1 Au   79      0.000000      8.342575      4.171288  11.0000 196.9666
     54    1 Au   79      8.342575      0.000000      4.171288  11.0000 196.9666
     55    1 Au   79      6.256932      8.342575      6.256932  11.0000 196.9666
     56    1 Au   79      4.171288     10.428219      6.256932  11.0000 196.9666
     57    1 Au   79     10.428219      8.342575      6.256932  11.0000 196.9666
     58    1 Au   79      2.085644      8.342575      6.256932  11.0000 196.9666
     59    1 Au   79      0.000000     10.428219      6.256932  11.0000 196.9666
     60    1 Au   79      8.342575     10.428219      6.256932  11.0000 196.9666
     61    1 Au   79      4.171288      6.256932      6.256932  11.0000 196.9666
     62    1 Au   79      8.342575      6.256932      6.256932  11.0000 196.9666
     63    1 Au   79     10.428219      4.171288      6.256932  11.0000 196.9666
     64    1 Au   79      2.085644      0.000000      6.256932  11.0000 196.9666
     65    1 Au   79      4.171288      2.085644      6.256932  11.0000 196.9666
     66    1 Au   79      6.256932      0.000000      6.256932  11.0000 196.9666
     67    1 Au   79      8.342575      2.085644      6.256932  11.0000 196.9666
     68    1 Au   79      0.000000      2.085644      6.256932  11.0000 196.9666
     69    1 Au   79      0.000000      6.256932      6.256932  11.0000 196.9666
     70    1 Au   79      2.085644      4.171288      6.256932  11.0000 196.9666
     71    1 Au   79      6.256932      4.171288      6.256932  11.0000 196.9666
     72    1 Au   79     10.428219      0.000000      6.256932  11.0000 196.9666
     73    1 Au   79      8.342575      8.342575      8.342575  11.0000 196.9666
     74    1 Au   79      6.256932     10.428219      8.342575  11.0000 196.9666
     75    1 Au   79      4.171288      8.342575      8.342575  11.0000 196.9666
     76    1 Au   79      2.085644     10.428219      8.342575  11.0000 196.9666
     77    1 Au   79      0.000000      8.342575      8.342575  11.0000 196.9666
     78    1 Au   79     10.428219      6.256932      8.342575  11.0000 196.9666
     79    1 Au   79      8.342575      4.171288      8.342575  11.0000 196.9666
     80    1 Au   79      6.256932      6.256932      8.342575  11.0000 196.9666
     81    1 Au   79      4.171288      4.171288      8.342575  11.0000 196.9666
     82    1 Au   79      2.085644      6.256932      8.342575  11.0000 196.9666
     83    1 Au   79     10.428219      2.085644      8.342575  11.0000 196.9666
     84    1 Au   79      0.000000      4.171288      8.342575  11.0000 196.9666
     85    1 Au   79      4.171288      0.000000      8.342575  11.0000 196.9666
     86    1 Au   79      0.000000      0.000000      8.342575  11.0000 196.9666
     87    1 Au   79      2.085644      2.085644      8.342575  11.0000 196.9666
     88    1 Au   79      6.256932      2.085644      8.342575  11.0000 196.9666
     89    1 Au   79     10.428219     10.428219      8.342575  11.0000 196.9666
     90    1 Au   79      8.342575      0.000000      8.342575  11.0000 196.9666
     91    2 S    16      4.171290      2.085640      9.628096   6.0000  32.0650
     92    2 S    16      4.171290      2.085640     15.974876   6.0000  32.0650
     93    3 C     6      4.157310      2.079570     14.213376   4.0000  12.0107
     94    3 C     6      2.958740      2.073610     13.512906   4.0000  12.0107
     95    3 C     6      5.366590      2.073610     13.512906   4.0000  12.0107
     96    3 C     6      4.174690      2.089490     11.389596   4.0000  12.0107
     97    3 C     6      5.373260      2.095460     12.090056   4.0000  12.0107
     98    3 C     6      2.965410      2.095460     12.090056   4.0000  12.0107
     99    4 H     1      2.062560      2.053310     14.024266   1.0000   1.0079
    100    4 H     1      6.259350      2.053250     14.030186   1.0000   1.0079
    101    4 H     1      6.269440      2.115750     11.578706   1.0000   1.0079
    102    4 H     1      2.072650      2.115820     11.572786   1.0000   1.0079
    103    1 Au   79      0.000000      0.000000     17.260397  11.0000 196.9666
    104    1 Au   79      8.342575      8.342575     17.260397  11.0000 196.9666
    105    1 Au   79      6.256932     10.428219     17.260397  11.0000 196.9666
    106    1 Au   79      4.171288      8.342575     17.260397  11.0000 196.9666
    107    1 Au   79      2.085644     10.428219     17.260397  11.0000 196.9666
    108    1 Au   79      0.000000      8.342575     17.260397  11.0000 196.9666
    109    1 Au   79     10.428219      6.256932     17.260397  11.0000 196.9666
    110    1 Au   79      8.342575      4.171288     17.260397  11.0000 196.9666
    111    1 Au   79      6.256932      6.256932     17.260397  11.0000 196.9666
    112    1 Au   79      4.171288      4.171288     17.260397  11.0000 196.9666
    113    1 Au   79      2.085644      6.256932     17.260397  11.0000 196.9666
    114    1 Au   79      0.000000      4.171288     17.260397  11.0000 196.9666
    115    1 Au   79     10.428219     10.428219     17.260397  11.0000 196.9666
    116    1 Au   79     10.428219      2.085644     17.260397  11.0000 196.9666
    117    1 Au   79      8.342575      0.000000     17.260397  11.0000 196.9666
    118    1 Au   79      6.256932      2.085644     17.260397  11.0000 196.9666
    119    1 Au   79      2.085644      2.085644     17.260397  11.0000 196.9666
    120    1 Au   79      4.171288      0.000000     17.260397  11.0000 196.9666
    121    1 Au   79      0.000000      6.256932     19.346041  11.0000 196.9666
    122    1 Au   79     10.428219      8.342575     19.346041  11.0000 196.9666
    123    1 Au   79      8.342575     10.428219     19.346041  11.0000 196.9666
    124    1 Au   79      0.000000      2.085644     19.346041  11.0000 196.9666
    125    1 Au   79      2.085644      0.000000     19.346041  11.0000 196.9666
    126    1 Au   79      6.256932      8.342575     19.346041  11.0000 196.9666
    127    1 Au   79      2.085644      8.342575     19.346041  11.0000 196.9666
    128    1 Au   79      4.171288     10.428219     19.346041  11.0000 196.9666
    129    1 Au   79      4.171288      2.085644     19.346041  11.0000 196.9666
    130    1 Au   79      6.256932      0.000000     19.346041  11.0000 196.9666
    131    1 Au   79     10.428219      4.171288     19.346041  11.0000 196.9666
    132    1 Au   79      8.342575      6.256932     19.346041  11.0000 196.9666
    133    1 Au   79      6.256932      4.171288     19.346041  11.0000 196.9666
    134    1 Au   79      4.171288      6.256932     19.346041  11.0000 196.9666
    135    1 Au   79      8.342575      2.085644     19.346041  11.0000 196.9666
    136    1 Au   79     10.428219      0.000000     19.346041  11.0000 196.9666
    137    1 Au   79      0.000000     10.428219     19.346041  11.0000 196.9666
    138    1 Au   79      2.085644      4.171288     19.346041  11.0000 196.9666
    139    1 Au   79      4.171288      4.171288     21.431684  11.0000 196.9666
    140    1 Au   79      6.256932      6.256932     21.431684  11.0000 196.9666
    141    1 Au   79      8.342575      4.171288     21.431684  11.0000 196.9666
    142    1 Au   79     10.428219      6.256932     21.431684  11.0000 196.9666
    143    1 Au   79      6.256932     10.428219     21.431684  11.0000 196.9666
    144    1 Au   79      2.085644     10.428219     21.431684  11.0000 196.9666
    145    1 Au   79      4.171288      8.342575     21.431684  11.0000 196.9666
    146    1 Au   79      8.342575      8.342575     21.431684  11.0000 196.9666
    147    1 Au   79      2.085644      6.256932     21.431684  11.0000 196.9666
    148    1 Au   79      0.000000      8.342575     21.431684  11.0000 196.9666
    149    1 Au   79      0.000000      4.171288     21.431684  11.0000 196.9666
    150    1 Au   79     10.428219     10.428219     21.431684  11.0000 196.9666
    151    1 Au   79      4.171288      0.000000     21.431684  11.0000 196.9666
    152    1 Au   79      0.000000      0.000000     21.431684  11.0000 196.9666
    153    1 Au   79      8.342575      0.000000     21.431684  11.0000 196.9666
    154    1 Au   79      6.256932      2.085644     21.431684  11.0000 196.9666
    155    1 Au   79     10.428219      2.085644     21.431684  11.0000 196.9666
    156    1 Au   79      2.085644      2.085644     21.431684  11.0000 196.9666
    157    1 Au   79      8.342575     10.428219     23.517328  11.0000 196.9666
    158    1 Au   79     10.428219      8.342575     23.517328  11.0000 196.9666
    159    1 Au   79      6.256932      8.342575     23.517328  11.0000 196.9666
    160    1 Au   79      4.171288     10.428219     23.517328  11.0000 196.9666
    161    1 Au   79      0.000000      2.085644     23.517328  11.0000 196.9666
    162    1 Au   79      2.085644      0.000000     23.517328  11.0000 196.9666
    163    1 Au   79      2.085644      8.342575     23.517328  11.0000 196.9666
    164    1 Au   79     10.428219      0.000000     23.517328  11.0000 196.9666
    165    1 Au   79     10.428219      4.171288     23.517328  11.0000 196.9666
    166    1 Au   79      8.342575      6.256932     23.517328  11.0000 196.9666
    167    1 Au   79      4.171288      2.085644     23.517328  11.0000 196.9666
    168    1 Au   79      6.256932      4.171288     23.517328  11.0000 196.9666
    169    1 Au   79      4.171288      6.256932     23.517328  11.0000 196.9666
    170    1 Au   79      8.342575      2.085644     23.517328  11.0000 196.9666
    171    1 Au   79      2.085644      4.171288     23.517328  11.0000 196.9666
    172    1 Au   79      0.000000      6.256932     23.517328  11.0000 196.9666
    173    1 Au   79      0.000000     10.428219     23.517328  11.0000 196.9666
    174    1 Au   79      6.256932      0.000000     23.517328  11.0000 196.9666



 SCF PARAMETERS         Density guess:                                    ATOMIC
                        --------------------------------------------------------
                        max_scf:                                             100
                        max_scf_history:                                       0
                        max_diis:                                              4
                        --------------------------------------------------------
                        eps_scf:                                        1.00E-07
                        eps_scf_history:                                0.00E+00
                        eps_diis:                                       1.00E-01
                        eps_eigval:                                     1.00E-05
                        --------------------------------------------------------
                        level_shift [a.u.]:                             0.000000
                        added MOs                                       100    0
                        --------------------------------------------------------
                        Mixing method:                            BROYDEN_MIXING
                                                charge density mixing in g-space
                        --------------------------------------------------------
                        Smear method:                                FERMI_DIRAC
                        Electronic temperature [K]:                        293.0
                        Electronic temperature [a.u.]:                  9.28E-04
                        Accuracy threshold:                             1.00E-10
                        --------------------------------------------------------
                        No outer SCF

 PW_GRID| Information for grid number                                          1
 PW_GRID| Grid distributed over                                   240 processors
 PW_GRID| Real space group dimensions                                    12   20
 PW_GRID| the grid is blocked:                                               YES
 PW_GRID| Cutoff [a.u.]                                                    200.0
 PW_GRID| spherical cutoff:                                                   NO
 PW_GRID|   Bounds   1            -77      76                Points:         154
 PW_GRID|   Bounds   2            -77      76                Points:         154
 PW_GRID|   Bounds   3           -157     157                Points:         315
 PW_GRID| Volume element (a.u.^3)  0.3622E-02     Volume (a.u.^3)     27056.3919
 PW_GRID| Grid span                                                    FULLSPACE
 PW_GRID|   Distribution                         Average         Max         Min
 PW_GRID|   G-Vectors                            31127.2       32032       27720
 PW_GRID|   G-Rays                                 202.1         208         180
 PW_GRID|   Real Space Points                    31127.2       32032       27720

 PW_GRID| Information for grid number                                          2
 PW_GRID| Number of the reference grid                                         1
 PW_GRID| Grid distributed over                                   240 processors
 PW_GRID| Real space group dimensions                                    12   20
 PW_GRID| the grid is blocked:                                                NO
 PW_GRID| Cutoff [a.u.]                                                     66.7
 PW_GRID| spherical cutoff:                                                   NO
 PW_GRID|   Bounds   1            -44      43                Points:          88
 PW_GRID|   Bounds   2            -44      43                Points:          88
 PW_GRID|   Bounds   3            -90      89                Points:         180
 PW_GRID| Volume element (a.u.^3)  0.1941E-01     Volume (a.u.^3)     27056.3919
 PW_GRID| Grid span                                                    FULLSPACE
 PW_GRID|   Distribution                         Average         Max         Min
 PW_GRID|   G-Vectors                             5808.0       18304           0
 PW_GRID|   G-Rays                                  66.0         208           0
 PW_GRID|   Real Space Points                     5808.0        7200        5040

 PW_GRID| Information for grid number                                          3
 PW_GRID| Number of the reference grid                                         1
 PW_GRID| Grid distributed over                                   240 processors
 PW_GRID| Real space group dimensions                                    12   20
 PW_GRID| the grid is blocked:                                                NO
 PW_GRID| Cutoff [a.u.]                                                     22.2
 PW_GRID| spherical cutoff:                                                   NO
 PW_GRID|   Bounds   1            -27      26                Points:          54
 PW_GRID|   Bounds   2            -27      26                Points:          54
 PW_GRID|   Bounds   3            -52      52                Points:         105
 PW_GRID| Volume element (a.u.^3)  0.8837E-01     Volume (a.u.^3)     27056.3919
 PW_GRID| Grid span                                                    FULLSPACE
 PW_GRID|   Distribution                         Average         Max         Min
 PW_GRID|   G-Vectors                             1275.8       11232           0
 PW_GRID|   G-Rays                                  23.6         208           0
 PW_GRID|   Real Space Points                     1275.8        1575         840

 PW_GRID| Information for grid number                                          4
 PW_GRID| Number of the reference grid                                         1
 PW_GRID| Grid distributed over                                   240 processors
 PW_GRID| Real space group dimensions                                    12   20
 PW_GRID| the grid is blocked:                                                NO
 PW_GRID| Cutoff [a.u.]                                                      7.4
 PW_GRID| spherical cutoff:                                                   NO
 PW_GRID|   Bounds   1            -15      14                Points:          30
 PW_GRID|   Bounds   2            -15      14                Points:          30
 PW_GRID|   Bounds   3            -30      29                Points:          60
 PW_GRID| Volume element (a.u.^3)  0.5010         Volume (a.u.^3)     27056.3919
 PW_GRID| Grid span                                                    FULLSPACE
 PW_GRID|   Distribution                         Average         Max         Min
 PW_GRID|   G-Vectors                              225.0        6240           0
 PW_GRID|   G-Rays                                   7.5         208           0
 PW_GRID|   Real Space Points                      225.0         360         120

 POISSON| Solver                                                        PERIODIC
 POISSON| Periodicity                                                        XYZ

 RS_GRID| Information for grid number                                          1
 RS_GRID|   Bounds   1            -77      76                Points:         154
 RS_GRID|   Bounds   2            -77      76                Points:         154
 RS_GRID|   Bounds   3           -157     157                Points:         315
 RS_GRID| Real space distribution over                                  4 groups
 RS_GRID| Real space distribution along direction                              1
 RS_GRID| Border size                                                         29
 RS_GRID| Real space distribution over                                  5 groups
 RS_GRID| Real space distribution along direction                              2
 RS_GRID| Border size                                                         29
 RS_GRID| Real space distribution over                                 12 groups
 RS_GRID| Real space distribution along direction                              3
 RS_GRID| Border size                                                         29
 RS_GRID|   Distribution                         Average         Max         Min
 RS_GRID|   Planes                                  96.5          97          96
 RS_GRID|   Distribution                         Average         Max         Min
 RS_GRID|   Planes                                  88.8          89          88
 RS_GRID|   Distribution                         Average         Max         Min
 RS_GRID|   Planes                                  84.2          85          84

 RS_GRID| Information for grid number                                          2
 RS_GRID|   Bounds   1            -44      43                Points:          88
 RS_GRID|   Bounds   2            -44      43                Points:          88
 RS_GRID|   Bounds   3            -90      89                Points:         180
 RS_GRID| Real space distribution over                                  4 groups
 RS_GRID| Real space distribution along direction                              1
 RS_GRID| Border size                                                         21
 RS_GRID| Real space distribution over                                  5 groups
 RS_GRID| Real space distribution along direction                              2
 RS_GRID| Border size                                                         21
 RS_GRID| Real space distribution over                                 12 groups
 RS_GRID| Real space distribution along direction                              3
 RS_GRID| Border size                                                         21
 RS_GRID|   Distribution                         Average         Max         Min
 RS_GRID|   Planes                                  64.0          64          64
 RS_GRID|   Distribution                         Average         Max         Min
 RS_GRID|   Planes                                  59.6          60          59
 RS_GRID|   Distribution                         Average         Max         Min
 RS_GRID|   Planes                                  57.0          57          57

 RS_GRID| Information for grid number                                          3
 RS_GRID|   Bounds   1            -27      26                Points:          54
 RS_GRID|   Bounds   2            -27      26                Points:          54
 RS_GRID|   Bounds   3            -52      52                Points:         105
 RS_GRID| Real space fully replicated
 RS_GRID| Group size                                                           1

 RS_GRID| Information for grid number                                          4
 RS_GRID|   Bounds   1            -15      14                Points:          30
 RS_GRID|   Bounds   2            -15      14                Points:          30
 RS_GRID|   Bounds   3            -30      29                Points:          60
 RS_GRID| Real space fully replicated
 RS_GRID| Group size                                                           1

 KPOINTS| Number of kpoint groups                                              1
 KPOINTS| Size of each kpoint group                                          240
 KPOINTS| Number of kpoints per group                                         16

 Number of electrons:                                                       1822
 Number of occupied orbitals:                                                911
 Number of molecular orbitals:                                              1011

 Number of orbital functions:                                               1494
 Number of independent orbital functions:                                   1494

 Extrapolation method: initial_guess

 Atomic guess: The first density matrix is obtained in terms of atomic orbitals
               and electronic configurations assigned to each atomic kind

 Guess for atomic kind: Au

 Electronic structure
    Total number of core electrons                                         68.00
    Total number of valence electrons                                      11.00
    Total number of electrons                                              79.00
    Multiplicity                                                   not specified
    S   [  2.00  2.00  2.00  2.00  2.00] 1.00
    P   [  6.00  6.00  6.00  6.00]
    D   [ 10.00 10.00]10.00
    F   [ 14.00]


 *******************************************************************************
                  Iteration          Convergence                     Energy [au]
 *******************************************************************************
                          1         0.00000                     -33.033218197848

 Energy components [Hartree]           Total Energy ::          -33.033218197848
                                        Band Energy ::           -1.147505983145
                                     Kinetic Energy ::           24.744064437587
                                   Potential Energy ::          -57.777282635435
                                      Virial (-V/T) ::            2.334995642336
                                        Core Energy ::          -60.197309615488
                                          XC Energy ::           -5.116883226844
                                     Coulomb Energy ::           32.280974644483
                       Total Pseudopotential Energy ::          -85.042885173964
                       Local Pseudopotential Energy ::          -66.341694915099
                    Nonlocal Pseudopotential Energy ::          -18.701190258865
                                        Confinement ::            1.015111208892

 Orbital energies  State     L     Occupation   Energy[a.u.]          Energy[eV]

                       1     0          1.000      -0.213792           -5.817572

                       1     2         10.000      -0.093371           -2.540765


 Total Electron Density at R=0:                                         0.000035

 Guess for atomic kind: S

 Electronic structure
    Total number of core electrons                                         10.00
    Total number of valence electrons                                       6.00
    Total number of electrons                                              16.00
    Multiplicity                                                   not specified
    S   [  2.00  2.00] 2.00
    P   [  6.00] 4.00


 *******************************************************************************
                  Iteration          Convergence                     Energy [au]
 *******************************************************************************
                          1         0.00000                      -9.853460757856

 Energy components [Hartree]           Total Energy ::           -9.853460757856
                                        Band Energy ::           -2.356337656970
                                     Kinetic Energy ::            4.823553161963
                                   Potential Energy ::          -14.677013919818
                                      Virial (-V/T) ::            3.042780586634
                                        Core Energy ::          -17.027141804256
                                          XC Energy ::           -2.306120006027
                                     Coulomb Energy ::            9.479801052427
                       Total Pseudopotential Energy ::          -21.894561428820
                       Local Pseudopotential Energy ::          -24.454849976053
                    Nonlocal Pseudopotential Energy ::            2.560288547233
                                        Confinement ::            0.438664626013

 Orbital energies  State     L     Occupation   Energy[a.u.]          Energy[eV]

                       1     0          2.000      -0.651558          -17.729806

                       1     1          4.000      -0.263305           -7.164899


 Total Electron Density at R=0:                                         0.002164

 Guess for atomic kind: C

 Electronic structure
    Total number of core electrons                                          2.00
    Total number of valence electrons                                       4.00
    Total number of electrons                                               6.00
    Multiplicity                                                   not specified
    S   [  2.00] 2.00
    P      2.00


 *******************************************************************************
                  Iteration          Convergence                     Energy [au]
 *******************************************************************************
                          1         0.00000                      -5.203769106903

 Energy components [Hartree]           Total Energy ::           -5.203769106903
                                        Band Energy ::           -1.102062531975
                                     Kinetic Energy ::            4.436946353555
                                   Potential Energy ::           -9.640715460459
                                      Virial (-V/T) ::            2.172826690306
                                        Core Energy ::           -8.622900759898
                                          XC Energy ::           -1.549179882233
                                     Coulomb Energy ::            4.968311535227
                       Total Pseudopotential Energy ::          -13.085360153352
                       Local Pseudopotential Energy ::          -13.648615018058
                    Nonlocal Pseudopotential Energy ::            0.563254864706
                                        Confinement ::            0.255130398990

 Orbital energies  State     L     Occupation   Energy[a.u.]          Energy[eV]

                       1     0          2.000      -0.416370          -11.330000

                       1     1          2.000      -0.134661           -3.664323


 Total Electron Density at R=0:                                         0.013874

 Guess for atomic kind: H

 Electronic structure
    Total number of core electrons                                          0.00
    Total number of valence electrons                                       1.00
    Total number of electrons                                               1.00
    Multiplicity                                                   not specified
    S      1.00


 *******************************************************************************
                  Iteration          Convergence                     Energy [au]
 *******************************************************************************
                          1         0.00000                      -0.372474116344

 Energy components [Hartree]           Total Energy ::           -0.372474116344
                                        Band Energy ::           -0.184689713228
                                     Kinetic Energy ::            0.795946116619
                                   Potential Energy ::           -1.168420232963
                                      Virial (-V/T) ::            1.467963984706
                                        Core Energy ::           -0.452545141516
                                          XC Energy ::           -0.314416247311
                                     Coulomb Energy ::            0.394487272483
                       Total Pseudopotential Energy ::           -1.259976600556
                       Local Pseudopotential Energy ::           -1.259976600556
                    Nonlocal Pseudopotential Energy ::            0.000000000000
                                        Confinement ::            0.114853424211

 Orbital energies  State     L     Occupation   Energy[a.u.]          Energy[eV]

                       1     0          1.000      -0.184690           -5.025663


 Total Electron Density at R=0:                                         0.476934
 Re-scaling the density matrix to get the right number of electrons
                  # Electrons              Trace(P)               Scaling factor
                         1822              1822.000                        1.000


 SCF WAVEFUNCTION OPTIMIZATION

  Step     Update method      Time    Convergence         Total energy    Change
  ------------------------------------------------------------------------------
     1 NoMix/Diag. 0.30E+00    7.2     1.34324712     -5448.2759496671 -5.45E+03
     2 Broy./Diag. 0.30E+00    7.6     0.49631938     -5577.4087107011 -1.29E+02
     3 Broy./Diag. 0.30E+00    8.0     0.19591664     -5499.7166644857  7.77E+01
     4 Broy./Diag. 0.30E+00    7.7     0.01413934     -5458.9791740120  4.07E+01
     5 Broy./Diag. 0.30E+00    7.9     0.01461559     -5449.4368741611  9.54E+00
     6 Broy./Diag. 0.30E+00    7.8     0.00657606     -5448.3721751609  1.06E+00
     7 Broy./Diag. 0.30E+00    7.7     0.00534088     -5448.4105430212 -3.84E-02
     8 Broy./Diag. 0.30E+00    7.7     0.00143106     -5448.4077002852  2.84E-03
     9 Broy./Diag. 0.30E+00    8.1     0.00169812     -5448.3654293847  4.23E-02
    10 Broy./Diag. 0.30E+00    8.2     0.00080383     -5448.2720829609  9.33E-02
    11 Broy./Diag. 0.30E+00    8.3     0.00027925     -5448.2064017854  6.57E-02
    12 Broy./Diag. 0.30E+00    8.4     0.00025767     -5448.1972555473  9.15E-03
    13 Broy./Diag. 0.30E+00    8.3     0.00016178     -5448.1969102921  3.45E-04
    14 Broy./Diag. 0.30E+00    8.2     0.00004498     -5448.1947609433  2.15E-03
    15 Broy./Diag. 0.30E+00    8.1     0.00004542     -5448.1940505508  7.10E-04
    16 Broy./Diag. 0.30E+00    7.9     0.00001866     -5448.1939500120  1.01E-04
    17 Broy./Diag. 0.30E+00    8.3     0.00000539     -5448.1940747149 -1.25E-04
    18 Broy./Diag. 0.30E+00    8.1     0.00000357     -5448.1941555282 -8.08E-05
    19 Broy./Diag. 0.30E+00    8.1     0.00000144     -5448.1940877047  6.78E-05
    20 Broy./Diag. 0.30E+00    8.1     0.00000111     -5448.1940527267  3.50E-05
    21 Broy./Diag. 0.30E+00    8.4     0.00000043     -5448.1940379738  1.48E-05
    22 Broy./Diag. 0.30E+00    8.5     0.00000030     -5448.1940348338  3.14E-06
    23 Broy./Diag. 0.30E+00    8.3     0.00000009     -5448.1940352607 -4.27E-07

  *** SCF run converged in    23 steps ***


  Electronic density on regular grids:      -1822.0000000114       -0.0000000114
  Core density on regular grids:             1821.9999997041       -0.0000002959
  Total charge density on r-space grids:       -0.0000003073
  Total charge density g-space grids:          -0.0000003073

  Overlap energy of the core charge distribution:               0.00001354940311
  Self energy of the core charge distribution:              -9503.87585559366380
  Core Hamiltonian energy:                                   3006.13913856643876
  Hartree energy:                                            1904.80347668898662
  Exchange-correlation energy:                               -855.25586499357883
  Electronic entropic energy:                                  -0.00494347794575
  Fermi energy:                                                 0.20348481629897

  Total energy:                                             -5448.19403526067254

 The electron density is written in cube file format to the file:

 dft_wfn-ELECTRON_DENSITY-1_0.cube

 !-----------------------------------------------------------------------------!
                     Mulliken Population Analysis

 #  Atom  Element  Kind  Atomic population                           Net charge
       1     Au       1         10.996687                              0.003313
       2     Au       1         10.996677                              0.003323
       3     Au       1         10.996541                              0.003459
       4     Au       1         10.996681                              0.003319
       5     Au       1         10.996544                              0.003456
       6     Au       1         10.996546                              0.003454
       7     Au       1         10.995996                              0.004004
       8     Au       1         10.996687                              0.003313
       9     Au       1         10.995491                              0.004509
      10     Au       1         10.995968                              0.004032
      11     Au       1         10.996677                              0.003323
      12     Au       1         10.996611                              0.003389
      13     Au       1         10.995495                              0.004505
      14     Au       1         10.996677                              0.003323
      15     Au       1         10.996591                              0.003409
      16     Au       1         10.995373                              0.004627
      17     Au       1         10.996544                              0.003456
      18     Au       1         10.995373                              0.004627
      19     Au       1         10.995879                              0.004121
      20     Au       1         10.996145                              0.003855
      21     Au       1         10.995889                              0.004111
      22     Au       1         10.996146                              0.003854
      23     Au       1         10.995758                              0.004242
      24     Au       1         10.994466                              0.005534
      25     Au       1         10.996146                              0.003854
      26     Au       1         10.995485                              0.004515
      27     Au       1         10.994795                              0.005205
      28     Au       1         10.997036                              0.002964
      29     Au       1         10.995167                              0.004833
      30     Au       1         10.994802                              0.005198
      31     Au       1         10.995166                              0.004834
      32     Au       1         10.996147                              0.003853
      33     Au       1         10.995180                              0.004820
      34     Au       1         10.994463                              0.005537
      35     Au       1         10.995182                              0.004818
      36     Au       1         10.995500                              0.004500
      37     Au       1         10.981623                              0.018377
      38     Au       1         10.992476                              0.007524
      39     Au       1         10.981844                              0.018156
      40     Au       1         10.981867                              0.018133
      41     Au       1         10.983047                              0.016953
      42     Au       1         10.981849                              0.018151
      43     Au       1         10.991907                              0.008093
      44     Au       1         10.981625                              0.018375
      45     Au       1         10.981863                              0.018137
      46     Au       1         10.981623                              0.018377
      47     Au       1         10.982876                              0.017124
      48     Au       1         10.981676                              0.018324
      49     Au       1         10.983021                              0.016979
      50     Au       1         10.982869                              0.017131
      51     Au       1         10.981636                              0.018364
      52     Au       1         10.981641                              0.018359
      53     Au       1         10.981683                              0.018317
      54     Au       1         10.981639                              0.018361
      55     Au       1         10.957127                              0.042873
      56     Au       1         10.954561                              0.045439
      57     Au       1         10.956772                              0.043228
      58     Au       1         10.957137                              0.042863
      59     Au       1         10.958590                              0.041410
      60     Au       1         10.958593                              0.041407
      61     Au       1         10.954736                              0.045264
      62     Au       1         10.958619                              0.041381
      63     Au       1         10.958065                              0.041935
      64     Au       1         10.949660                              0.050340
      65     Au       1         10.947585                              0.052415
      66     Au       1         10.949652                              0.050348
      67     Au       1         10.953565                              0.046435
      68     Au       1         10.953506                              0.046494
      69     Au       1         10.958616                              0.041384
      70     Au       1         10.949608                              0.050392
      71     Au       1         10.949599                              0.050401
      72     Au       1         10.957998                              0.042002
      73     Au       1         11.074642                             -0.074642
      74     Au       1         11.075997                             -0.075997
      75     Au       1         11.071449                             -0.071449
      76     Au       1         11.075993                             -0.075993
      77     Au       1         11.074677                             -0.074677
      78     Au       1         11.075032                             -0.075032
      79     Au       1         11.079153                             -0.079153
      80     Au       1         11.076063                             -0.076063
      81     Au       1         11.218538                             -0.218538
      82     Au       1         11.076060                             -0.076060
      83     Au       1         11.075499                             -0.075499
      84     Au       1         11.079167                             -0.079167
      85     Au       1         11.218077                             -0.218077
      86     Au       1         11.078934                             -0.078934
      87     Au       1         11.247300                             -0.247300
      88     Au       1         11.247348                             -0.247348
      89     Au       1         11.075062                             -0.075062
      90     Au       1         11.078920                             -0.078920
      91     S        2          5.290732                              0.709268
      92     S        2          5.290740                              0.709260
      93     C        3          4.074451                             -0.074451
      94     C        3          4.098015                             -0.098015
      95     C        3          4.095779                             -0.095779
      96     C        3          4.074471                             -0.074471
      97     C        3          4.098024                             -0.098024
      98     C        3          4.095773                             -0.095773
      99     H        4          0.837806                              0.162194
     100     H        4          0.838586                              0.161414
     101     H        4          0.837961                              0.162039
     102     H        4          0.838434                              0.161566
     103     Au       1         11.079192                             -0.079192
     104     Au       1         11.074678                             -0.074678
     105     Au       1         11.076042                             -0.076042
     106     Au       1         11.071449                             -0.071449
     107     Au       1         11.076080                             -0.076080
     108     Au       1         11.074641                             -0.074641
     109     Au       1         11.075061                             -0.075061
     110     Au       1         11.078900                             -0.078900
     111     Au       1         11.075976                             -0.075976
     112     Au       1         11.218081                             -0.218081
     113     Au       1         11.076015                             -0.076015
     114     Au       1         11.078935                             -0.078935
     115     Au       1         11.075033                             -0.075033
[...]
     88       Au     1      11.000         10.989                         0.011
     89       Au     1      11.000         11.026                        -0.026
     90       Au     1      11.000         11.033                        -0.033
     91       S      2       6.000          5.901                         0.099
     92       S      2       6.000          5.901                         0.099
     93       C      3       4.000          3.998                         0.002
     94       C      3       4.000          4.037                        -0.037
     95       C      3       4.000          4.037                        -0.037
     96       C      3       4.000          3.998                         0.002
     97       C      3       4.000          4.037                        -0.037
     98       C      3       4.000          4.036                        -0.036
     99       H      4       1.000          0.957                         0.043
    100       H      4       1.000          0.958                         0.042
    101       H      4       1.000          0.957                         0.043
    102       H      4       1.000          0.958                         0.042
    103       Au     1      11.000         11.033                        -0.033
    104       Au     1      11.000         11.025                        -0.025
    105       Au     1      11.000         11.031                        -0.031
    106       Au     1      11.000         11.026                        -0.026
    107       Au     1      11.000         11.031                        -0.031
    108       Au     1      11.000         11.025                        -0.025
    109       Au     1      11.000         11.026                        -0.026
    110       Au     1      11.000         11.033                        -0.033
    111       Au     1      11.000         11.031                        -0.031
    112       Au     1      11.000         10.996                         0.004
    113       Au     1      11.000         11.031                        -0.031
    114       Au     1      11.000         11.033                        -0.033
    115       Au     1      11.000         11.026                        -0.026
    116       Au     1      11.000         11.030                        -0.030
    117       Au     1      11.000         11.033                        -0.033
    118       Au     1      11.000         10.989                         0.011
    119       Au     1      11.000         10.989                         0.011
    120       Au     1      11.000         10.996                         0.004
    121       Au     1      11.000         10.984                         0.016
    122       Au     1      11.000         10.984                         0.016
    123       Au     1      11.000         10.984                         0.016
    124       Au     1      11.000         10.984                         0.016
    125       Au     1      11.000         10.991                         0.009
    126       Au     1      11.000         10.987                         0.013
    127       Au     1      11.000         10.987                         0.013
    128       Au     1      11.000         10.984                         0.016
    129       Au     1      11.000         11.006                        -0.006
    130       Au     1      11.000         10.991                         0.009
    131       Au     1      11.000         10.987                         0.013
    132       Au     1      11.000         10.984                         0.016
    133       Au     1      11.000         10.991                         0.009
    134       Au     1      11.000         10.984                         0.016
    135       Au     1      11.000         10.984                         0.016
    136       Au     1      11.000         10.987                         0.013
    137       Au     1      11.000         10.984                         0.016
    138       Au     1      11.000         10.991                         0.009
    139       Au     1      11.000         10.998                         0.002
    140       Au     1      11.000         10.999                         0.001
    141       Au     1      11.000         10.999                         0.001
    142       Au     1      11.000         10.997                         0.003
    143       Au     1      11.000         10.999                         0.001
    144       Au     1      11.000         10.999                         0.001
    145       Au     1      11.000         10.997                         0.003
    146       Au     1      11.000         10.997                         0.003
    147       Au     1      11.000         10.999                         0.001
    148       Au     1      11.000         10.997                         0.003
    149       Au     1      11.000         10.999                         0.001
    150       Au     1      11.000         10.997                         0.003
    151       Au     1      11.000         10.998                         0.002
    152       Au     1      11.000         10.999                         0.001
    153       Au     1      11.000         10.999                         0.001
    154       Au     1      11.000         10.998                         0.002
    155       Au     1      11.000         10.997                         0.003
    156       Au     1      11.000         10.998                         0.002
    157       Au     1      11.000         10.999                         0.001
    158       Au     1      11.000         11.000                         0.000
    159       Au     1      11.000         11.000                         0.000
    160       Au     1      11.000         10.999                         0.001
    161       Au     1      11.000         10.999                         0.001
    162       Au     1      11.000         11.000                        -0.000
    163       Au     1      11.000         11.000                         0.000
    164       Au     1      11.000         10.999                         0.001
    165       Au     1      11.000         10.999                         0.001
    166       Au     1      11.000         10.999                         0.001
    167       Au     1      11.000         10.997                         0.003
    168       Au     1      11.000         11.000                        -0.000
    169       Au     1      11.000         10.999                         0.001
    170       Au     1      11.000         10.999                         0.001
    171       Au     1      11.000         11.000                        -0.000
    172       Au     1      11.000         10.999                         0.001
    173       Au     1      11.000         10.999                         0.001
    174       Au     1      11.000         11.000                        -0.000

  Total Charge                                                           -0.000
 !-----------------------------------------------------------------------------!

 ENERGY| Total FORCE_EVAL ( QS ) energy [a.u.]:            -5448.194035260672536

 -------------------------------------------------------------------------------
 -                                                                             -
 -                                DBCSR STATISTICS                             -
 -                                                                             -
 -------------------------------------------------------------------------------
 COUNTER                                    TOTAL       BLAS       SMM       ACC
 flops inhomo. stacks                           0       0.0%      0.0%      0.0%
 flops total                         0.000000E+00       0.0%      0.0%      0.0%
 flops max/rank                      0.000000E+00       0.0%      0.0%      0.0%
 matmuls inhomo. stacks                         0       0.0%      0.0%      0.0%
 matmuls total                                  0       0.0%      0.0%      0.0%
 number of processed stacks                     0       0.0%      0.0%      0.0%
 average stack size                                     0.0       0.0       0.0
 marketing flops                     0.000000E+00
 -------------------------------------------------------------------------------
 -                                                                             -
 -                      DBCSR MESSAGE PASSING PERFORMANCE                      -
 -                                                                             -
 -------------------------------------------------------------------------------
 ROUTINE             CALLS      AVE VOLUME [Bytes]
 MP_Bcast                1                     12.
 MP_Allreduce         1262                      8.
 MP_Alltoall         30824                 197463.
 -------------------------------------------------------------------------------

 -------------------------------------------------------------------------------
 -                                                                             -
 -                                DBM STATISTICS                               -
 -                                                                             -
 -------------------------------------------------------------------------------
    M  x    N  x    K                                          COUNT     PERCENT
 -------------------------------------------------------------------------------

 -------------------------------------------------------------------------------
 -                                                                             -
 -                                GRID STATISTICS                              -
 -                                                                             -
 -------------------------------------------------------------------------------
 LP    KERNEL             BACKEND                              COUNT     PERCENT
 4     collocate ortho    REF                                3160512      43.31%
 4     integrate ortho    REF                                3028824      41.51%
 0     collocate general  REF                                 375840       5.15%
 0     integrate general  REF                                 334080       4.58%
 3     collocate ortho    REF                                 109080       1.49%
 3     integrate ortho    REF                                 104535       1.43%
 2     collocate ortho    REF                                  75096       1.03%
 2     integrate ortho    REF                                  71967       0.99%
 1     collocate ortho    REF                                  14112       0.19%
 1     integrate ortho    REF                                  13524       0.19%
 0     collocate ortho    REF                                   4656       0.06%
 0     integrate ortho    REF                                   4462       0.06%
 -------------------------------------------------------------------------------

 MEMORY| Estimated peak process memory [MiB]                                1044

 -------------------------------------------------------------------------------
 ----                             MULTIGRID INFO                            ----
 -------------------------------------------------------------------------------
 count for grid        1:         404609          cutoff [a.u.]          200.00
 count for grid        2:         633711          cutoff [a.u.]           66.67
 count for grid        3:         355168          cutoff [a.u.]           22.22
 count for grid        4:         169376          cutoff [a.u.]            7.41
 total gridlevel count  :        1562864

 -------------------------------------------------------------------------------
 -                                                                             -
 -                         MESSAGE PASSING PERFORMANCE                         -
 -                                                                             -
 -------------------------------------------------------------------------------

 ROUTINE             CALLS      AVE VOLUME [Bytes]
 MP_Group                5
 MP_Bcast            13373                  48048.
 MP_Allreduce         1294                   3806.
 MP_Sync               286
 MP_Alltoall           439
 MP_ISendRecv        22466                   7740.
 MP_Wait             36354
 MP_ISend            20817                  29174.
 MP_IRecv            20931                  29031.
 MP_Recv              2484                 382464.
 MP_Write_All            2                 431392.
 -------------------------------------------------------------------------------


 -------------------------------------------------------------------------------
 -                                                                             -
 -                           R E F E R E N C E S                               -
 -                                                                             -
 -------------------------------------------------------------------------------
 
 CP2K version 2022.1 (Development Version), the CP2K developers group (2022).
 CP2K is freely available from https://www.cp2k.org/ .

 Kuehne,Thomas D.; Iannuzzi,Marcella; Del Ben,Mauro;
 Rybkin,Vladimir V.; Seewald,Patrick; Stein,Frederick; Laino,Teodoro;
 Khaliullin,Rustam Z.; Schuett,Ole; Schiffmann,Florian; Golze,Dorothea;
 Wilhelm,Jan; Chulkov,Sergey; Bani-Hashemian,Mohammad Hossein;
 Weber,Valery; Borstnik,Urban; Taillefumier,Mathieu;
 Jakobovits,Alice Shoshana; Lazzaro,Alfio; Pabst,Hans; Mueller,Tiziano;
 Schade,Robert; Guidon,Manuel; Andermatt,Samuel; Holmberg,Nico;
 Schenter,Gregory K.; Hehn,Anna; Bussy,Augustin; Belleflamme,Fabian;
 Tabacchi,Gloria; Gloess,Andreas; Lass,Michael; Bethune,Iain;
 Mundy,Christopher J.; Plessl,Christian; Watkins,Matt;
 VandeVondele,Joost; Krack,Matthias; Hutter,Juerg. 
 The Journal of Chemical Physics, 152 (19), (2020). 
 CP2K: An electronic structure and molecular dynamics software package -
 Quickstep: Efficient and accurate electronic structure calculations.
 https://doi.org/10.1063/5.0007045

 Togo, Atsushi; Tanaka, Isao. arXiv, 1808.01590 (2018). 
 Spglib : a software library for crystal symmetry search.
 https://doi.org/xxx

 Schuett, Ole; Messmer, Peter; Hutter, Juerg; VandeVondele, Joost. 
 Electronic Structure Calculations on Graphics Processing Units, John
 Wiley & Sons, Ltd, 173-190 (2016). 
 GPU-Accelerated Sparse Matrix-Matrix Multiplication for
 Linear Scaling Density Functional Theory.
 https://doi.org/10.1002/9781118670712.ch8

 Heinecke, A; Henry, G; Hutchinson, M; Pabst, H. 
 Proceedings of Intl. Supercomputing Conference, 981-991 (2016). 
 LIBXSMM: Accelerating Small Matrix Multiplications
 by Runtime Code Generation.
 https://doi.org/10.1109/SC.2016.83

 Borstnik, U; VandeVondele, J; Weber, V; Hutter, J. 
 PARALLEL COMPUTING, 40 (5-6), 47-58 (2014). 
 Sparse matrix multiplication: The distributed block-compressed sparse
 row library.
 https://doi.org/10.1016/j.parco.2014.03.012

 Hutter, J; Iannuzzi, M; Schiffmann, F; VandeVondele, J. 
 WIREs Comput Mol Sci., 4 (1), 15-25 (2014). 
 CP2K: atomistic simulations of condensed matter systems.
 https://doi.org/10.1002/wcms.1159

 VandeVondele, J; Hutter, J. 
 JOURNAL OF CHEMICAL PHYSICS, 127 (11), 114105 (2007). 
 Gaussian basis sets for accurate calculations on molecular systems in
 gas and condensed phases.
 https://doi.org/10.1063/1.2770708

 Krack, M. 
 THEORETICAL CHEMISTRY ACCOUNTS, 114 (1-3), 145-152 (2005). 
 Pseudopotentials for H to Kr optimized for gradient-corrected
 exchange-correlation functionals.
 https://doi.org/10.1007/s00214-005-0655-y

 VandeVondele, J; Krack, M; Mohamed, F; Parrinello, M; Chassaing, T;
 Hutter, J. COMPUTER PHYSICS COMMUNICATIONS, 167 (2), 103-128 (2005). 
 QUICKSTEP: Fast and accurate density functional calculations using a
 mixed Gaussian and plane waves approach.
 https://doi.org/10.1016/j.cpc.2004.12.014

 Frigo, M; Johnson, SG. 
 PROCEEDINGS OF THE IEEE, 93 (2), 216-231 (2005). 
 The design and implementation of FFTW3.
 https://doi.org/10.1109/JPROC.2004.840301

 Hartwigsen, C; Goedecker, S; Hutter, J. 
 PHYSICAL REVIEW B, 58 (7), 3641-3662 (1998). 
 Relativistic separable dual-space Gaussian pseudopotentials from H to Rn.
 https://doi.org/10.1103/PhysRevB.58.3641

 Lippert, G; Hutter, J; Parrinello, M. 
 MOLECULAR PHYSICS, 92 (3), 477-487 (1997). 
 A hybrid Gaussian and plane wave density functional scheme.
 https://doi.org/10.1080/002689797170220

 Goedecker, S; Teter, M; Hutter, J. 
 PHYSICAL REVIEW B, 54 (3), 1703-1710 (1996). 
 Separable dual-space Gaussian pseudopotentials.
 https://doi.org/10.1103/PhysRevB.54.1703


 -------------------------------------------------------------------------------
 -                                                                             -
 -                                T I M I N G                                  -
 -                                                                             -
 -------------------------------------------------------------------------------
 SUBROUTINE                       CALLS  ASD         SELF TIME        TOTAL TIME
                                MAXIMUM       AVERAGE  MAXIMUM  AVERAGE  MAXIMUM
 CP2K                                 1  1.0    0.030    0.074  190.049  190.052
 qs_energies                          1  2.0    0.000    0.000  189.763  189.771
 scf_env_do_scf                       1  3.0    0.000    0.000  187.121  187.190
 scf_env_do_scf_inner_loop           23  4.0    0.002    0.147  187.121  187.189
 qs_scf_new_mos_kp                   23  5.0    0.000    0.000  178.830  178.833
 do_general_diag_kp                  23  6.0    0.011    0.013  178.830  178.832
 cp_cfm_geeig                       368  7.0    0.005    0.007  157.470  157.527
 cp_cfm_heevd                       368  8.0  134.055  134.263  134.055  134.263
 cp_cfm_triangular_multiply        1104  8.0   11.612   11.958   11.612   11.958
 copy_dbcsr_to_fm                  1526  7.0    0.017    0.024    7.870    8.137
 cp_cfm_cholesky_decompose          368  8.0    7.552    7.856    7.552    7.856
 dbcsr_desymmetrize_deep           2998  7.5    0.103    0.122    6.581    6.890
 kpoint_density_matrices             23  7.0    0.032    0.034    6.758    6.782
 cp_gemm                           1472  8.0    0.001    0.002    6.721    6.749
 cp_gemm_fm_gemm                   1472  9.0    0.001    0.002    6.720    6.748
 cp_fm_gemm                        1472 10.0    6.719    6.747    6.719    6.747
 mp_alltoall_d11v                 15827  9.4    5.159    6.078    5.159    6.078
 dbcsr_complete_redistribute       2262  8.3    0.214    0.274    5.564    5.641
 cp_cfm_triangular_invert           368  8.0    4.208    4.359    4.208    4.359
 mp_alltoall_i11v                  9784  9.1    3.497    4.030    3.497    4.030
 rs_pw_transfer                     191  9.4    0.003    0.004    3.879    4.024
 -------------------------------------------------------------------------------

 The number of warnings for this run is : 0
 
 -------------------------------------------------------------------------------
  **** **** ******  **  PROGRAM ENDED AT                 2023-02-17 15:11:48.613
 ***** ** ***  *** **   PROGRAM RAN ON                     cn1000.scarf.rl.ac.uk
 **    ****   ******    PROGRAM RAN BY                                 scarf1157
 ***** **    ** ** **   PROGRAM PROCESS ID                                 20449
  **** **  *******  **  PROGRAM STOPPED IN /work4/scd/scarf1157/work/testing/cp2
                                           k-smeagol/bdt/cp2k/hollow-site/transp
                                           ort-cp2k/5-4/geometry-ordered/3x3-4/s
                                           z/kpoints_bulk-31_em-4-4-1_sz-all
