 Calculating transmission coefficient
elfenergy to   1.0000000000000000E-010
 Selfenergy calculated to the required accuracy with the updated SVD tolerance
  512
 DBCSR| Multiplication stack size                                           1000
 DBCSR| Maximum elements for images                                    UNLIMITED
 DBCSR| Multiplicative factor virtual images                                   1
 DBCSR| Use multiplication densification                                       T
 DBCSR| Multiplication size stacks                                             3
 DBCSR| Use memory pool for CPU allocation                                     F
 DBCSR| Number of 3D layers                                               SINGLE
 DBCSR| Use MPI memory allocation                                              F
 DBCSR| Use RMA algorithm                                                      F
 DBCSR| Use Communication thread                                               T
 DBCSR| Communication thread load                                             83
 DBCSR| MPI: My node id                                                        0
 DBCSR| MPI: Number of nodes                                                 576
 DBCSR| OMP: Current number of threads                                         2
 DBCSR| OMP: Max number of threads                                             2
 DBCSR| Split modifier for TAS multiplication algorithm                  1.0E+00


  **** **** ******  **  PROGRAM STARTED AT               2023-11-16 13:25:34.284
 ***** ** ***  *** **   PROGRAM STARTED ON                             nid001778
 **    ****   ******    PROGRAM STARTED BY                                cahart
 ***** **    ** ** **   PROGRAM PROCESS ID                                249493
  **** **  *******  **  PROGRAM STARTED IN /mnt/lustre/a2fs-work2/work/e05/e05/c
                                           ahart/postdoc/transport/cp2k-smeagol-
                                           examples/au-h2/cp2k-smeagol/transmiss
                                           ion_all/kpoints-3-3-20_omp-2_Parallel
                                           OverKNum-9_contour-single/kpoints-3-3
                                           -20_omp-2_ParallelOverKNum-9_contour-
                                           single_dynamic-14/0.1

 CP2K| version string:                 CP2K version 2022.1 (Development Version)
 CP2K| source code revision number:                                  git:215a478
 CP2K| cp2kflags: omp libint fftw3 libxc elpa parallel mpi3 scalapack mkl       
 CP2K| is freely available from                            https://www.cp2k.org/
 CP2K| Program compiled at                          Mon 30 Oct 16:32:24 GMT 2023
 CP2K| Program compiled on                                                  ln03
 CP2K| Program compiled for                                                local
 CP2K| Data directory path    /work/e05/e05/cahart/smeagol/smgl/cp2k-private-ser
 CP2K| Input file name                                                4_0.1V.inp

 GLOBAL| Force Environment number                                              1
 GLOBAL| Basis set file name                                        BASIS_MOLOPT
 GLOBAL| Potential file name                                      GTH_POTENTIALS
 GLOBAL| MM Potential file name                                     MM_POTENTIAL
 GLOBAL| Coordinate file name                                             em.xyz
 GLOBAL| Method name                                                        CP2K
 GLOBAL| Project name                                                       0.1V
 GLOBAL| Run type                                                             MD
 GLOBAL| FFT library                                                       FFTW3
 GLOBAL| Diagonalization library                                            ELPA
 GLOBAL| Minimum number of eigenvectors for ELPA usage                        16
 GLOBAL| Orthonormality check for eigenvectors                          DISABLED
 GLOBAL| Matrix multiplication library                                 ScaLAPACK
 GLOBAL| All-to-all communication in single precision                          F
 GLOBAL| FFTs using library dependent lengths                                  T
 GLOBAL| Grid backend                                                       AUTO
 GLOBAL| Global print level                                               MEDIUM
 GLOBAL| MPI I/O enabled                                                       T
 GLOBAL| Total number of message passing processes                           576
 GLOBAL| Number of threads for this process                                    2
 GLOBAL| This output is from process                                           0
 GLOBAL| Stack size for threads created by OpenMP (OMP_STACKSIZE)        default
 GLOBAL| CPU model name                          AMD EPYC 7742 64-Core Processor
 GLOBAL| CPUID                                                              1002

 MEMORY| system memory details [Kb]
 MEMORY|                        rank 0           min           max       average
 MEMORY| MemTotal            263341976     263341976     263341976     263341976
 MEMORY| MemFree             237876356     237876356     242356816     241131090
 MEMORY| Buffers                     0             0             0             0
 MEMORY| Cached                5538532       1328732       5538532       1890132
 MEMORY| Slab                  3203044       2796180       3203044       2886725
 MEMORY| SReclaimable           136852        113260        136852        118436
 MEMORY| MemLikelyFree       243551740     242488164     243922080     243139659


 *** Fundamental physical constants (SI units) ***

 *** Literature: B. J. Mohr and B. N. Taylor,
 ***             CODATA recommended values of the fundamental physical
 ***             constants: 2006, Web Version 5.1
 ***             http://physics.nist.gov/constants

 Speed of light in vacuum [m/s]                             2.99792458000000E+08
 Magnetic constant or permeability of vacuum [N/A**2]       1.25663706143592E-06
 Electric constant or permittivity of vacuum [F/m]          8.85418781762039E-12
 Planck constant (h) [J*s]                                  6.62606896000000E-34
 Planck constant (h-bar) [J*s]                              1.05457162825177E-34
 Elementary charge [C]                                      1.60217648700000E-19
 Electron mass [kg]                                         9.10938215000000E-31
 Electron g factor [ ]                                     -2.00231930436220E+00
 Proton mass [kg]                                           1.67262163700000E-27
 Fine-structure constant                                    7.29735253760000E-03
 Rydberg constant [1/m]                                     1.09737315685270E+07
 Avogadro constant [1/mol]                                  6.02214179000000E+23
 Boltzmann constant [J/K]                                   1.38065040000000E-23
 Atomic mass unit [kg]                                      1.66053878200000E-27
 Bohr radius [m]                                            5.29177208590000E-11

 *** Conversion factors ***

 [u] -> [a.u.]                                              1.82288848426455E+03
 [Angstrom] -> [Bohr] = [a.u.]                              1.88972613288564E+00
 [a.u.] = [Bohr] -> [Angstrom]                              5.29177208590000E-01
 [a.u.] -> [s]                                              2.41888432650478E-17
 [a.u.] -> [fs]                                             2.41888432650478E-02
 [a.u.] -> [J]                                              4.35974393937059E-18
 [a.u.] -> [N]                                              8.23872205491840E-08
 [a.u.] -> [K]                                              3.15774647902944E+05
 [a.u.] -> [kJ/mol]                                         2.62549961709828E+03
 [a.u.] -> [kcal/mol]                                       6.27509468713739E+02
 [a.u.] -> [Pa]                                             2.94210107994716E+13
 [a.u.] -> [bar]                                            2.94210107994716E+08
 [a.u.] -> [atm]                                            2.90362800883016E+08
 [a.u.] -> [eV]                                             2.72113838565563E+01
 [a.u.] -> [Hz]                                             6.57968392072181E+15
 [a.u.] -> [1/cm] (wave numbers)                            2.19474631370540E+05
 [a.u./Bohr**2] -> [1/cm]                                   5.14048714338585E+03
 

 CELL_TOP| Volume [angstrom^3]:                                      3044.391638
 CELL_TOP| Vector a [angstrom     8.867     0.000     0.000   |a| =     8.867120
 CELL_TOP| Vector b [angstrom     0.000     8.867     0.000   |b| =     8.867120
 CELL_TOP| Vector c [angstrom     0.000     0.000    38.720   |c| =    38.720000
 CELL_TOP| Angle (b,c), alpha [degree]:                                90.000000
 CELL_TOP| Angle (a,c), beta  [degree]:                                90.000000
 CELL_TOP| Angle (a,b), gamma [degree]:                                90.000000
 CELL_TOP| Numerically orthorhombic:                                         YES
 CELL_TOP| Periodicity                                                       XYZ

 GENERATE|  Preliminary Number of Bonds generated:                             0
 GENERATE|  Achieved consistency in connectivity generation.

 CELL| Volume [angstrom^3]:                                          3044.391638
 CELL| Vector a [angstrom]:       8.867     0.000     0.000   |a| =     8.867120
 CELL| Vector b [angstrom]:       0.000     8.867     0.000   |b| =     8.867120
 CELL| Vector c [angstrom]:       0.000     0.000    38.720   |c| =    38.720000
 CELL| Angle (b,c), alpha [degree]:                                    90.000000
 CELL| Angle (a,c), beta  [degree]:                                    90.000000
 CELL| Angle (a,b), gamma [degree]:                                    90.000000
 CELL| Numerically orthorhombic:                                             YES
 CELL| Periodicity                                                           XYZ

 CELL_REF| Volume [angstrom^3]:                                      3044.391638
 CELL_REF| Vector a [angstrom     8.867     0.000     0.000   |a| =     8.867120
 CELL_REF| Vector b [angstrom     0.000     8.867     0.000   |b| =     8.867120
 CELL_REF| Vector c [angstrom     0.000     0.000    38.720   |c| =    38.720000
 CELL_REF| Angle (b,c), alpha [degree]:                                90.000000
 CELL_REF| Angle (a,c), beta  [degree]:                                90.000000
 CELL_REF| Angle (a,b), gamma [degree]:                                90.000000
 CELL_REF| Numerically orthorhombic:                                         YES
 CELL_REF| Periodicity                                                       XYZ

 *** WARNING in cryssym.F:165 :: Symmetry library SPGLIB not available ***


 *******************************************************************************
                                    Kpoints
 *******************************************************************************
 BRILLOUIN| K-point scheme                                        Monkhorst-Pack
 BRILLOUIN| K-Point grid                                             3    3    1
 BRILLOUIN| Accuracy in Symmetry determination                      0.100000E-07
 BRILLOUIN| K-Point point group symmetrization                               OFF
 BRILLOUIN| Wavefunction type                                            COMPLEX
 BRILLOUIN| Use full k-point grid     
 BRILLOUIN| List of Kpoints [2 Pi/Bohr]                                        9
 BRILLOUIN| Number           Weight            X              Y              Z
 BRILLOUIN|     1           0.11111       -0.33333       -0.33333        0.00000
 BRILLOUIN|     2           0.11111       -0.33333        0.00000        0.00000
 BRILLOUIN|     3           0.11111       -0.33333        0.33333        0.00000
 BRILLOUIN|     4           0.11111        0.00000       -0.33333        0.00000
 BRILLOUIN|     5           0.11111        0.00000        0.00000        0.00000
 BRILLOUIN|     6           0.11111        0.00000        0.33333        0.00000
 BRILLOUIN|     7           0.11111        0.33333       -0.33333        0.00000
 BRILLOUIN|     8           0.11111        0.33333        0.00000        0.00000
 BRILLOUIN|     9           0.11111        0.33333        0.33333        0.00000
 *******************************************************************************

 *******************************************************************************
 *******************************************************************************
 **                                                                           **
 **     #####                         ##              ##                      **
 **    ##   ##            ##          ##              ##                      **
 **   ##     ##                       ##            ######                    **
 **   ##     ##  ##   ##  ##   #####  ##  ##   ####   ##    #####    #####    **
 **   ##     ##  ##   ##  ##  ##      ## ##   ##      ##   ##   ##  ##   ##   **
 **   ##  ## ##  ##   ##  ##  ##      ####     ###    ##   ######   ######    **
 **    ##  ###   ##   ##  ##  ##      ## ##      ##   ##   ##       ##        **
 **     #######   #####   ##   #####  ##  ##  ####    ##    #####   ##        **
 **           ##                                                    ##        **
 **                                                                           **
 **                                                ... make the atoms dance   **
 **                                                                           **
 **            Copyright (C) by CP2K developers group (2000-2022)             **
 **                      J. Chem. Phys. 152, 194103 (2020)                    **
 **                                                                           **
 *******************************************************************************

 DFT| Spin restricted Kohn-Sham (RKS) calculation                            RKS
 DFT| Multiplicity                                                             2
 DFT| Number of spin states                                                    1
 DFT| Charge                                                                   0
 DFT| Self-interaction correction (SIC)                                       NO
 DFT| Cutoffs: density                                              1.000000E-10
 DFT|          gradient                                             1.000000E-10
 DFT|          tau                                                  1.000000E-10
 DFT|          cutoff_smoothing_range                               0.000000E+00
 DFT| XC density smoothing                                                  NONE
 DFT| XC derivatives                                                          PW

 FUNCTIONAL| PBE:
 FUNCTIONAL| J.P.Perdew, K.Burke, M.Ernzerhof, Phys. Rev. Letter, vol. 77, n 18,
 FUNCTIONAL|  pp. 3865-3868, (1996){spin unpolarized}                           


 QS| Method:                                                                 GPW
 QS| Density plane wave grid type                        NON-SPHERICAL FULLSPACE
 QS| Number of grid levels:                                                    4
 QS| Density cutoff [a.u.]:                                                300.0
 QS| Multi grid cutoff [a.u.]: 1) grid level                               300.0
 QS|                           2) grid level                               100.0
 QS|                           3) grid level                                33.3
 QS|                           4) grid level                                11.1
 QS| Grid level progression factor:                                          3.0
 QS| Relative density cutoff [a.u.]:                                        30.0
 QS| Interaction thresholds: eps_pgf_orb:                                1.0E-05
 QS|                         eps_filter_matrix:                          0.0E+00
 QS|                         eps_core_charge:                            1.0E-12
 QS|                         eps_rho_gspace:                             1.0E-10
 QS|                         eps_rho_rspace:                             1.0E-10
 QS|                         eps_gvg_rspace:                             1.0E-05
 QS|                         eps_ppl:                                    1.0E-02
 QS|                         eps_ppnl:                                   1.0E-07


 ATOMIC KIND INFORMATION

  1. Atomic kind: Au                                    Number of atoms:     111

     Orbital Basis Set                                         SZV-MOLOPT-SR-GTH

       Number of orbital shell sets:                                           1
       Number of orbital shells:                                               3
       Number of primitive Cartesian functions:                                5
       Number of Cartesian basis functions:                                   10
       Number of spherical basis functions:                                    9
       Norm type:                                                              2

       Normalised Cartesian orbitals:

                        Set   Shell   Orbital            Exponent    Coefficient

                          1       1    2s                2.950008       0.074626
                                                         1.563057      -0.007898
                                                         0.666664      -0.297688
                                                         0.251083       0.136809
                                                         0.081714       0.088198

                          1       2    3px               2.950008       0.148824
                                                         1.563057       0.025430
                                                         0.666664      -0.123003
                                                         0.251083       0.033648
                                                         0.081714       0.059008
                          1       2    3py               2.950008       0.148824
                                                         1.563057       0.025430
                                                         0.666664      -0.123003
                                                         0.251083       0.033648
                                                         0.081714       0.059008
                          1       2    3pz               2.950008       0.148824
                                                         1.563057       0.025430
                                                         0.666664      -0.123003
                                                         0.251083       0.033648
                                                         0.081714       0.059008

                          1       3    4dx2              2.950008      -0.139595
                                                         1.563057       1.319655
                                                         0.666664       0.377081
                                                         0.251083       0.046872
                                                         0.081714       0.001393
                          1       3    4dxy              2.950008      -0.241786
                                                         1.563057       2.285709
                                                         0.666664       0.653124
                                                         0.251083       0.081185
                                                         0.081714       0.002412
                          1       3    4dxz              2.950008      -0.241786
                                                         1.563057       2.285709
                                                         0.666664       0.653124
                                                         0.251083       0.081185
                                                         0.081714       0.002412
                          1       3    4dy2              2.950008      -0.139595
                                                         1.563057       1.319655
                                                         0.666664       0.377081
                                                         0.251083       0.046872
                                                         0.081714       0.001393
                          1       3    4dyz              2.950008      -0.241786
                                                         1.563057       2.285709
                                                         0.666664       0.653124
                                                         0.251083       0.081185
                                                         0.081714       0.002412
                          1       3    4dz2              2.950008      -0.139595
                                                         1.563057       1.319655
                                                         0.666664       0.377081
                                                         0.251083       0.046872
                                                         0.081714       0.001393

       Atomic covalent radius [Angstrom]:                                  1.340

       Atomic van der Waals radius [Angstrom]:                             1.660

     GTH Potential information for                                   GTH-PBE-q11

       Description:                       Goedecker-Teter-Hutter pseudopotential
                                           Goedecker et al., PRB 54, 1703 (1996)
                                          Hartwigsen et al., PRB 58, 3641 (1998)
                                                      Krack, TCA 114, 145 (2005)

       Gaussian exponent of the core charge distribution:               1.436369
       Electronic configuration (s p d ...):                           1   0  10

       Parameters of the local part of the GTH pseudopotential:

                          rloc        C1          C2          C3          C4
                        0.590000   10.517179

       Parameters of the non-local part of the GTH pseudopotential:

                   l      r(l)      h(i,j,l)

                   0    0.543847    5.786811   -2.250680
                                   -2.250680    2.905615
                   1    0.609173    4.284049   -4.071285
                                   -4.071285    4.817210
                   2    0.437309   -7.403281    3.010193
                                    3.010193   -3.413238

  2. Atomic kind: H                                     Number of atoms:       2

     Orbital Basis Set                                        DZVP-MOLOPT-SR-GTH

       Number of orbital shell sets:                                           1
       Number of orbital shells:                                               3
       Number of primitive Cartesian functions:                                5
       Number of Cartesian basis functions:                                    5
       Number of spherical basis functions:                                    5
       Norm type:                                                              2

       Normalised Cartesian orbitals:

                        Set   Shell   Orbital            Exponent    Coefficient

                          1       1    2s               10.068468      -0.133023
                                                         2.680223      -0.177618
                                                         0.791502      -0.258419
                                                         0.239116      -0.107525
                                                         0.082193      -0.014019

                          1       2    3s               10.068468       0.344673
                                                         2.680223       1.819821
                                                         0.791502      -0.999069
                                                         0.239116       0.017430
                                                         0.082193       0.082660

                          1       3    3px              10.068468       0.155326
                                                         2.680223       0.367157
                                                         0.791502       0.311480
                                                         0.239116       0.080105
                                                         0.082193       0.033440
                          1       3    3py              10.068468       0.155326
                                                         2.680223       0.367157
                                                         0.791502       0.311480
                                                         0.239116       0.080105
                                                         0.082193       0.033440
                          1       3    3pz              10.068468       0.155326
                                                         2.680223       0.367157
                                                         0.791502       0.311480
                                                         0.239116       0.080105
                                                         0.082193       0.033440

       Atomic covalent radius [Angstrom]:                                  0.320

       Atomic van der Waals radius [Angstrom]:                             1.090

     GTH Potential information for                                    GTH-PBE-q1

       Description:                       Goedecker-Teter-Hutter pseudopotential
                                           Goedecker et al., PRB 54, 1703 (1996)
                                          Hartwigsen et al., PRB 58, 3641 (1998)
                                                      Krack, TCA 114, 145 (2005)

       Gaussian exponent of the core charge distribution:              12.500000
       Electronic configuration (s p d ...):                                   1

       Parameters of the local part of the GTH pseudopotential:

                          rloc        C1          C2          C3          C4
                        0.200000   -4.178900    0.724463


 MOLECULE KIND INFORMATION


 All atoms are their own molecule, skipping detailed information


 TOTAL NUMBERS AND MAXIMUM NUMBERS

  Total number of            - Atomic kinds:                                   2
                             - Atoms:                                        113
                             - Shell sets:                                   113
                             - Shells:                                       339
                             - Primitive Cartesian functions:                565
                             - Cartesian basis functions:                   1120
                             - Spherical basis functions:                   1009

  Maximum angular momentum of- Orbital basis functions:                        2
                             - Local part of the GTH pseudopotential:          2
                             - Non-local part of the GTH pseudopotential:      4


 MODULE QUICKSTEP: ATOMIC COORDINATES IN ANGSTROM

   Atom Kind Element         X             Y             Z       Z(eff)     Mass
      1    1 Au   79      1.787000      1.281000      0.000000  11.0000 196.9666
      2    1 Au   79      0.309000      2.759000      2.090000  11.0000 196.9666
      3    1 Au   79      1.787000      1.281000      4.180000  11.0000 196.9666
      4    1 Au   79      0.309000      2.759000      6.270000  11.0000 196.9666
      5    1 Au   79      4.743000      1.281000      0.000000  11.0000 196.9666
      6    1 Au   79      3.265000      2.759000      2.090000  11.0000 196.9666
      7    1 Au   79      4.743000      1.281000      4.180000  11.0000 196.9666
      8    1 Au   79      3.265000      2.759000      6.270000  11.0000 196.9666
      9    1 Au   79      7.699000      1.281000      0.000000  11.0000 196.9666
     10    1 Au   79      6.221000      2.759000      2.090000  11.0000 196.9666
     11    1 Au   79      7.699000      1.281000      4.180000  11.0000 196.9666
     12    1 Au   79      6.221000      2.759000      6.270000  11.0000 196.9666
     13    1 Au   79      1.787000      4.236000      0.000000  11.0000 196.9666
     14    1 Au   79      0.309000      5.714000      2.090000  11.0000 196.9666
     15    1 Au   79      1.787000      4.236000      4.180000  11.0000 196.9666
     16    1 Au   79      0.309000      5.714000      6.270000  11.0000 196.9666
     17    1 Au   79      4.743000      4.236000      0.000000  11.0000 196.9666
     18    1 Au   79      3.265000      5.714000      2.090000  11.0000 196.9666
     19    1 Au   79      4.743000      4.236000      4.180000  11.0000 196.9666
     20    1 Au   79      3.265000      5.714000      6.270000  11.0000 196.9666
     21    1 Au   79      7.699000      4.236000      0.000000  11.0000 196.9666
     22    1 Au   79      6.221000      5.714000      2.090000  11.0000 196.9666
     23    1 Au   79      7.699000      4.236000      4.180000  11.0000 196.9666
     24    1 Au   79      6.221000      5.714000      6.270000  11.0000 196.9666
     25    1 Au   79      1.787000      7.192000      0.000000  11.0000 196.9666
     26    1 Au   79      0.309000      8.670000      2.090000  11.0000 196.9666
     27    1 Au   79      1.787000      7.192000      4.180000  11.0000 196.9666
     28    1 Au   79      0.309000      8.670000      6.270000  11.0000 196.9666
     29    1 Au   79      4.743000      7.192000      0.000000  11.0000 196.9666
     30    1 Au   79      3.265000      8.670000      2.090000  11.0000 196.9666
     31    1 Au   79      4.743000      7.192000      4.180000  11.0000 196.9666
     32    1 Au   79      3.265000      8.670000      6.270000  11.0000 196.9666
     33    1 Au   79      7.699000      7.192000      0.000000  11.0000 196.9666
     34    1 Au   79      6.221000      8.670000      2.090000  11.0000 196.9666
     35    1 Au   79      7.699000      7.192000      4.180000  11.0000 196.9666
     36    1 Au   79      6.221000      8.670000      6.270000  11.0000 196.9666
     37    1 Au   79      1.787000      1.281000      8.360000  11.0000 196.9666
     38    1 Au   79      1.787000      4.236000      8.360000  11.0000 196.9666
     39    1 Au   79      1.787000      7.192000      8.360000  11.0000 196.9666
     40    1 Au   79      4.743000      1.281000      8.360000  11.0000 196.9666
     41    1 Au   79      4.743000      4.236000      8.360000  11.0000 196.9666
     42    1 Au   79      4.743000      7.192000      8.360000  11.0000 196.9666
     43    1 Au   79      7.699000      1.281000      8.360000  11.0000 196.9666
     44    1 Au   79      7.699000      4.236000      8.360000  11.0000 196.9666
     45    1 Au   79      7.699000      7.192000      8.360000  11.0000 196.9666
     46    1 Au   79      0.309000      2.759000     10.450000  11.0000 196.9666
     47    1 Au   79      0.309000      5.714000     10.450000  11.0000 196.9666
     48    1 Au   79      0.309000      8.670000     10.450000  11.0000 196.9666
     49    1 Au   79      3.265000      2.759000     10.450000  11.0000 196.9666
     50    1 Au   79      3.265000      5.714000     10.450000  11.0000 196.9666
     51    1 Au   79      3.265000      8.670000     10.450000  11.0000 196.9666
     52    1 Au   79      6.221000      2.759000     10.450000  11.0000 196.9666
     53    1 Au   79      6.221000      5.714000     10.450000  11.0000 196.9666
     54    1 Au   79      6.221000      8.670000     10.450000  11.0000 196.9666
     55    1 Au   79      1.767000      4.215000     12.446000  11.0000 196.9666
     56    1 Au   79      1.766000      7.214000     12.446000  11.0000 196.9666
     57    1 Au   79      4.765000      4.213000     12.446000  11.0000 196.9666
     58    1 Au   79      4.767000      7.214000     12.445000  11.0000 196.9666
     59    1 Au   79      3.268000      5.717000     14.396000  11.0000 196.9666
     60    1 Au   79      3.267000      5.744000     17.050000  11.0000 196.9666
     61    2 H     1      3.254000      5.720000     18.927000   1.0000   1.0079
     62    2 H     1      3.260000      5.726000     19.796000   1.0000   1.0079
     63    1 Au   79      3.233000      5.712000     21.672000  11.0000 196.9666
     64    1 Au   79      3.264000      5.714000     24.326000  11.0000 196.9666
     65    1 Au   79      1.765000      4.213000     26.275000  11.0000 196.9666
     66    1 Au   79      1.765000      7.214000     26.274000  11.0000 196.9666
     67    1 Au   79      4.765000      4.214000     26.274000  11.0000 196.9666
     68    1 Au   79      4.765000      7.214000     26.275000  11.0000 196.9666
     69    1 Au   79      0.309000      2.759000     28.270000  11.0000 196.9666
     70    1 Au   79      0.309000      5.714000     28.270000  11.0000 196.9666
     71    1 Au   79      0.309000      8.670000     28.270000  11.0000 196.9666
     72    1 Au   79      3.265000      2.759000     28.270000  11.0000 196.9666
     73    1 Au   79      3.265000      5.714000     28.270000  11.0000 196.9666
     74    1 Au   79      3.265000      8.670000     28.270000  11.0000 196.9666
     75    1 Au   79      6.221000      2.759000     28.270000  11.0000 196.9666
     76    1 Au   79      6.221000      5.714000     28.270000  11.0000 196.9666
     77    1 Au   79      6.221000      8.670000     28.270000  11.0000 196.9666
     78    1 Au   79      1.787000      1.281000     30.360000  11.0000 196.9666
     79    1 Au   79      0.309000      2.759000     32.450000  11.0000 196.9666
     80    1 Au   79      1.787000      1.281000     34.540000  11.0000 196.9666
     81    1 Au   79      0.309000      2.759000     36.630000  11.0000 196.9666
     82    1 Au   79      4.743000      1.281000     30.360000  11.0000 196.9666
     83    1 Au   79      3.265000      2.759000     32.450000  11.0000 196.9666
     84    1 Au   79      4.743000      1.281000     34.540000  11.0000 196.9666
     85    1 Au   79      3.265000      2.759000     36.630000  11.0000 196.9666
     86    1 Au   79      7.699000      1.281000     30.360000  11.0000 196.9666
     87    1 Au   79      6.221000      2.759000     32.450000  11.0000 196.9666
     88    1 Au   79      7.699000      1.281000     34.540000  11.0000 196.9666
     89    1 Au   79      6.221000      2.759000     36.630000  11.0000 196.9666
     90    1 Au   79      1.787000      4.236000     30.360000  11.0000 196.9666
     91    1 Au   79      0.309000      5.714000     32.450000  11.0000 196.9666
     92    1 Au   79      1.787000      4.236000     34.540000  11.0000 196.9666
     93    1 Au   79      0.309000      5.714000     36.630000  11.0000 196.9666
     94    1 Au   79      4.743000      4.236000     30.360000  11.0000 196.9666
     95    1 Au   79      3.265000      5.714000     32.450000  11.0000 196.9666
     96    1 Au   79      4.743000      4.236000     34.540000  11.0000 196.9666
     97    1 Au   79      3.265000      5.714000     36.630000  11.0000 196.9666
     98    1 Au   79      7.699000      4.236000     30.360000  11.0000 196.9666
     99    1 Au   79      6.221000      5.714000     32.450000  11.0000 196.9666
    100    1 Au   79      7.699000      4.236000     34.540000  11.0000 196.9666
    101    1 Au   79      6.221000      5.714000     36.630000  11.0000 196.9666
    102    1 Au   79      1.787000      7.192000     30.360000  11.0000 196.9666
    103    1 Au   79      0.309000      8.670000     32.450000  11.0000 196.9666
    104    1 Au   79      1.787000      7.192000     34.540000  11.0000 196.9666
    105    1 Au   79      0.309000      8.670000     36.630000  11.0000 196.9666
    106    1 Au   79      4.743000      7.192000     30.360000  11.0000 196.9666
    107    1 Au   79      3.265000      8.670000     32.450000  11.0000 196.9666
    108    1 Au   79      4.743000      7.192000     34.540000  11.0000 196.9666
    109    1 Au   79      3.265000      8.670000     36.630000  11.0000 196.9666
    110    1 Au   79      7.699000      7.192000     30.360000  11.0000 196.9666
    111    1 Au   79      6.221000      8.670000     32.450000  11.0000 196.9666
    112    1 Au   79      7.699000      7.192000     34.540000  11.0000 196.9666
    113    1 Au   79      6.221000      8.670000     36.630000  11.0000 196.9666



 SCF PARAMETERS         Density guess:                                   RESTART
                        --------------------------------------------------------
                        max_scf:                                             500
                        max_scf_history:                                       0
                        max_diis:                                              4
                        --------------------------------------------------------
                        eps_scf:                                        1.00E-08
                        eps_scf_history:                                0.00E+00
                        eps_diis:                                       1.00E-01
                        eps_eigval:                                     1.00E-05
                        --------------------------------------------------------
                        level_shift [a.u.]:                             0.000000
                        added MOs                                       100    0
                        --------------------------------------------------------
                        Mixing method:                            BROYDEN_MIXING
                                                charge density mixing in g-space
                        --------------------------------------------------------
                        Smear method:                                FERMI_DIRAC
                        Electronic temperature [K]:                        293.0
                        Electronic temperature [a.u.]:                  9.28E-04
                        Accuracy threshold:                             1.00E-10
                        --------------------------------------------------------
                        No outer SCF

 PW_GRID| Information for grid number                                          1
 PW_GRID| Grid distributed over                                   576 processors
 PW_GRID| Real space group dimensions                                    24   24
 PW_GRID| the grid is blocked:                                               YES
 PW_GRID| Cutoff [a.u.]                                                    300.0
 PW_GRID| spherical cutoff:                                                   NO
 PW_GRID|   Bounds   1            -66      65                Points:         132
 PW_GRID|   Bounds   2            -66      65                Points:         132
 PW_GRID|   Bounds   3           -288     287                Points:         576
 PW_GRID| Volume element (a.u.^3)  0.2047E-02     Volume (a.u.^3)     20544.5734
 PW_GRID| Grid span                                                    FULLSPACE
 PW_GRID|   Distribution                         Average         Max         Min
 PW_GRID|   G-Vectors                            17424.0       19008       15840
 PW_GRID|   G-Rays                                 132.0         144         120
 PW_GRID|   Real Space Points                    17424.0       19008       15840

 PW_GRID| Information for grid number                                          2
 PW_GRID| Number of the reference grid                                         1
 PW_GRID| Grid distributed over                                   576 processors
 PW_GRID| Real space group dimensions                                    24   24
 PW_GRID| the grid is blocked:                                                NO
 PW_GRID| Cutoff [a.u.]                                                    100.0
 PW_GRID| spherical cutoff:                                                   NO
 PW_GRID|   Bounds   1            -37      37                Points:          75
 PW_GRID|   Bounds   2            -37      37                Points:          75
 PW_GRID|   Bounds   3           -165     164                Points:         330
 PW_GRID| Volume element (a.u.^3)  0.1107E-01     Volume (a.u.^3)     20544.5734
 PW_GRID| Grid span                                                    FULLSPACE
 PW_GRID|   Distribution                         Average         Max         Min
 PW_GRID|   G-Vectors                             3222.7       10800           0
 PW_GRID|   G-Rays                                  43.0         144           0
 PW_GRID|   Real Space Points                     3222.7        5280        2970

 PW_GRID| Information for grid number                                          3
 PW_GRID| Number of the reference grid                                         1
 PW_GRID| Grid distributed over                                   576 processors
 PW_GRID| Real space group dimensions                                    24   24
 PW_GRID| the grid is blocked:                                                NO
 PW_GRID| Cutoff [a.u.]                                                     33.3
 PW_GRID| spherical cutoff:                                                   NO
 PW_GRID|   Bounds   1            -22      21                Points:          44
 PW_GRID|   Bounds   2            -22      21                Points:          44
 PW_GRID|   Bounds   3            -96      95                Points:         192
 PW_GRID| Volume element (a.u.^3)  0.5527E-01     Volume (a.u.^3)     20544.5734
 PW_GRID| Grid span                                                    FULLSPACE
 PW_GRID|   Distribution                         Average         Max         Min
 PW_GRID|   G-Vectors                              645.3        6336           0
 PW_GRID|   G-Rays                                  14.7         144           0
 PW_GRID|   Real Space Points                      645.3         768         192

 PW_GRID| Information for grid number                                          4
 PW_GRID| Number of the reference grid                                         1
 PW_GRID| Grid distributed over                                   576 processors
 PW_GRID| Real space group dimensions                                    24   24
 PW_GRID| the grid is blocked:                                                NO
 PW_GRID| Cutoff [a.u.]                                                     11.1
 PW_GRID| spherical cutoff:                                                   NO
 PW_GRID|   Bounds   1            -12      12                Points:          25
 PW_GRID|   Bounds   2            -12      12                Points:          25
 PW_GRID|   Bounds   3            -55      54                Points:         110
 PW_GRID| Volume element (a.u.^3)  0.2988         Volume (a.u.^3)     20544.5734
 PW_GRID| Grid span                                                    FULLSPACE
 PW_GRID|   Distribution                         Average         Max         Min
 PW_GRID|   G-Vectors                              119.4        3600           0
 PW_GRID|   G-Rays                                   4.8         144           0
 PW_GRID|   Real Space Points                      119.4         440         110

 POISSON| Solver                                                        PERIODIC
 POISSON| Periodicity                                                        XYZ

 RS_GRID| Information for grid number                                          1
 RS_GRID|   Bounds   1            -66      65                Points:         132
 RS_GRID|   Bounds   2            -66      65                Points:         132
 RS_GRID|   Bounds   3           -288     287                Points:         576
 RS_GRID| Real space distribution over                                 12 groups
 RS_GRID| Real space distribution along direction                              2
 RS_GRID| Border size                                                         35
 RS_GRID| Real space distribution over                                 48 groups
 RS_GRID| Real space distribution along direction                              3
 RS_GRID| Border size                                                         35
 RS_GRID|   Distribution                         Average         Max         Min
 RS_GRID|   Planes                                  81.0          81          81
 RS_GRID|   Distribution                         Average         Max         Min
 RS_GRID|   Planes                                  82.0          82          82

 RS_GRID| Information for grid number                                          2
 RS_GRID|   Bounds   1            -37      37                Points:          75
 RS_GRID|   Bounds   2            -37      37                Points:          75
 RS_GRID|   Bounds   3           -165     164                Points:         330
 RS_GRID| Real space distribution over                                 12 groups
 RS_GRID| Real space distribution along direction                              2
 RS_GRID| Border size                                                         24
 RS_GRID| Real space distribution over                                 48 groups
 RS_GRID| Real space distribution along direction                              3
 RS_GRID| Border size                                                         24
 RS_GRID|   Distribution                         Average         Max         Min
 RS_GRID|   Planes                                  54.2          55          54
 RS_GRID|   Distribution                         Average         Max         Min
 RS_GRID|   Planes                                  54.9          55          54

 RS_GRID| Information for grid number                                          3
 RS_GRID|   Bounds   1            -22      21                Points:          44
 RS_GRID|   Bounds   2            -22      21                Points:          44
 RS_GRID|   Bounds   3            -96      95                Points:         192
 RS_GRID| Real space fully replicated
 RS_GRID| Group size                                                           1

 RS_GRID| Information for grid number                                          4
 RS_GRID|   Bounds   1            -12      12                Points:          25
 RS_GRID|   Bounds   2            -12      12                Points:          25
 RS_GRID|   Bounds   3            -55      54                Points:         110
 RS_GRID| Real space fully replicated
 RS_GRID| Group size                                                           1

 KPOINTS| Number of kpoint groups                                              1
 KPOINTS| Size of each kpoint group                                          576
 KPOINTS| Number of kpoints per group                                          9

 MD_PAR| Molecular dynamics protocol (MD input parameters)
 MD_PAR| Ensemble type                                                       NVE
 MD_PAR| Number of time steps                                                  0
 MD_PAR| Time step [fs]                                                 0.500000
 MD_PAR| Temperature [K]                                              300.000000
 MD_PAR| Temperature tolerance [K]                                      0.000000
 MD_PAR| Constraints activated
 MD_PAR| Tolerance for shake                                            0.000001
 MD_PAR| Print MD information every                                    1 step(s)
 MD_PAR| File type   Print frequency [steps]                          File names
 MD_PAR| Coordinates          1                                   0.1V-pos-1.xyz
 MD_PAR| Velocities           1                                   0.1V-vel-1.xyz
 MD_PAR| Energies             1                                      0.1V-1.ener
 MD_PAR| Dump                20                                   0.1V-1.restart

 ROT| Rotational analysis information
 ROT| Principal axes and moments of inertia [a.u.]
 ROT|                           1                   2                   3
 ROT| Eigenvalues      1.67160257134E+09   2.60885103588E+10   2.62353210267E+10
 ROT|      x             -0.008051021613     -0.707622635902     -0.706544680972
 ROT|      y              0.008039094341      0.706498944920     -0.707668434925
 ROT|      z              0.999935274912     -0.011377433211      0.000000606853
 ROT| Number of rotovibrational vectors                                        6

 DOF| Calculation of degrees of freedom
 DOF| Number of atoms                                                        113
 DOF| Number of intramolecular constraints                                   297
 DOF| Number of intermolecular constraints                                     0
 DOF| Invariants (translations + rotations)                                    3
 DOF| Degrees of freedom                                                      39

 DOF| Restraints information
 DOF| Number of intramolecular restraints                                      0
 DOF| Number of intermolecular restraints                                      0

 MD_VEL| Velocities initialization
 MD_VEL| Initial temperature [K]                                      300.000000
 MD_VEL| COM velocity             0.0000000000    -0.0000000000    -0.0000000000

 Number of electrons:                                                       1223
 Number of occupied orbitals:                                                612
 Number of molecular orbitals:                                               712

 Number of orbital functions:                                               1009
 Number of independent orbital functions:                                   1009

 Extrapolation method: initial_guess


 SCF WAVEFUNCTION OPTIMIZATION

  Step     Update method      Time    Convergence         Total energy    Change
  ------------------------------------------------------------------------------
 SMEAGOL DEBUG| Number of electrons in the unit cell =      1222.9607395975
     1 NoMix/SMGL  0.30E+00   42.4     0.00831342     -3690.6432614900 -3.69E+03
 SMEAGOL DEBUG| Number of electrons in the unit cell =      1222.9522721591
     2 Broy./SMGL  0.30E+00    3.3     0.01678526     -3690.6280924857  1.52E-02
 SMEAGOL DEBUG| Number of electrons in the unit cell =      1222.9563131634
     3 Broy./SMGL  0.30E+00    3.4     0.01346593     -3690.6882106462 -6.01E-02
 SMEAGOL DEBUG| Number of electrons in the unit cell =      1222.9604079100
     4 Broy./SMGL  0.30E+00    3.2     0.00189166     -3690.6527298456  3.55E-02
 SMEAGOL DEBUG| Number of electrons in the unit cell =      1222.9634196295
     5 Broy./SMGL  0.30E+00    3.2     0.00077710     -3690.6370365664  1.57E-02
 SMEAGOL DEBUG| Number of electrons in the unit cell =      1222.9606693025
     6 Broy./SMGL  0.30E+00    3.2     0.00016783     -3690.6532412104 -1.62E-02
 SMEAGOL DEBUG| Number of electrons in the unit cell =      1222.9597922222
     7 Broy./SMGL  0.30E+00    3.2     0.00040678     -3690.6445072299  8.73E-03
 SMEAGOL DEBUG| Number of electrons in the unit cell =      1222.9599925413
     8 Broy./SMGL  0.30E+00    3.2     0.00002998     -3690.6418106861  2.70E-03
 SMEAGOL DEBUG| Number of electrons in the unit cell =      1222.9604782957
     9 Broy./SMGL  0.30E+00    3.2     0.00004053     -3690.6425267169 -7.16E-04
 SMEAGOL DEBUG| Number of electrons in the unit cell =      1222.9607413241
    10 Broy./SMGL  0.30E+00    3.2     0.00006034     -3690.6430390475 -5.12E-04
 SMEAGOL DEBUG| Number of electrons in the unit cell =      1222.9608595512
    11 Broy./SMGL  0.30E+00    3.2     0.00005340     -3690.6429442590  9.48E-05
 SMEAGOL DEBUG| Number of electrons in the unit cell =      1222.9609131017
    12 Broy./SMGL  0.30E+00    3.2     0.00002596     -3690.6427818485  1.62E-04
 SMEAGOL DEBUG| Number of electrons in the unit cell =      1222.9608895257
    13 Broy./SMGL  0.30E+00    3.2     0.00000380     -3690.6428281261 -4.63E-05
 SMEAGOL DEBUG| Number of electrons in the unit cell =      1222.9608752128
    14 Broy./SMGL  0.30E+00    3.2     0.00000484     -3690.6428421140 -1.40E-05
 SMEAGOL DEBUG| Number of electrons in the unit cell =      1222.9608231641
    15 Broy./SMGL  0.30E+00    3.2     0.00000495     -3690.6428704133 -2.83E-05
 SMEAGOL DEBUG| Number of electrons in the unit cell =      1222.9608069068
    16 Broy./SMGL  0.30E+00    3.2     0.00000302     -3690.6428327318  3.77E-05
 SMEAGOL DEBUG| Number of electrons in the unit cell =      1222.9607869932
    17 Broy./SMGL  0.30E+00    3.2     0.00000162     -3690.6428558141 -2.31E-05
 SMEAGOL DEBUG| Number of electrons in the unit cell =      1222.9607866247
    18 Broy./SMGL  0.30E+00    3.2     0.00000120     -3690.6428434691  1.23E-05
 SMEAGOL DEBUG| Number of electrons in the unit cell =      1222.9607914263
    19 Broy./SMGL  0.30E+00    3.2     0.00000040     -3690.6428472370 -3.77E-06
 SMEAGOL DEBUG| Number of electrons in the unit cell =      1222.9607964625
    20 Broy./SMGL  0.30E+00    3.2     0.00000096     -3690.6428484858 -1.25E-06
 SMEAGOL DEBUG| Number of electrons in the unit cell =      1222.9608046139
    21 Broy./SMGL  0.30E+00    3.2     0.00000063     -3690.6428413062  7.18E-06
 SMEAGOL DEBUG| Number of electrons in the unit cell =      1222.9608089049
    22 Broy./SMGL  0.30E+00    3.2     0.00000021     -3690.6428445273 -3.22E-06
 SMEAGOL DEBUG| Number of electrons in the unit cell =      1222.9608104069
    23 Broy./SMGL  0.30E+00    3.2     0.00000058     -3690.6428478583 -3.33E-06
 SMEAGOL DEBUG| Number of electrons in the unit cell =      1222.9608124018
    24 Broy./SMGL  0.30E+00    3.2     0.00000019     -3690.6428431251  4.73E-06
 SMEAGOL DEBUG| Number of electrons in the unit cell =      1222.9608122071
    25 Broy./SMGL  0.30E+00    3.2     0.00000008     -3690.6428451329 -2.01E-06
 SMEAGOL DEBUG| Number of electrons in the unit cell =      1222.9608128749
    26 Broy./SMGL  0.30E+00    3.2     0.00000007     -3690.6428452986 -1.66E-07
 SMEAGOL DEBUG| Number of electrons in the unit cell =      1222.9608126516
    27 Broy./SMGL  0.30E+00    3.2     0.00000007     -3690.6428461156 -8.17E-07
 SMEAGOL DEBUG| Number of electrons in the unit cell =      1222.9608121852
    28 Broy./SMGL  0.30E+00    3.2     0.00000005     -3690.6428461711 -5.55E-08
 SMEAGOL DEBUG| Number of electrons in the unit cell =      1222.9608115199
    29 Broy./SMGL  0.30E+00    3.2     0.00000008     -3690.6428464075 -2.36E-07
 SMEAGOL DEBUG| Number of electrons in the unit cell =      1222.9608112443
    30 Broy./SMGL  0.30E+00    3.2     0.00000003     -3690.6428462830  1.24E-07
 SMEAGOL DEBUG| Number of electrons in the unit cell =      1222.9608111565
    31 Broy./SMGL  0.30E+00    3.2     6.3605E-09     -3690.6428461940  8.90E-08

  *** SCF run converged in    31 steps ***


  Electronic density on regular grids:      -1222.9608111565        0.0391888435
  Core density on regular grids:             1222.9999997993       -0.0000002007
  Total charge density on r-space grids:        0.0391886428
  Total charge density g-space grids:           0.0391886428

  Overlap energy of the core charge distribution:               0.00000048998631
  Self energy of the core charge distribution:              -6424.54153828207382
  Core Hamiltonian energy:                                   2053.17627588552295
  Hartree energy:                                            1264.25141971666721
  Exchange-correlation energy:                               -583.52900400407123
  Electronic entropic energy:                                   0.00000000000000
  Fermi energy:                                                 0.00000000000000

  Total energy:                                             -3690.64284619396813

 The electron density is written in cube file format to the file:

 0.1V-ELECTRON_DENSITY-1_0.cube

 !-----------------------------------------------------------------------------!
                     Mulliken Population Analysis

 #  Atom  Element  Kind  Atomic population                           Net charge
       1     Au       1         11.000100                             -0.000100
       2     Au       1         10.999285                              0.000715
       3     Au       1         10.986577                              0.013423
       4     Au       1         10.984935                              0.015065
       5     Au       1         11.000161                             -0.000161
       6     Au       1         10.999549                              0.000451
       7     Au       1         10.986638                              0.013362
       8     Au       1         10.978330                              0.021670
       9     Au       1         10.999917                              0.000083
      10     Au       1         10.999469                              0.000531
      11     Au       1         10.985082                              0.014918
      12     Au       1         10.985131                              0.014869
      13     Au       1         10.999858                              0.000142
      14     Au       1         10.999502                              0.000498
      15     Au       1         10.987327                              0.012673
      16     Au       1         10.978297                              0.021703
      17     Au       1         10.999919                              0.000081
      18     Au       1         10.999799                              0.000201
      19     Au       1         10.987394                              0.012606
      20     Au       1         10.975222                              0.024778
      21     Au       1         10.999675                              0.000325
      22     Au       1         10.999686                              0.000314
      23     Au       1         10.986142                              0.013858
      24     Au       1         10.978479                              0.021521
      25     Au       1         11.000143                             -0.000143
      26     Au       1         10.999591                              0.000409
      27     Au       1         10.987620                              0.012380
      28     Au       1         10.985287                              0.014713
      29     Au       1         11.000204                             -0.000204
      30     Au       1         10.999854                              0.000146
      31     Au       1         10.987687                              0.012313
      32     Au       1         10.978716                              0.021284
      33     Au       1         10.999960                              0.000040
      34     Au       1         10.999775                              0.000225
      35     Au       1         10.986420                              0.013580
      36     Au       1         10.985500                              0.014500
      37     Au       1         10.989369                              0.010631
      38     Au       1         10.949084                              0.050916
      39     Au       1         10.949542                              0.050458
      40     Au       1         10.989618                              0.010382
      41     Au       1         10.949326                              0.050674
      42     Au       1         10.949779                              0.050221
      43     Au       1         11.023160                             -0.023160
      44     Au       1         10.988923                              0.011077
      45     Au       1         10.989314                              0.010686
      46     Au       1         11.078970                             -0.078970
      47     Au       1         11.027943                             -0.027943
      48     Au       1         11.079133                             -0.079133
      49     Au       1         11.028027                             -0.028027
      50     Au       1         10.888713                              0.111287
      51     Au       1         11.028271                             -0.028271
      52     Au       1         11.079049                             -0.079049
      53     Au       1         11.027865                             -0.027865
      54     Au       1         11.079112                             -0.079112
      55     Au       1         11.000925                             -0.000925
      56     Au       1         11.000317                             -0.000317
      57     Au       1         11.000681                             -0.000681
      58     Au       1         11.000123                             -0.000123
      59     Au       1         11.137022                             -0.137022
      60     Au       1         11.091821                             -0.091821
      61     H        2          0.949927                              0.050073
      62     H        2          0.950766                              0.049234
      63     Au       1         11.085688                             -0.085688
      64     Au       1         11.156373                             -0.156373
      65     Au       1         11.009095                             -0.009095
      66     Au       1         11.009185                             -0.009185
      67     Au       1         11.009623                             -0.009623
      68     Au       1         11.009690                             -0.009690
      69     Au       1         11.029978                             -0.029978
      70     Au       1         10.986804                              0.013196
      71     Au       1         11.030324                             -0.030324
      72     Au       1         10.986991                              0.013009
      73     Au       1         10.863652                              0.136348
      74     Au       1         10.987320                              0.012680
      75     Au       1         11.030245                             -0.030245
      76     Au       1         10.986919                              0.013081
      77     Au       1         11.030394                             -0.030394
      78     Au       1         11.002729                             -0.002729
      79     Au       1         10.989244                              0.010756
      80     Au       1         10.999741                              0.000259
      81     Au       1         10.999684                              0.000316
      82     Au       1         11.002906                             -0.002906
      83     Au       1         10.988448                              0.011552
      84     Au       1         10.999804                              0.000196
      85     Au       1         10.999930                              0.000070
      86     Au       1         11.027455                             -0.027455
      87     Au       1         10.989395                              0.010605
      88     Au       1         10.999504                              0.000496
      89     Au       1         10.999868                              0.000132
      90     Au       1         10.968777                              0.031223
      91     Au       1         10.988392                              0.011608
      92     Au       1         10.999525                              0.000475
      93     Au       1         10.999883                              0.000117
      94     Au       1         10.968850                              0.031150
      95     Au       1         10.991720                              0.008280
      96     Au       1         10.999587                              0.000413
      97     Au       1         11.000130                             -0.000130
      98     Au       1         11.002347                             -0.002347
      99     Au       1         10.988581                              0.011419
     100     Au       1         10.999316                              0.000684
     101     Au       1         11.000067                             -0.000067
     102     Au       1         10.969094                              0.030906
     103     Au       1         10.989548                              0.010452
     104     Au       1         10.999811                              0.000189
     105     Au       1         10.999987                              0.000013
     106     Au       1         10.969181                              0.030819
     107     Au       1         10.988756                              0.011244
     108     Au       1         10.999873                              0.000127
     109     Au       1         11.000233                             -0.000233
     110     Au       1         11.002674                             -0.002674
     111     Au       1         10.989703                              0.010297
     112     Au       1         10.999602                              0.000398
     113     Au       1         11.000170                             -0.000170
 # Total charge                           1222.960811                  0.039189

 !-----------------------------------------------------------------------------!

 !-----------------------------------------------------------------------------!
                           Hirshfeld Charges

  #Atom  Element  Kind  Ref Charge     Population                    Net charge
      1       Au     1      11.000         11.000                        -0.000
      2       Au     1      11.000         11.000                         0.000
      3       Au     1      11.000         10.998                         0.002
      4       Au     1      11.000         10.989                         0.011
      5       Au     1      11.000         11.000                        -0.000
      6       Au     1      11.000         11.000                         0.000
      7       Au     1      11.000         10.998                         0.002
      8       Au     1      11.000         10.991                         0.009
      9       Au     1      11.000         11.000                         0.000
     10       Au     1      11.000         11.000                         0.000
     11       Au     1      11.000         10.998                         0.002
     12       Au     1      11.000         10.989                         0.011
     13       Au     1      11.000         11.000                         0.000
     14       Au     1      11.000         11.000                         0.000
     15       Au     1      11.000         10.999                         0.001
     16       Au     1      11.000         10.991                         0.009
     17       Au     1      11.000         11.000                         0.000
     18       Au     1      11.000         11.000                        -0.000
     19       Au     1      11.000         10.999                         0.001
     20       Au     1      11.000         10.989                         0.011
     21       Au     1      11.000         11.000                         0.000
     22       Au     1      11.000         11.000                        -0.000
     23       Au     1      11.000         10.998                         0.002
     24       Au     1      11.000         10.991                         0.009
     25       Au     1      11.000         11.000                        -0.000
     26       Au     1      11.000         11.000                         0.000
     27       Au     1      11.000         10.999                         0.001
     28       Au     1      11.000         10.989                         0.011
     29       Au     1      11.000         11.000                        -0.000
     30       Au     1      11.000         11.000                        -0.000
     31       Au     1      11.000         10.999                         0.001
     32       Au     1      11.000         10.991                         0.009
     33       Au     1      11.000         11.000                         0.000
     34       Au     1      11.000         11.000                        -0.000
     35       Au     1      11.000         10.998                         0.002
     36       Au     1      11.000         10.989                         0.011
     37       Au     1      11.000         10.996                         0.004
     38       Au     1      11.000         10.997                         0.003
     39       Au     1      11.000         10.997                         0.003
     40       Au     1      11.000         10.996                         0.004
     41       Au     1      11.000         10.997                         0.003
     42       Au     1      11.000         10.997                         0.003
     43       Au     1      11.000         10.997                         0.003
     44       Au     1      11.000         10.996                         0.004
     45       Au     1      11.000         10.996                         0.004
     46       Au     1      11.000         11.030                        -0.030
     47       Au     1      11.000         11.011                        -0.011
     48       Au     1      11.000         11.030                        -0.030
     49       Au     1      11.000         11.011                        -0.011
     50       Au     1      11.000         10.971                         0.029
     51       Au     1      11.000         11.011                        -0.011
     52       Au     1      11.000         11.030                        -0.030
     53       Au     1      11.000         11.011                        -0.011
     54       Au     1      11.000         11.030                        -0.030
     55       Au     1      11.000         10.974                         0.026
     56       Au     1      11.000         10.974                         0.026
     57       Au     1      11.000         10.974                         0.026
     58       Au     1      11.000         10.974                         0.026
     59       Au     1      11.000         11.027                        -0.027
     60       Au     1      11.000         11.019                        -0.019
     61       H      2       1.000          1.039                        -0.039
     62       H      2       1.000          1.041                        -0.041
     63       Au     1      11.000         11.012                        -0.012
     64       Au     1      11.000         11.033                        -0.033
     65       Au     1      11.000         10.977                         0.023
     66       Au     1      11.000         10.977                         0.023
     67       Au     1      11.000         10.977                         0.023
     68       Au     1      11.000         10.977                         0.023
     69       Au     1      11.000         11.032                        -0.032
     70       Au     1      11.000         11.013                        -0.013
     71       Au     1      11.000         11.032                        -0.032
     72       Au     1      11.000         11.013                        -0.013
     73       Au     1      11.000         10.976                         0.024
     74       Au     1      11.000         11.013                        -0.013
     75       Au     1      11.000         11.032                        -0.032
     76       Au     1      11.000         11.013                        -0.013
     77       Au     1      11.000         11.032                        -0.032
     78       Au     1      11.000         10.980                         0.020
     79       Au     1      11.000         10.999                         0.001
     80       Au     1      11.000         11.000                        -0.000
     81       Au     1      11.000         11.000                         0.000
     82       Au     1      11.000         10.980                         0.020
     83       Au     1      11.000         10.998                         0.002
     84       Au     1      11.000         11.000                        -0.000
     85       Au     1      11.000         11.000                         0.000
     86       Au     1      11.000         10.985                         0.015
     87       Au     1      11.000         10.999                         0.001
     88       Au     1      11.000         11.000                         0.000
     89       Au     1      11.000         11.000                         0.000
     90       Au     1      11.000         10.983                         0.017
     91       Au     1      11.000         10.998                         0.002
     92       Au     1      11.000         11.000                         0.000
     93       Au     1      11.000         11.000                         0.000
     94       Au     1      11.000         10.984                         0.016
     95       Au     1      11.000         10.998                         0.002
     96       Au     1      11.000         11.000                         0.000
     97       Au     1      11.000         11.000                        -0.000
     98       Au     1      11.000         10.980                         0.020
     99       Au     1      11.000         10.998                         0.002
    100       Au     1      11.000         11.000                         0.000
    101       Au     1      11.000         11.000                        -0.000
    102       Au     1      11.000         10.984                         0.016
    103       Au     1      11.000         10.999                         0.001
    104       Au     1      11.000         11.000                        -0.000
    105       Au     1      11.000         11.000                         0.000
    106       Au     1      11.000         10.984                         0.016
    107       Au     1      11.000         10.998                         0.002
    108       Au     1      11.000         11.000                        -0.000
    109       Au     1      11.000         11.000                        -0.000
    110       Au     1      11.000         10.980                         0.020
    111       Au     1      11.000         10.999                         0.001
    112       Au     1      11.000         11.000                         0.000
    113       Au     1      11.000         11.000                        -0.000

  Total Charge                                                            0.039
 !-----------------------------------------------------------------------------!
 Calculating transmission coefficient
 SMEAGOL DEBUG| Number of electrons in the unit cell =      1222.9608109781

 ENERGY| Total FORCE_EVAL ( QS ) energy [a.u.]:            -3690.642846375714271

 MD_INI| MD initialization
 MD_INI| Potential energy [hartree]                          -0.369064284638E+04
 MD_INI| Kinetic energy [hartree]                             0.185258697582E-01
 MD_INI| Temperature [K]                                              300.000000
 MD_INI| Cell volume [bohr^3]                                 2.054457337448E+04
 MD_INI| Cell volume [ang^3]                                  3.044391637895E+03
 MD_INI| Cell lengths [bohr]      1.67564284E+01  1.67564284E+01  7.31701959E+01
 MD_INI| Cell lengths [ang]       8.86712000E+00  8.86712000E+00  3.87200000E+01
 MD_INI| Cell angles [deg]        9.00000000E+01  9.00000000E+01  9.00000000E+01

 -------------------------------------------------------------------------------
 -                                                                             -
 -                                DBCSR STATISTICS                             -
 -                                                                             -
 -------------------------------------------------------------------------------
 COUNTER                                    TOTAL       BLAS       SMM       ACC
 flops inhomo. stacks                           0       0.0%      0.0%      0.0%
 flops total                         0.000000E+00       0.0%      0.0%      0.0%
 flops max/rank                      0.000000E+00       0.0%      0.0%      0.0%
 matmuls inhomo. stacks                         0       0.0%      0.0%      0.0%
 matmuls total                                  0       0.0%      0.0%      0.0%
 number of processed stacks                     0       0.0%      0.0%      0.0%
 average stack size                                     0.0       0.0       0.0
 marketing flops                     0.000000E+00
 -------------------------------------------------------------------------------
 -                                                                             -
 -                      DBCSR MESSAGE PASSING PERFORMANCE                      -
 -                                                                             -
 -------------------------------------------------------------------------------
 ROUTINE             CALLS      AVE VOLUME [Bytes]
 MP_Bcast                1                     12.
 MP_Allreduce         2259                      8.
 MP_Alltoall          1085                 863825.
 -------------------------------------------------------------------------------

 -------------------------------------------------------------------------------
 -                                                                             -
 -                                DBM STATISTICS                               -
 -                                                                             -
 -------------------------------------------------------------------------------
    M  x    N  x    K                                          COUNT     PERCENT
 -------------------------------------------------------------------------------

 -------------------------------------------------------------------------------
 -                                                                             -
 -                                GRID STATISTICS                              -
 -                                                                             -
 -------------------------------------------------------------------------------
 LP    KERNEL             BACKEND                              COUNT     PERCENT
 4     collocate ortho    REF                                2946976      41.45%
 4     integrate ortho    REF                                2855475      40.16%
 0     collocate general  REF                                 585792       8.24%
 0     integrate general  REF                                 520704       7.32%
 5     integrate ortho    REF                                  92093       1.30%
 1     integrate general  REF                                  65088       0.92%
 3     collocate ortho    REF                                  18944       0.27%
 3     integrate ortho    REF                                  18463       0.26%
 2     collocate ortho    REF                                   3552       0.05%
 2     integrate ortho    REF                                   3441       0.05%
 -------------------------------------------------------------------------------

 MEMORY| Estimated peak process memory [MiB]                                 547

 -------------------------------------------------------------------------------
 ----                             MULTIGRID INFO                            ----
 -------------------------------------------------------------------------------
 count for grid        1:         734513          cutoff [a.u.]          300.00
 count for grid        2:         731373          cutoff [a.u.]          100.00
 count for grid        3:         451770          cutoff [a.u.]           33.33
 count for grid        4:         317860          cutoff [a.u.]           11.11
 total gridlevel count  :        2235516

 -------------------------------------------------------------------------------
 -                                                                             -
 -                         MESSAGE PASSING PERFORMANCE                         -
 -                                                                             -
 -------------------------------------------------------------------------------

 ROUTINE             CALLS      AVE VOLUME [Bytes]
 MP_Group                5
 MP_Bcast            19742                  37050.
 MP_Allreduce         1984                   1824.
 MP_Sync               388
 MP_Alltoall          1040                2838541.
 MP_ISendRecv        73600                   4832.
 MP_Wait             83542
 MP_ISend            20770                  30190.
 MP_IRecv            20836                  30113.
 MP_Recv              2170                 258304.
 MP_Write_All            2                  34128.
 -------------------------------------------------------------------------------


 -------------------------------------------------------------------------------
 -                                                                             -
 -                           R E F E R E N C E S                               -
 -                                                                             -
 -------------------------------------------------------------------------------
 
 CP2K version 2022.1 (Development Version), the CP2K developers group (2022).
 CP2K is freely available from https://www.cp2k.org/ .

 Kuehne,Thomas D.; Iannuzzi,Marcella; Del Ben,Mauro;
 Rybkin,Vladimir V.; Seewald,Patrick; Stein,Frederick; Laino,Teodoro;
 Khaliullin,Rustam Z.; Schuett,Ole; Schiffmann,Florian; Golze,Dorothea;
 Wilhelm,Jan; Chulkov,Sergey; Bani-Hashemian,Mohammad Hossein;
 Weber,Valery; Borstnik,Urban; Taillefumier,Mathieu;
 Jakobovits,Alice Shoshana; Lazzaro,Alfio; Pabst,Hans; Mueller,Tiziano;
 Schade,Robert; Guidon,Manuel; Andermatt,Samuel; Holmberg,Nico;
 Schenter,Gregory K.; Hehn,Anna; Bussy,Augustin; Belleflamme,Fabian;
 Tabacchi,Gloria; Gloess,Andreas; Lass,Michael; Bethune,Iain;
 Mundy,Christopher J.; Plessl,Christian; Watkins,Matt;
 VandeVondele,Joost; Krack,Matthias; Hutter,Juerg. 
 The Journal of Chemical Physics, 152 (19), (2020). 
 CP2K: An electronic structure and molecular dynamics software package -
 Quickstep: Efficient and accurate electronic structure calculations.
 https://doi.org/10.1063/5.0007045

 Schuett, Ole; Messmer, Peter; Hutter, Juerg; VandeVondele, Joost. 
 Electronic Structure Calculations on Graphics Processing Units, John
 Wiley & Sons, Ltd, 173-190 (2016). 
 GPU-Accelerated Sparse Matrix-Matrix Multiplication for
 Linear Scaling Density Functional Theory.
 https://doi.org/10.1002/9781118670712.ch8

 Borstnik, U; VandeVondele, J; Weber, V; Hutter, J. 
 PARALLEL COMPUTING, 40 (5-6), 47-58 (2014). 
 Sparse matrix multiplication: The distributed block-compressed sparse
 row library.
 https://doi.org/10.1016/j.parco.2014.03.012

 Hutter, J; Iannuzzi, M; Schiffmann, F; VandeVondele, J. 
 WIREs Comput Mol Sci., 4 (1), 15-25 (2014). 
 CP2K: atomistic simulations of condensed matter systems.
 https://doi.org/10.1002/wcms.1159

 Marek, A; Blum, V; Johanni, R; Havu, V; Lang, B; Auckenthaler, T;
 Heinecke, A; Bungartz, H; Lederer, H. 
 Journal of Physics: Condensed Matter, 26 (21), (2014). 
 The ELPA library: scalable parallel eigenvalue solutions for
 electronic structure
 theory and computational science.
 https://doi.org/10.1088/0953-8984/26/21/213201

 VandeVondele, J; Hutter, J. 
 JOURNAL OF CHEMICAL PHYSICS, 127 (11), 114105 (2007). 
 Gaussian basis sets for accurate calculations on molecular systems in
 gas and condensed phases.
 https://doi.org/10.1063/1.2770708

 Krack, M. 
 THEORETICAL CHEMISTRY ACCOUNTS, 114 (1-3), 145-152 (2005). 
 Pseudopotentials for H to Kr optimized for gradient-corrected
 exchange-correlation functionals.
 https://doi.org/10.1007/s00214-005-0655-y

 VandeVondele, J; Krack, M; Mohamed, F; Parrinello, M; Chassaing, T;
 Hutter, J. COMPUTER PHYSICS COMMUNICATIONS, 167 (2), 103-128 (2005). 
 QUICKSTEP: Fast and accurate density functional calculations using a
 mixed Gaussian and plane waves approach.
 https://doi.org/10.1016/j.cpc.2004.12.014

 Frigo, M; Johnson, SG. 
 PROCEEDINGS OF THE IEEE, 93 (2), 216-231 (2005). 
 The design and implementation of FFTW3.
 https://doi.org/10.1109/JPROC.2004.840301

 Hartwigsen, C; Goedecker, S; Hutter, J. 
 PHYSICAL REVIEW B, 58 (7), 3641-3662 (1998). 
 Relativistic separable dual-space Gaussian pseudopotentials from H to Rn.
 https://doi.org/10.1103/PhysRevB.58.3641

 Lippert, G; Hutter, J; Parrinello, M. 
 MOLECULAR PHYSICS, 92 (3), 477-487 (1997). 
 A hybrid Gaussian and plane wave density functional scheme.
 https://doi.org/10.1080/002689797170220

 Perdew, JP; Burke, K; Ernzerhof, M. 
 PHYSICAL REVIEW LETTERS, 77 (18), 3865-3868 (1996). 
 Generalized gradient approximation made simple.
 https://doi.org/10.1103/PhysRevLett.77.3865

 Goedecker, S; Teter, M; Hutter, J. 
 PHYSICAL REVIEW B, 54 (3), 1703-1710 (1996). 
 Separable dual-space Gaussian pseudopotentials.
 https://doi.org/10.1103/PhysRevB.54.1703


 -------------------------------------------------------------------------------
 -                                                                             -
 -                                T I M I N G                                  -
 -                                                                             -
 -------------------------------------------------------------------------------
 SUBROUTINE                       CALLS  ASD         SELF TIME        TOTAL TIME
                                MAXIMUM       AVERAGE  MAXIMUM  AVERAGE  MAXIMUM
 CP2K                                 1  1.0    0.047    0.069  193.275  193.279
 qs_mol_dyn_low                       1  2.0    0.009    0.013  192.888  192.897
 qs_forces                            1  3.0    0.003    0.004  192.862  192.878
 qs_energies                          1  4.0    0.003    0.005  192.632  192.659
 run_smeagol_emtrans                 32  7.9  162.655  163.616  166.771  167.117
 scf_env_do_scf                       1  5.0    0.000    0.001  140.939  140.952
 scf_env_do_scf_inner_loop           31  6.0    0.005    0.007  140.939  140.951
 qs_scf_new_mos_kp                   31  7.0    0.000    0.001  133.986  134.335
 rs_pw_transfer                     260 11.4    0.004    0.005   11.299   12.662
 mp_isend_dv                      13502 12.6    5.733   10.174    5.733   10.174
 qs_energies_init_hamiltonians        1  5.0    0.002    0.004    9.776    9.793
 qs_env_update_s_mstruct              1  6.0    0.000    0.000    9.352    9.718
 mp_waitany                        8312 13.4    3.625    9.337    3.625    9.337
 qs_rho_update_rho_low               32  7.0    0.001    0.001    8.805    8.807
 calculate_rho_elec                  32  8.0    0.004    0.005    8.805    8.807
 init_scf_run                         1  5.0    0.000    0.001    8.286    8.287
 scf_env_initial_rho_setup            1  6.0    0.001    0.001    8.286    8.287
 density_rs2pw                       32  9.0    0.002    0.002    8.160    8.264
 mp_waitall_1                     75230 13.5    3.602    7.495    3.602    7.495
 rs_pw_transfer_RS2PW_300            34 10.9    0.136    0.181    6.031    7.378
 calculate_rho_core                   1  7.0    0.004    0.004    7.124    7.170
 pw_transfer                        639 11.9    0.037    0.042    4.928    5.051
 fft_wrap_pw1pw2                    575 13.0    0.003    0.003    4.887    5.010
 mp_sum_d                          2936  9.3    1.707    4.791    1.707    4.791
 -------------------------------------------------------------------------------

 The number of warnings for this run is : 1
 
 -------------------------------------------------------------------------------
  **** **** ******  **  PROGRAM ENDED AT                 2023-11-16 13:28:51.200
 ***** ** ***  *** **   PROGRAM RAN ON                                 nid001778
 **    ****   ******    PROGRAM RAN BY                                    cahart
 ***** **    ** ** **   PROGRAM PROCESS ID                                249493
  **** **  *******  **  PROGRAM STOPPED IN /mnt/lustre/a2fs-work2/work/e05/e05/c
                                           ahart/postdoc/transport/cp2k-smeagol-
                                           examples/au-h2/cp2k-smeagol/transmiss
                                           ion_all/kpoints-3-3-20_omp-2_Parallel
                                           OverKNum-9_contour-single/kpoints-3-3
                                           -20_omp-2_ParallelOverKNum-9_contour-
                                           single_dynamic-14/0.1
