SIESTA 1.4.13  -- [TDDFT/O(N)/Spin-Orbit branch] (4 November 2004)
Architecture  : Parsons
Compiler flags:  -w -O2 -mieee-fp  -m64 
PARALLEL version

* Running on   32 nodes in parallel
>> Start of run:  21-MAR-2011  14:07:29

                           ***********************       
                           *  WELCOME TO SIESTA  *       
                           ***********************       

reinit: Reading from standard input
************************** Dump of input data file ****************************
#SpinOrbit                .true.
#NonCollinearSpin         .true.
#SpinPolarized            .true.
SystemName            melamine    # Descriptive name of the system
SystemLabel           melamine    # Short name for naming files
# Species and atoms
NumberOfSpecies        5
NumberOfAtoms     183
%block ChemicalSpeciesLabel
 1 1 H
 2 6 C
 3 7 N
 4 79 Au
 5 79 Au_d
%endblock ChemicalSpeciesLabel
# Basis
%block PAO.Basis                 # Define Basis set
Au   1      0.00000
n=6   0   1   E     2.71398     3.29203
     5.62600
%endblock PAO.Basis
%block PS.lmax
 Au   1
%endblock PS.lmax
%block kgrid_Monkhorst_Pack
  2   0    0     0.0
  0   4    0     0.0
  0   0    1     0.0
%endblock kgrid_Monkhorst_Pack
xc.functional         GGA           # Exchange-correlation functional
xc.authors            PBE             # Exchange-correlation version
MeshCutoff          200. Ry         # Mesh cutoff. real space mesh
# SCF options
MaxSCFIterations       1000         # Maximum number of SCF iter
DM.MixingWeight       0.02            # New DM amount for next SCF cycle
DM.Tolerance          1.d-4         # Tolerance in maximum difference
DM.NumberPulay        25
SolutionMethod        Diagon       # OrderN or Diagon
ElectronicTemperature  150 K        # Temp. for Fermi smearing
#ProcessorY  5
#BlockSize   15
# ===========================================================
##For Smeagol-trans
InitTransport   F     #reset "nsc process" as siesta or not,'true' as siesta
EMTransport              T     #NEGF method or not
NSlices                  1    # the number of layers for x in mx
PeriodicTransp           T     #mx periodic calculation or not
#UseLeadGF    T    #see manual
#GF Integral Setup
NEnergReal                0      # E-points for NE
NEnergImCircle           16     # E-points for EQ-Circle
NEnergImLine             16      # E-points for EQ-Line
NPoles                   16      # E-points for EQ-Pole
Delta                    1.d-4
EnergLowestBound        -6.0d0  Ry   # Absolute value
#Bias Setup
VInitial                 0.0 eV
VFinal                   0.0 eV
NIVPoints                0
%block SaveBiasSteps
  0
%endblock SaveBiasSteps
#Fock shift Control(!!!!Vary Every Time while Smeagol-trans!!!!)
HartreeLeadsBottom        -5.26330853   eV    # Matlab: VHplot('0.lead.VH')
HartreeLeadsLeft           0.000  Ang           #The mx's atomic z-coordinates of the corresponding 'HartreeLeadsBottom' position at left
HartreeLeadsRight          0.000  Ang    # The mx's atomic z-coordinates of the corresponding 'HartreeLeadsBottom' position at right
##Transport Output Flags
TrCoefficients                 F   #generate '*.TRC' file or not
TransmissionOverk        T    #generate '*.TRC.k.up/down' file,containning infor about T(E,k)
NTransmPoints            100
TRCScaleEf    T
InitTransmRange        -15.0 eV    #(!!!!Vary Every Time with respect to lead's Ef while Smeagol-trans!!!!)
FinalTransmRange        15.0 eV
SaveElectrostaticPotential    T
SaveRHO    T
#Sensible parameters for structural change
FullRamp   T
MixHamiltonian     F # F
ReadHamiltonian    F # F
DM.MixSCF1         F # F
DM.UseSaveDM   T
# MD options
MD.TypeOfRun            neb         # Type of dynamics = neb
MD.NumNEBsteps          60          # Maximum Number of NEB steps
MD.NumOfImages          9           # Number of Images ( intermediate structure )
MD.Kspring              0.02        # Spring force; default works well
MD.IndexOfNEB           60          # n>0 => CI-NEB from nth step
                                    # n>NumNEBsteps => IT-NEB
                                    # n=-1 => bisection-NEB
NEB.UseBroyden          .true.      # .true.  Broyden optimizer
                                    # .false. projected Verlet
MD.LengthTimeStep        0.3  fs    # time step for projected Verlet
NEB.SkipEdge            .true.     # Skip calculations of initial and
                                    #  final states ; UseSaveNEB must be .ture.
MD.MaxCGDispl           0.04 Ang    # Maximum atomic displacement
MD.MaxForceTol          0.06 eV/Ang # Tolerance of force for each images
MD.UseSaveNEB           .true.      # You can start from arbitary continuations
NEB.ReferEtot           .false.     # .true. for the SIESTA
                                    # .false. under the finite bias
NEB.InterpolationScheme  linear     # linear, polynomial or spline
NEB.derivative1          0.0        # In the case of spline, boundary consitions should be suplied
NEB.derivativeN          0.0        # If the endpoints are stable states, 0.0
MD.VariableCell          F           # Unit cell relaxation
%block GeometryConstraints
  position from 1 to 93
  position from 104 to 183
%endblock GeometryConstraints
#Force Options
EM.CalculateForces              T
EM.SetEBD  T
WriteForces      T
WriteCoorXmol     T   # Write Atoms coordinates
WriteMDXmol                     T
#WriteMDhistory                  T
WriteEigenvalues                F
Sigma.SVDTolZero  1.0d-7
EM.Timings T
Sigma.WriteToDisk              F     # Default value
WriteCoorStep   T
LatticeConstant  1.000 Ang
%block LatticeVectors
  12.76327700    0.00000000    0.00000000
   0.00000000    7.65796600    0.00000000
   0.00000000    1.27632800   32.66000000
%endblock LatticeVectors
# Atomic coordinates
AtomicCoordinatesFormat     Ang
%block AtomicCoordinatesAndAtomicSpecies
  0.00000000   1.27632818   0.00000000 4 #  Au 1
  2.55265588   1.27632818   0.00000000 4 #  Au 2
  5.10531096   1.27632818   0.00000000 4 #  Au 3
  7.65796644   1.27632818   0.00000000 4 #  Au 4
 10.21062192   1.27632818   0.00000000 4 #  Au 5
  0.00000000   3.82898366   0.00000000 4 #  Au 6
  2.55265588   3.82898366   0.00000000 4 #  Au 7
  5.10531096   3.82898366   0.00000000 4 #  Au 8
  7.65796644   3.82898366   0.00000000 4 #  Au 9
 10.21062192   3.82898366   0.00000000 4 #  Au 10
  0.00000000   6.38163870   0.00000000 4 #  Au 11
  2.55265588   6.38163870   0.00000000 4 #  Au 12
  5.10531096   6.38163870   0.00000000 4 #  Au 13
  7.65796644   6.38163870   0.00000000 4 #  Au 14
 10.21062192   6.38163870   0.00000000 4 #  Au 15
  1.27632814   2.55265592   1.80500000 4 #  Au 16
  3.82898322   2.55265592   1.80500000 4 #  Au 17
  6.38163870   2.55265592   1.80500000 4 #  Au 18
  8.93429418   2.55265592   1.80500000 4 #  Au 19
 11.48694966   2.55265592   1.80500000 4 #  Au 20
  1.27632814   5.10531096   1.80500000 4 #  Au 21
  3.82898322   5.10531096   1.80500000 4 #  Au 22
  6.38163870   5.10531096   1.80500000 4 #  Au 23
  8.93429418   5.10531096   1.80500000 4 #  Au 24
 11.48694966   5.10531096   1.80500000 4 #  Au 25
  1.27632814   7.65796644   1.80500000 4 #  Au 26
  3.82898322   7.65796644   1.80500000 4 #  Au 27
  6.38163870   7.65796644   1.80500000 4 #  Au 28
  8.93429418   7.65796644   1.80500000 4 #  Au 29
 11.48694966   7.65796644   1.80500000 4 #  Au 30
  0.00000000   1.27632818   3.61000000 4 #  Au 31
  2.55265588   1.27632818   3.61000000 4 #  Au 32
  5.10531096   1.27632818   3.61000000 4 #  Au 33
  7.65796644   1.27632818   3.61000000 4 #  Au 34
 10.21062192   1.27632818   3.61000000 4 #  Au 35
  0.00000000   3.82898366   3.61000000 4 #  Au 36
  2.55265588   3.82898366   3.61000000 4 #  Au 37
  5.10531096   3.82898366   3.61000000 4 #  Au 38
  7.65796644   3.82898366   3.61000000 4 #  Au 39
 10.21062192   3.82898366   3.61000000 4 #  Au 40
  0.00000000   6.38163870   3.61000000 4 #  Au 41
  2.55265588   6.38163870   3.61000000 4 #  Au 42
  5.10531096   6.38163870   3.61000000 4 #  Au 43
  7.65796644   6.38163870   3.61000000 4 #  Au 44
 10.21062192   6.38163870   3.61000000 4 #  Au 45
  1.27632814   2.55265592   5.41500000 4 #  Au 46
  3.82898322   2.55265592   5.41500000 4 #  Au 47
  6.38163870   2.55265592   5.41500000 4 #  Au 48
  8.93429418   2.55265592   5.41500000 4 #  Au 49
 11.48694966   2.55265592   5.41500000 4 #  Au 50
  1.27632814   5.10531096   5.41500000 4 #  Au 51
  3.82898322   5.10531096   5.41500000 4 #  Au 52
  6.38163870   5.10531096   5.41500000 4 #  Au 53
  8.93429418   5.10531096   5.41500000 4 #  Au 54
 11.48694966   5.10531096   5.41500000 4 #  Au 55
  1.27632814   7.65796644   5.41500000 4 #  Au 56
  3.82898322   7.65796644   5.41500000 4 #  Au 57
  6.38163870   7.65796644   5.41500000 4 #  Au 58
  8.93429418   7.65796644   5.41500000 4 #  Au 59
 11.48694966   7.65796644   5.41500000 4 #  Au 60
  0.00000000   1.27632818   7.22000000 5 #  Au 61
  2.55265588   1.27632818   7.22000000 5 #  Au 62
  5.10531096   1.27632818   7.22000000 5 #  Au 63
  7.65796644   1.27632818   7.22000000 5 #  Au 64
 10.21062192   1.27632818   7.22000000 5 #  Au 65
  0.00000000   3.82898366   7.22000000 5 #  Au 66
  2.55265588   3.82898366   7.22000000 5 #  Au 67
  5.10531096   3.82898366   7.22000000 5 #  Au 68
  7.65796644   3.82898366   7.22000000 5 #  Au 69
 10.21062192   3.82898366   7.22000000 5 #  Au 70
  0.00000000   6.38163870   7.22000000 5 #  Au 71
  2.55265588   6.38163870   7.22000000 5 #  Au 72
  5.10531096   6.38163870   7.22000000 5 #  Au 73
  7.65796644   6.38163870   7.22000000 5 #  Au 74
 10.21062192   6.38163870   7.22000000 5 #  Au 75
  1.27632814   2.55265592   9.02500000 5 #  Au 76
  3.82898322   2.55265592   9.02500000 5 #  Au 77
  6.38163870   2.55265592   9.02500000 5 #  Au 78
  8.93429418   2.55265592   9.02500000 5 #  Au 79
 11.48694966   2.55265592   9.02500000 5 #  Au 80
  1.27632814   5.10531096   9.02500000 5 #  Au 81
  3.82898322   5.10531096   9.02500000 5 #  Au 82
  6.38163870   5.10531096   9.02500000 5 #  Au 83
  8.93429418   5.10531096   9.02500000 5 #  Au 84
 11.48694966   5.10531096   9.02500000 5 #  Au 85
  1.27632814   7.65796644   9.02500000 5 #  Au 86
  3.82898322   7.65796644   9.02500000 5 #  Au 87
  6.38163870   7.65796644   9.02500000 5 #  Au 88
  8.93429418   7.65796644   9.02500000 5 #  Au 89
 11.48694966   7.65796644   9.02500000 5 #  Au 90
  4.04244940   3.88653974  11.04195172 3 #   N 91
  8.71495420   3.88826364  11.04424070 3 #   N 92
  6.37895074   3.90859442  11.05022785 3 #   N 93
  5.11468409   3.86381453  13.10922940 3 #   N 94
  7.50462704   3.85870851  13.08810260 3 #   N 95
  6.44594113   3.83929439  15.10962570 3 #   N 96
  5.18497446   3.88720117  11.78648517 2 #   C 97
  7.56031415   3.88687672  11.73206004 2 #   C 98
  6.28657645   3.85458500  13.82619710 2 #   C 99
  3.22099523   3.87603096  11.65899592 1 #   H 100
  9.55795934   3.87664149  11.62895154 1 #   H 101
  5.51146816   3.83615762  15.54648157 1 #   H 102
  8.34937444   3.84372282  13.66180271 1 #   H 103
  6.38163882   3.82898329  20.02500000 5 #  Au 104
  5.10531146   2.55265597  21.83000000 5 #  Au 105
  7.65796659   2.55265597  21.83000000 5 #  Au 106
  5.10531146   5.10531106  21.83000000 5 #  Au 107
  7.65796659   5.10531106  21.83000000 5 #  Au 108
  1.27632816   1.27632820  23.63500000 4 #  Au 109
  3.82898369   1.27632820  23.63500000 4 #  Au 110
  6.38163882   1.27632820  23.63500000 4 #  Au 111
  8.93429435   1.27632820  23.63500000 4 #  Au 112
 11.48694988   1.27632820  23.63500000 4 #  Au 113
  1.27632816   3.82898329  23.63500000 4 #  Au 114
  3.82898369   3.82898329  23.63500000 4 #  Au 115
  6.38163882   3.82898329  23.63500000 4 #  Au 116
  8.93429435   3.82898329  23.63500000 4 #  Au 117
 11.48694988   3.82898329  23.63500000 4 #  Au 118
  1.27632816   6.38163882  23.63500000 4 #  Au 119
  3.82898369   6.38163882  23.63500000 4 #  Au 120
  6.38163882   6.38163882  23.63500000 4 #  Au 121
  8.93429435   6.38163882  23.63500000 4 #  Au 122
 11.48694988   6.38163882  23.63500000 4 #  Au 123
  0.00000000   2.55265623  25.44000000 4 #  Au 124
  2.55265593   2.55265623  25.44000000 4 #  Au 125
  5.10531106   2.55265623  25.44000000 4 #  Au 126
  7.65796659   2.55265623  25.44000000 4 #  Au 127
 10.21062211   2.55265623  25.44000000 4 #  Au 128
  0.00000000   5.10531176  25.44000000 4 #  Au 129
  2.55265593   5.10531176  25.44000000 4 #  Au 130
  5.10531106   5.10531176  25.44000000 4 #  Au 131
  7.65796659   5.10531176  25.44000000 4 #  Au 132
 10.21062211   5.10531176  25.44000000 4 #  Au 133
  0.00000000   7.65796685  25.44000000 4 #  Au 134
  2.55265593   7.65796685  25.44000000 4 #  Au 135
  5.10531106   7.65796685  25.44000000 4 #  Au 136
  7.65796659   7.65796685  25.44000000 4 #  Au 137
 10.21062211   7.65796685  25.44000000 4 #  Au 138
  1.27632816   3.82898399  27.24500000 4 #  Au 139
  3.82898329   3.82898399  27.24500000 4 #  Au 140
  6.38163882   3.82898399  27.24500000 4 #  Au 141
  8.93429435   3.82898399  27.24500000 4 #  Au 142
 11.48694988   3.82898399  27.24500000 4 #  Au 143
  1.27632816   6.38163908  27.24500000 4 #  Au 144
  3.82898329   6.38163908  27.24500000 4 #  Au 145
  6.38163882   6.38163908  27.24500000 4 #  Au 146
  8.93429435   6.38163908  27.24500000 4 #  Au 147
 11.48694988   6.38163908  27.24500000 4 #  Au 148
  1.27632816   8.93429461  27.24500000 4 #  Au 149
  3.82898329   8.93429461  27.24500000 4 #  Au 150
  6.38163882   8.93429461  27.24500000 4 #  Au 151
  8.93429435   8.93429461  27.24500000 4 #  Au 152
 11.48694988   8.93429461  27.24500000 4 #  Au 153
  0.00000000   2.55265623  29.05000000 4 #  Au 154
  2.55265593   2.55265623  29.05000000 4 #  Au 155
  5.10531106   2.55265623  29.05000000 4 #  Au 156
  7.65796659   2.55265623  29.05000000 4 #  Au 157
 10.21062211   2.55265623  29.05000000 4 #  Au 158
  0.00000000   5.10531176  29.05000000 4 #  Au 159
  2.55265593   5.10531176  29.05000000 4 #  Au 160
  5.10531106   5.10531176  29.05000000 4 #  Au 161
  7.65796659   5.10531176  29.05000000 4 #  Au 162
 10.21062211   5.10531176  29.05000000 4 #  Au 163
  0.00000000   7.65796685  29.05000000 4 #  Au 164
  2.55265593   7.65796685  29.05000000 4 #  Au 165
  5.10531106   7.65796685  29.05000000 4 #  Au 166
  7.65796659   7.65796685  29.05000000 4 #  Au 167
 10.21062211   7.65796685  29.05000000 4 #  Au 168
  1.27632816   3.82898399  30.85500000 4 #  Au 169
  3.82898329   3.82898399  30.85500000 4 #  Au 170
  6.38163882   3.82898399  30.85500000 4 #  Au 171
  8.93429435   3.82898399  30.85500000 4 #  Au 172
 11.48694988   3.82898399  30.85500000 4 #  Au 173
  1.27632816   6.38163908  30.85500000 4 #  Au 174
  3.82898329   6.38163908  30.85500000 4 #  Au 175
  6.38163882   6.38163908  30.85500000 4 #  Au 176
  8.93429435   6.38163908  30.85500000 4 #  Au 177
 11.48694988   6.38163908  30.85500000 4 #  Au 178
  1.27632816   8.93429461  30.85500000 4 #  Au 179
  3.82898329   8.93429461  30.85500000 4 #  Au 180
  6.38163882   8.93429461  30.85500000 4 #  Au 181
  8.93429435   8.93429461  30.85500000 4 #  Au 182
 11.48694988   8.93429461  30.85500000 4 #  Au 183
%endblock AtomicCoordinatesAndAtomicSpecies
************************** End of input data file *****************************

reinit: -----------------------------------------------------------------------
reinit: System Name: melamine                                                   
reinit: -----------------------------------------------------------------------
reinit: System Label: melamine            
reinit: -----------------------------------------------------------------------

initatom: Reading input for the pseudopotentials and atomic orbitals ----------
 Species number:            1  Label: H Atomic number:           1
 Species number:            2  Label: C Atomic number:           6
 Species number:            3  Label: N Atomic number:           7
 Species number:            4  Label: Au Atomic number:          79
 Species number:            5  Label: Au_d Atomic number:          79
Ground state valence configuration:   1s01
Reading pseudopotential information in formatted form from H.psf
Ground state valence configuration:   2s02  2p02
Reading pseudopotential information in formatted form from C.psf
Ground state valence configuration:   2s02  2p03
Reading pseudopotential information in formatted form from N.psf
Ground state valence configuration:   6s01  5d10
Reading pseudopotential information in formatted form from Au.psf
Semicore shell(s) with ** electrons included in the valence for
Au
Ground state valence configuration:   6s01  5d10
Reading pseudopotential information in formatted form from Au_d.psf
relmxkb: Read Max KB Ang. Momentum=    1 for species Au
For H, standard SIESTA heuristics set lmxkb to 2
 (one more than the basis l, including polarization orbitals).
Use PS.lmax or PS.KBprojectors blocks to override.
For C, standard SIESTA heuristics set lmxkb to 3
 (one more than the basis l, including polarization orbitals).
Use PS.lmax or PS.KBprojectors blocks to override.
For N, standard SIESTA heuristics set lmxkb to 3
 (one more than the basis l, including polarization orbitals).
Use PS.lmax or PS.KBprojectors blocks to override.
For Au_d, standard SIESTA heuristics set lmxkb to 3
 (one more than the basis l, including polarization orbitals).
Use PS.lmax or PS.KBprojectors blocks to override.

<basis_specs>
===============================================================================
H                    Z=   1    Mass=  1.0100        Charge=  0.0000    
Lmxo=0 Lmxkb=2     BasisType=split      Semic=F
L=0  Nsemic=0  Cnfigmx=1
          n=1  nzeta=2  polorb=1
               vcte:    0.0000    
               rinn:    0.0000    
                rcs:    0.0000      0.0000    
            lambdas:    1.0000      1.0000    
-------------------------------------------------------------------------------
L=0  Nkbl=1  erefs: 0.17977+309
L=1  Nkbl=1  erefs: 0.17977+309
L=2  Nkbl=1  erefs: 0.17977+309
===============================================================================
</basis_specs>

atom: Called for H   (Z =   1)

read_vps: Pseudopotential generation method:
read_vps: ATM 3.2.2 Troullier-Martins                       

read_vps: Pseudopotential generated from a relativistic atomic calculation
read_vps: There are spin-orbit pseudopotentials available

read_vps: Valence configuration (pseudopotential and basis set generation):
1s( 1.00) rc: 1.30
2p( 0.00) rc: 1.30
3d( 0.00) rc: 0.36
Total valence charge:    1.00000

xc_check: Exchange-correlation functional:
xc_check: GGA Perdew, Burke & Ernzerhof 1996
V l=0 = -2*Zval/r beyond r=  1.2815
V l=1 = -2*Zval/r beyond r=  1.2656
V l=2 = -2*Zval/r beyond r=  1.2498
All V_l potentials equal beyond r=  1.2815
This should be close to max(r_c) in ps generation
All pots = -2*Zval/r beyond r=  1.2815

VLOCAL1: 99.0% of the norm of Vloc inside     26.430 Ry
VLOCAL1: 99.9% of the norm of Vloc inside     60.235 Ry
atom: Maximum radius for 4*pi*r*r*local-pseudopot. charge    1.50811
atom: Maximum radius for r*vlocal+2*Zval:    1.26560
GHOST: No ghost state for L =  0
GHOST: No ghost state for L =  1
GHOST: No ghost state for L =  2

KBgen: Kleinman-Bylander projectors: 
   l= 0   rc=  1.434438   el= -0.477184   Ekb= -1.973462   kbcos= -0.357338
   l= 1   rc=  1.774652   el=  0.001076   Ekb= -0.432348   kbcos= -0.024685
   l= 2   rc=  1.961554   el=  0.002010   Ekb= -0.405414   kbcos= -0.001877

KBgen: Total number of  Kleinman-Bylander projectors:    9
atom: -------------------------------------------------------------------------

atom: SANKEY-TYPE ORBITALS:
atom: Selected multiple-zeta basis: split     

SPLIT: Orbitals with angular momentum L= 0

SPLIT: Basis orbitals for state 1s

SPLIT: PAO cut-off radius determinated from an
SPLIT: energy shift=  0.020000 Ry

   izeta = 1
                 lambda =    1.000000
                     rc =    4.708991
                 energy =   -0.457736
                kinetic =    0.978177
    potential(screened) =   -1.435913
       potential(ionic) =   -1.964189

   izeta = 2
                 rmatch =    3.759707
              splitnorm =    0.150000
                 energy =   -0.338432
                kinetic =    1.580615
    potential(screened) =   -1.919047
       potential(ionic) =   -2.469362

POLgen: Perturbative polarization orbital with L=  1

POLgen: Polarization orbital for state 1s

   izeta = 1
                     rc =    4.708991
                 energy =    0.764956
                kinetic =    1.477690
    potential(screened) =   -0.712735
       potential(ionic) =   -1.205109
atom: Total number of Sankey-type orbitals:  5

atm_pop: Valence configuration(local Pseudopot. screening):
 1s( 1.00)                                                            
Vna: chval, zval:    1.00000   1.00000

Vna:  Cut-off radius for the neutral-atom potential:   4.708991

atom: _________________________________________________________________________

<basis_specs>
===============================================================================
C                    Z=   6    Mass=  12.010        Charge=  0.0000    
Lmxo=1 Lmxkb=3     BasisType=split      Semic=F
L=0  Nsemic=0  Cnfigmx=2
          n=1  nzeta=2  polorb=0
               vcte:    0.0000    
               rinn:    0.0000    
                rcs:    0.0000      0.0000    
            lambdas:    1.0000      1.0000    
L=1  Nsemic=0  Cnfigmx=2
          n=1  nzeta=2  polorb=1
               vcte:    0.0000    
               rinn:    0.0000    
                rcs:    0.0000      0.0000    
            lambdas:    1.0000      1.0000    
-------------------------------------------------------------------------------
L=0  Nkbl=1  erefs: 0.17977+309
L=1  Nkbl=1  erefs: 0.17977+309
L=2  Nkbl=1  erefs: 0.17977+309
L=3  Nkbl=1  erefs: 0.17977+309
===============================================================================
</basis_specs>

atom: Called for C   (Z =   6)

read_vps: Pseudopotential generation method:
read_vps: ATM 3.2.2 Troullier-Martins                       

read_vps: Valence configuration (pseudopotential and basis set generation):
2s( 2.00) rc: 1.52
2p( 2.00) rc: 1.52
3d( 0.00) rc: 1.52
4f( 0.00) rc: 1.52
read_vps: Spin-orbit interaction is not included in this calculation
Total valence charge:    4.00000

xc_check: Exchange-correlation functional:
xc_check: GGA Perdew, Burke & Ernzerhof 1996
V l=0 = -2*Zval/r beyond r=  1.6008
V l=1 = -2*Zval/r beyond r=  1.6008
V l=2 = -2*Zval/r beyond r=  1.6008
V l=3 = -2*Zval/r beyond r=  1.6008
All V_l potentials equal beyond r=  1.5038
This should be close to max(r_c) in ps generation
All pots = -2*Zval/r beyond r=  1.6008

VLOCAL1: 99.0% of the norm of Vloc inside     19.196 Ry
VLOCAL1: 99.9% of the norm of Vloc inside     43.748 Ry
atom: Maximum radius for 4*pi*r*r*local-pseudopot. charge    1.81396
atom: Maximum radius for r*vlocal+2*Zval:    1.56123
GHOST: No ghost state for L =  0
GHOST: No ghost state for L =  1
GHOST: No ghost state for L =  2
GHOST: No ghost state for L =  3

KBgen: Kleinman-Bylander projectors: 
   l= 0   rc=  1.813961   el= -1.009806   Ekb=  5.100177   kbcos=  0.320080
   l= 1   rc=  1.836783   el= -0.388709   Ekb= -4.033581   kbcos= -0.357127
   l= 2   rc=  2.055542   el=  0.001971   Ekb= -1.013540   kbcos= -0.008744
   l= 3   rc=  2.188140   el=  0.003065   Ekb= -0.413203   kbcos= -0.001127

KBgen: Total number of  Kleinman-Bylander projectors:   16
atom: -------------------------------------------------------------------------

atom: SANKEY-TYPE ORBITALS:
atom: Selected multiple-zeta basis: split     

SPLIT: Orbitals with angular momentum L= 0

SPLIT: Basis orbitals for state 2s

SPLIT: PAO cut-off radius determinated from an
SPLIT: energy shift=  0.020000 Ry

   izeta = 1
                 lambda =    1.000000
                     rc =    4.088342
                 energy =   -0.989111
                kinetic =    0.906482
    potential(screened) =   -1.895593
       potential(ionic) =   -5.509175

   izeta = 2
                 rmatch =    3.347176
              splitnorm =    0.150000
                 energy =   -0.835163
                kinetic =    1.368872
    potential(screened) =   -2.204035
       potential(ionic) =   -6.050850

SPLIT: Orbitals with angular momentum L= 1

SPLIT: Basis orbitals for state 2p

SPLIT: PAO cut-off radius determinated from an
SPLIT: energy shift=  0.020000 Ry

   izeta = 1
                 lambda =    1.000000
                     rc =    4.870301
                 energy =   -0.368909
                kinetic =    2.525430
    potential(screened) =   -2.894338
       potential(ionic) =   -6.393715

   izeta = 2
                 rmatch =    3.475094
              splitnorm =    0.150000
                 energy =   -0.205914
                kinetic =    3.775926
    potential(screened) =   -3.981840
       potential(ionic) =   -7.847494

POLgen: Perturbative polarization orbital with L=  2

POLgen: Polarization orbital for state 2p

   izeta = 1
                     rc =    4.870301
                 energy =    1.296404
                kinetic =    2.643416
    potential(screened) =   -1.347012
       potential(ionic) =   -4.303241
atom: Total number of Sankey-type orbitals: 13

atm_pop: Valence configuration(local Pseudopot. screening):
 2s( 2.00)                                                            
 2p( 2.00)                                                            
Vna: chval, zval:    4.00000   4.00000

Vna:  Cut-off radius for the neutral-atom potential:   4.870301

atom: _________________________________________________________________________

<basis_specs>
===============================================================================
N                    Z=   7    Mass=  14.010        Charge=  0.0000    
Lmxo=1 Lmxkb=3     BasisType=split      Semic=F
L=0  Nsemic=0  Cnfigmx=2
          n=1  nzeta=2  polorb=0
               vcte:    0.0000    
               rinn:    0.0000    
                rcs:    0.0000      0.0000    
            lambdas:    1.0000      1.0000    
L=1  Nsemic=0  Cnfigmx=2
          n=1  nzeta=2  polorb=1
               vcte:    0.0000    
               rinn:    0.0000    
                rcs:    0.0000      0.0000    
            lambdas:    1.0000      1.0000    
-------------------------------------------------------------------------------
L=0  Nkbl=1  erefs: 0.17977+309
L=1  Nkbl=1  erefs: 0.17977+309
L=2  Nkbl=1  erefs: 0.17977+309
L=3  Nkbl=1  erefs: 0.17977+309
===============================================================================
</basis_specs>

atom: Called for N   (Z =   7)

read_vps: Pseudopotential generation method:
read_vps: ATM 3.2.2 Troullier-Martins                       

read_vps: Pseudopotential generated from a relativistic atomic calculation
read_vps: There are spin-orbit pseudopotentials available

read_vps: Valence configuration (pseudopotential and basis set generation):
2s( 2.00) rc: 1.14
2p( 3.00) rc: 1.14
3d( 0.00) rc: 1.14
4f( 0.00) rc: 1.14
Total valence charge:    5.00000

xc_check: Exchange-correlation functional:
xc_check: GGA Perdew, Burke & Ernzerhof 1996
V l=0 = -2*Zval/r beyond r=  1.2729
V l=1 = -2*Zval/r beyond r=  1.2889
V l=2 = -2*Zval/r beyond r=  1.2889
V l=3 = -2*Zval/r beyond r=  1.2889
All V_l potentials equal beyond r=  1.1233
This should be close to max(r_c) in ps generation
All pots = -2*Zval/r beyond r=  1.2889

VLOCAL1: 99.0% of the norm of Vloc inside     34.401 Ry
VLOCAL1: 99.9% of the norm of Vloc inside     78.401 Ry
atom: Maximum radius for 4*pi*r*r*local-pseudopot. charge    1.35504
atom: Maximum radius for r*vlocal+2*Zval:    1.18092
GHOST: No ghost state for L =  0
GHOST: No ghost state for L =  1
GHOST: No ghost state for L =  2
GHOST: No ghost state for L =  3

KBgen: Kleinman-Bylander projectors: 
   l= 0   rc=  1.460600   el= -1.364995   Ekb=  9.623523   kbcos=  0.299291
   l= 1   rc=  1.478977   el= -0.521176   Ekb= -6.412191   kbcos= -0.322560
   l= 2   rc=  1.634559   el=  0.001991   Ekb= -1.677555   kbcos= -0.003659
   l= 3   rc=  2.072839   el=  0.003093   Ekb= -0.792742   kbcos= -0.000315

KBgen: Total number of  Kleinman-Bylander projectors:   16
atom: -------------------------------------------------------------------------

atom: SANKEY-TYPE ORBITALS:
atom: Selected multiple-zeta basis: split     

SPLIT: Orbitals with angular momentum L= 0

SPLIT: Basis orbitals for state 2s

SPLIT: PAO cut-off radius determinated from an
SPLIT: energy shift=  0.020000 Ry

   izeta = 1
                 lambda =    1.000000
                     rc =    3.683980
                 energy =   -1.347582
                kinetic =    1.274192
    potential(screened) =   -2.621774
       potential(ionic) =   -8.196840

   izeta = 2
                 rmatch =    2.869008
              splitnorm =    0.150000
                 energy =   -1.138549
                kinetic =    1.963227
    potential(screened) =   -3.101776
       potential(ionic) =   -9.063735

SPLIT: Orbitals with angular momentum L= 1

SPLIT: Basis orbitals for state 2p

SPLIT: PAO cut-off radius determinated from an
SPLIT: energy shift=  0.020000 Ry

   izeta = 1
                 lambda =    1.000000
                     rc =    4.280232
                 energy =   -0.500774
                kinetic =    3.752195
    potential(screened) =   -4.252969
       potential(ionic) =   -9.699773

   izeta = 2
                 rmatch =    2.905100
              splitnorm =    0.150000
                 energy =   -0.270635
                kinetic =    5.660839
    potential(screened) =   -5.931474
       potential(ionic) =  -11.989553

POLgen: Perturbative polarization orbital with L=  2

POLgen: Polarization orbital for state 2p

   izeta = 1
                     rc =    4.280232
                 energy =    1.845318
                kinetic =    3.652519
    potential(screened) =   -1.807201
       potential(ionic) =   -6.308330
atom: Total number of Sankey-type orbitals: 13

atm_pop: Valence configuration(local Pseudopot. screening):
 2s( 2.00)                                                            
 2p( 3.00)                                                            
Vna: chval, zval:    5.00000   5.00000

Vna:  Cut-off radius for the neutral-atom potential:   4.280232

atom: _________________________________________________________________________

<basis_specs>
===============================================================================
Au                   Z=  79    Mass=  196.97        Charge=  0.0000    
Lmxo=0 Lmxkb=1     BasisType=split      Semic=T
L=0  Nsemic=0  Cnfigmx=6
          n=1  nzeta=1  polorb=0
               vcte:    2.7140    
               rinn:    3.2920    
                rcs:    5.6260    
            lambdas:    1.0000    
-------------------------------------------------------------------------------
L=0  Nkbl=1  erefs: 0.17977+309
L=1  Nkbl=1  erefs: 0.17977+309
===============================================================================
</basis_specs>

atom: Called for Au  (Z =  79)

read_vps: Pseudopotential generation method:
read_vps: ATM3      Troullier-Martins                       

read_vps: Pseudopotential generated from a relativistic atomic calculation
read_vps: There are spin-orbit pseudopotentials available

read_vps: Valence configuration (pseudopotential and basis set generation):
6s( 1.00) rc: 2.29
6p( 0.00) rc: 3.74
Total valence charge:    1.00000

read_vps: Pseudopotential includes a core correction:
read_vps: Pseudo-core for xc-correction
comcore: Pseudo-core radius Rcore=  7.714087

xc_check: Exchange-correlation functional:
xc_check: GGA Perdew, Burke & Ernzerhof 1996
V l=0 = -2*Zval/r beyond r=  6.3952
V l=1 = -2*Zval/r beyond r=  6.3952
All V_l potentials equal beyond r=  3.6439
This should be close to max(r_c) in ps generation
All pots = -2*Zval/r beyond r=  6.3952
Using large-core scheme for Vlocal

atom: Estimated core radius    6.39520
atom: Maximum radius for 4*pi*r*r*local-pseudopot. charge    6.80765
atom: Maximum radius for r*vlocal+2*Zval:    6.47564
GHOST: No ghost state for L =  0
GHOST: No ghost state for L =  1

KBgen: Kleinman-Bylander projectors: 
   l= 0   rc=  3.736105   el= -0.421435   Ekb=  8.583251   kbcos=  0.098671
   l= 1   rc=  3.736105   el= -0.058154   Ekb=  1.272266   kbcos=  0.217895

KBgen: Total number of  Kleinman-Bylander projectors:    4
atom: -------------------------------------------------------------------------

atom: SANKEY-TYPE ORBITALS:

SPLIT: Orbitals with angular momentum L= 0

SPLIT: Basis orbitals for state 6s

   izeta = 1
                 lambda =    1.000000
                     rc =    5.643738
                 energy =   -0.384265
                kinetic =    0.467053
    potential(screened) =   -0.851317
       potential(ionic) =   -0.752548
atom: Total number of Sankey-type orbitals:  1

atm_pop: Valence configuration(local Pseudopot. screening):
 6s( 1.00)                                                            
Vna: chval, zval:    1.00000   1.00000

Vna:  Cut-off radius for the neutral-atom potential:   6.557093
Vna: WARNING: Cut-off radius for the neutral-atom potential, rVna =     6.55709
Vna: WARNING: Cut-off radius for charge density =     5.64374
Vna: WARNING: Check atom: Look for the sentence:
Vna: WARNING: LOCAL NEUTRAL-ATOM PSEUDOPOTENTIAL
Vna: WARNING: Increasing the tolerance parameter EPS
Vna: WARNING: might be a good idea

atom: _________________________________________________________________________

<basis_specs>
===============================================================================
Au_d                 Z=  79    Mass=  196.97        Charge=  0.0000    
Lmxo=2 Lmxkb=3     BasisType=split      Semic=F
L=0  Nsemic=0  Cnfigmx=6
          n=1  nzeta=2  polorb=1
               vcte:    0.0000    
               rinn:    0.0000    
                rcs:    0.0000      0.0000    
            lambdas:    1.0000      1.0000    
L=1  Nsemic=0  Cnfigmx=6
L=2  Nsemic=0  Cnfigmx=5
          n=1  nzeta=2  polorb=0
               vcte:    0.0000    
               rinn:    0.0000    
                rcs:    0.0000      0.0000    
            lambdas:    1.0000      1.0000    
-------------------------------------------------------------------------------
L=0  Nkbl=1  erefs: 0.17977+309
L=1  Nkbl=1  erefs: 0.17977+309
L=2  Nkbl=1  erefs: 0.17977+309
L=3  Nkbl=1  erefs: 0.17977+309
===============================================================================
</basis_specs>

atom: Called for Au  (Z =  79)

read_vps: Pseudopotential generation method:
read_vps: ATM 3.2.2 Troullier-Martins                       

read_vps: Pseudopotential generated from a relativistic atomic calculation
read_vps: There are spin-orbit pseudopotentials available

read_vps: Valence configuration (pseudopotential and basis set generation):
6s( 1.00) rc: 2.32
6p( 0.00) rc: 2.44
5d(10.00) rc: 2.00
5f( 0.00) rc: 2.00
Total valence charge:   11.00000

read_vps: Pseudopotential includes a core correction:
read_vps: Pseudo-core for xc-correction
comcore: Pseudo-core radius Rcore=  4.027091

xc_check: Exchange-correlation functional:
xc_check: GGA Perdew, Burke & Ernzerhof 1996
V l=0 = -2*Zval/r beyond r=  2.9833
V l=1 = -2*Zval/r beyond r=  2.9833
V l=2 = -2*Zval/r beyond r=  2.9833
V l=3 = -2*Zval/r beyond r=  2.9833
All V_l potentials equal beyond r=  2.4122
This should be close to max(r_c) in ps generation
All pots = -2*Zval/r beyond r=  2.9833

VLOCAL1: 99.0% of the norm of Vloc inside      7.460 Ry
VLOCAL1: 99.9% of the norm of Vloc inside     17.002 Ry
atom: Maximum radius for 4*pi*r*r*local-pseudopot. charge    2.90967
atom: Maximum radius for r*vlocal+2*Zval:    2.56778
GHOST: No ghost state for L =  0
GHOST: No ghost state for L =  1
GHOST: No ghost state for L =  2
GHOST: No ghost state for L =  3

KBgen: Kleinman-Bylander projectors: 
   l= 0   rc=  3.175745   el= -0.421414   Ekb=  5.304973   kbcos=  0.273688
   l= 1   rc=  3.256140   el= -0.057501   Ekb=  2.835249   kbcos=  0.215052
   l= 2   rc=  3.020861   el= -0.508705   Ekb= -4.162726   kbcos= -0.657780
   l= 3   rc=  3.466145   el=  0.003083   Ekb= -2.370070   kbcos= -0.010053

KBgen: Total number of  Kleinman-Bylander projectors:   16
atom: -------------------------------------------------------------------------

atom: SANKEY-TYPE ORBITALS:
atom: Selected multiple-zeta basis: split     

SPLIT: Orbitals with angular momentum L= 0

SPLIT: Basis orbitals for state 6s

SPLIT: PAO cut-off radius determinated from an
SPLIT: energy shift=  0.020000 Ry

   izeta = 1
                 lambda =    1.000000
                     rc =    6.083298
                 energy =   -0.401223
                kinetic =    0.409523
    potential(screened) =   -0.810746
       potential(ionic) =   -8.545547

   izeta = 2
                 rmatch =    5.714728
              splitnorm =    0.150000
                 energy =   -0.334836
                kinetic =    0.629904
    potential(screened) =   -0.964740
       potential(ionic) =   -9.131582

SPLIT: Orbitals with angular momentum L= 2

SPLIT: Basis orbitals for state 5d

SPLIT: PAO cut-off radius determinated from an
SPLIT: energy shift=  0.020000 Ry

   izeta = 1
                 lambda =    1.000000
                     rc =    4.286818
                 energy =   -0.490651
                kinetic =    5.131813
    potential(screened) =   -5.622464
       potential(ionic) =  -16.171651

   izeta = 2
                 rmatch =    2.802581
              splitnorm =    0.150000
                 energy =   -0.198427
                kinetic =    7.096268
    potential(screened) =   -7.294696
       potential(ionic) =  -18.580345

POLgen: Perturbative polarization orbital with L=  1

POLgen: Polarization orbital for state 6s

   izeta = 1
                     rc =    6.083298
                 energy =   -0.048166
                kinetic =    0.727821
    potential(screened) =   -0.775987
       potential(ionic) =   -8.117011
atom: Total number of Sankey-type orbitals: 15

atm_pop: Valence configuration(local Pseudopot. screening):
 6s( 1.00)                                                            
 6p( 0.00)                                                            
 5d(10.00)                                                            
Vna: chval, zval:   11.00000  11.00000

Vna:  Cut-off radius for the neutral-atom potential:   6.083298

atom: _________________________________________________________________________

prinput: Basis input ----------------------------------------------------------

PAO.BasisType split     

%block ChemicalSpeciesLabel
    1    1 H                       # Species index, atomic number, species label
    2    6 C                       # Species index, atomic number, species label
    3    7 N                       # Species index, atomic number, species label
    4   79 Au                      # Species index, atomic number, species label
    5   79 Au_d                    # Species index, atomic number, species label
%endblock ChemicalSpeciesLabel

%block PAO.Basis                 # Define Basis set
H           1                    # Species label, number of l-shells
 n=1   0   2 P   1                   # n, l, Nzeta, Polarization, NzetaPol
   4.709      3.760   
   1.000      1.000   
C           2                    # Species label, number of l-shells
 n=2   0   2                         # n, l, Nzeta 
   4.088      3.347   
   1.000      1.000   
 n=2   1   2 P   1                   # n, l, Nzeta, Polarization, NzetaPol
   4.870      3.475   
   1.000      1.000   
N           2                    # Species label, number of l-shells
 n=2   0   2                         # n, l, Nzeta 
   3.684      2.869   
   1.000      1.000   
 n=2   1   2 P   1                   # n, l, Nzeta, Polarization, NzetaPol
   4.280      2.905   
   1.000      1.000   
Au          1                    # Species label, number of l-shells
 n=6   0   1                         # n, l, Nzeta 
   5.644   
   1.000   
Au_d        2                    # Species label, number of l-shells
 n=6   0   2 P   1                   # n, l, Nzeta, Polarization, NzetaPol
   6.083      5.715   
   1.000      1.000   
 n=5   2   2                         # n, l, Nzeta 
   4.287      2.803   
   1.000      1.000   
%endblock PAO.Basis

prinput: ----------------------------------------------------------------------


siesta: ******************** Simulation parameters ****************************
siesta:
siesta: The following are some of the parameters of the simulation.
siesta: A complete list of the parameters used, including defect values,
siesta: can be found in file out.fdf
siesta:
coor:   Atomic-coordinates input format  =     Cartesian coordinates
coor:                                          (in Angstroms)
redata: Number of spin components        =     1
redata: SpinOrbit                        =     0
redata: Long output                      =     F
redata: Number of Atomic Species         =     5
redata: Charge density info will appear in .RHO file
redata: Write Mulliken Pop.              =     NO
redata: Mesh Cutoff                      =   200.0000  Ry
redata: Net charge of the system         =     0.0000 |e|
redata: Max. number of SCF Iter          =  1000
redata: One Pulay mixing every           =    25 iterations
redata: Mix DM in first SCF step ?       =     F
redata: Write Pulay info on disk?        =     F
redata: New DM Mixing Weight             =     0.0200
redata: No kicks to SCF
redata: DM Mixing Weight for Kicks       =     0.5000
redata: DM Tolerance for SCF             =     0.000100
redata: Use continuation files for DM    =     T
redata: Neglect nonoverlap interactions  =     F
redata: Method of Calculation            =     Diagonalization
redata: Divide and Conquer               =     F
redata: Electronic Temperature           =     0.0010  Ry
redata: Fix the spin of the system       =     F
redata: Dynamics option                  =     Nudged Elastic Band
redata: Initial MD time step             =     1
redata:   Final MD time step             =     1
redata: Length of MD time step           =     0.3000  fs
redata: Length of MD time step           =     0.3000  fs

redata: Initial Temperature of MD run    =     0.0000  K
redata: Perform a MD quench              =     F
redata: ***********************************************************************

neb: ***Information of NEB calculation***
neb: Spring constant (Ry/Bohr**2):0.02000000
neb: Solves Climbing Image NEB
neb: Number of iterations befoer CI-NEB:     60
neb: Optimized with Broyden
Broyden_optim: max_history for broyden:   5
Broyden_optim: cycle on maxit: T
Broyden_optim: initial inverse jacobian:   1.0000
 
neb: Nonequilibrium Nudged Elastic Band
neb: Integration of forces will be used
neb: Interpolation scheme: linear                

ioneb: Reading NEB continuation file

siesta: Atomic coordinates (Bohr) and species
siesta:      0.00000   2.41191   0.00000  4        1
siesta:      4.82382   2.41191   0.00000  4        2
siesta:      9.64764   2.41191   0.00000  4        3
siesta:     14.47147   2.41191   0.00000  4        4
siesta:     19.29529   2.41191   0.00000  4        5
siesta:      0.00000   7.23573   0.00000  4        6
siesta:      4.82382   7.23573   0.00000  4        7
siesta:      9.64764   7.23573   0.00000  4        8
siesta:     14.47147   7.23573   0.00000  4        9
siesta:     19.29529   7.23573   0.00000  4       10
siesta:      0.00000  12.05955   0.00000  4       11
siesta:      4.82382  12.05955   0.00000  4       12
siesta:      9.64764  12.05955   0.00000  4       13
siesta:     14.47147  12.05955   0.00000  4       14
siesta:     19.29529  12.05955   0.00000  4       15
siesta:      2.41191   4.82382   3.41096  4       16
siesta:      7.23573   4.82382   3.41096  4       17
siesta:     12.05955   4.82382   3.41096  4       18
siesta:     16.88338   4.82382   3.41096  4       19
siesta:     21.70720   4.82382   3.41096  4       20
siesta:      2.41191   9.64764   3.41096  4       21
siesta:      7.23573   9.64764   3.41096  4       22
siesta:     12.05955   9.64764   3.41096  4       23
siesta:     16.88338   9.64764   3.41096  4       24
siesta:     21.70720   9.64764   3.41096  4       25
siesta:      2.41191  14.47147   3.41096  4       26
siesta:      7.23573  14.47147   3.41096  4       27
siesta:     12.05955  14.47147   3.41096  4       28
siesta:     16.88338  14.47147   3.41096  4       29
siesta:     21.70720  14.47147   3.41096  4       30
siesta:      0.00000   2.41191   6.82191  4       31
siesta:      4.82382   2.41191   6.82191  4       32
siesta:      9.64764   2.41191   6.82191  4       33
siesta:     14.47147   2.41191   6.82191  4       34
siesta:     19.29529   2.41191   6.82191  4       35
siesta:      0.00000   7.23573   6.82191  4       36
siesta:      4.82382   7.23573   6.82191  4       37
siesta:      9.64764   7.23573   6.82191  4       38
siesta:     14.47147   7.23573   6.82191  4       39
siesta:     19.29529   7.23573   6.82191  4       40
siesta:      0.00000  12.05955   6.82191  4       41
siesta:      4.82382  12.05955   6.82191  4       42
siesta:      9.64764  12.05955   6.82191  4       43
siesta:     14.47147  12.05955   6.82191  4       44
siesta:     19.29529  12.05955   6.82191  4       45
siesta:      2.41191   4.82382  10.23287  4       46
siesta:      7.23573   4.82382  10.23287  4       47
siesta:     12.05955   4.82382  10.23287  4       48
siesta:     16.88338   4.82382  10.23287  4       49
siesta:     21.70720   4.82382  10.23287  4       50
siesta:      2.41191   9.64764  10.23287  4       51
siesta:      7.23573   9.64764  10.23287  4       52
siesta:     12.05955   9.64764  10.23287  4       53
siesta:     16.88338   9.64764  10.23287  4       54
siesta:     21.70720   9.64764  10.23287  4       55
siesta:      2.41191  14.47147  10.23287  4       56
siesta:      7.23573  14.47147  10.23287  4       57
siesta:     12.05955  14.47147  10.23287  4       58
siesta:     16.88338  14.47147  10.23287  4       59
siesta:     21.70720  14.47147  10.23287  4       60
siesta:      0.00000   2.41191  13.64383  5       61
siesta:      4.82382   2.41191  13.64383  5       62
siesta:      9.64764   2.41191  13.64383  5       63
siesta:     14.47147   2.41191  13.64383  5       64
siesta:     19.29529   2.41191  13.64383  5       65
siesta:      0.00000   7.23573  13.64383  5       66
siesta:      4.82382   7.23573  13.64383  5       67
siesta:      9.64764   7.23573  13.64383  5       68
siesta:     14.47147   7.23573  13.64383  5       69
siesta:     19.29529   7.23573  13.64383  5       70
siesta:      0.00000  12.05955  13.64383  5       71
siesta:      4.82382  12.05955  13.64383  5       72
siesta:      9.64764  12.05955  13.64383  5       73
siesta:     14.47147  12.05955  13.64383  5       74
siesta:     19.29529  12.05955  13.64383  5       75
siesta:      2.41191   4.82382  17.05479  5       76
siesta:      7.23573   4.82382  17.05479  5       77
siesta:     12.05955   4.82382  17.05479  5       78
siesta:     16.88338   4.82382  17.05479  5       79
siesta:     21.70720   4.82382  17.05479  5       80
siesta:      2.41191   9.64764  17.05479  5       81
siesta:      7.23573   9.64764  17.05479  5       82
siesta:     12.05955   9.64764  17.05479  5       83
siesta:     16.88338   9.64764  17.05479  5       84
siesta:     21.70720   9.64764  17.05479  5       85
siesta:      2.41191  14.47147  17.05479  5       86
siesta:      7.23573  14.47147  17.05479  5       87
siesta:     12.05955  14.47147  17.05479  5       88
siesta:     16.88338  14.47147  17.05479  5       89
siesta:     21.70720  14.47147  17.05479  5       90
siesta:      7.63913   7.34450  20.86627  3       91
siesta:     16.46888   7.34776  20.87060  3       92
siesta:     12.05447   7.38618  20.88191  3       93
siesta:      9.66045   7.33458  24.77485  3       94
siesta:     14.18032   7.15625  24.72225  3       95
siesta:     12.23918   7.54529  28.51813  3       96
siesta:      9.79722   7.35119  22.27305  2       97
siesta:     14.28777   7.29415  22.16551  2       98
siesta:     11.88122   7.32199  26.10793  2       99
siesta:      6.08568   7.33426  22.03087  1      100
siesta:     18.06153   7.31504  21.97556  1      101
siesta:     10.55153   7.70512  29.46944  1      102
siesta:     15.76101   7.24305  25.82851  1      103
siesta:     12.05955   7.23573  37.84178  5      104
siesta:      9.64764   4.82382  41.25274  5      105
siesta:     14.47147   4.82382  41.25274  5      106
siesta:      9.64764   9.64764  41.25274  5      107
siesta:     14.47147   9.64764  41.25274  5      108
siesta:      2.41191   2.41191  44.66369  4      109
siesta:      7.23573   2.41191  44.66369  4      110
siesta:     12.05955   2.41191  44.66369  4      111
siesta:     16.88338   2.41191  44.66369  4      112
siesta:     21.70720   2.41191  44.66369  4      113
siesta:      2.41191   7.23573  44.66369  4      114
siesta:      7.23573   7.23573  44.66369  4      115
siesta:     12.05955   7.23573  44.66369  4      116
siesta:     16.88338   7.23573  44.66369  4      117
siesta:     21.70720   7.23573  44.66369  4      118
siesta:      2.41191  12.05955  44.66369  4      119
siesta:      7.23573  12.05955  44.66369  4      120
siesta:     12.05955  12.05955  44.66369  4      121
siesta:     16.88338  12.05955  44.66369  4      122
siesta:     21.70720  12.05955  44.66369  4      123
siesta:      0.00000   4.82382  48.07465  4      124
siesta:      4.82382   4.82382  48.07465  4      125
siesta:      9.64764   4.82382  48.07465  4      126
siesta:     14.47147   4.82382  48.07465  4      127
siesta:     19.29529   4.82382  48.07465  4      128
siesta:      0.00000   9.64764  48.07465  4      129
siesta:      4.82382   9.64764  48.07465  4      130
siesta:      9.64764   9.64764  48.07465  4      131
siesta:     14.47147   9.64764  48.07465  4      132
siesta:     19.29529   9.64764  48.07465  4      133
siesta:      0.00000  14.47147  48.07465  4      134
siesta:      4.82382  14.47147  48.07465  4      135
siesta:      9.64764  14.47147  48.07465  4      136
siesta:     14.47147  14.47147  48.07465  4      137
siesta:     19.29529  14.47147  48.07465  4      138
siesta:      2.41191   7.23573  51.48561  4      139
siesta:      7.23573   7.23573  51.48561  4      140
siesta:     12.05955   7.23573  51.48561  4      141
siesta:     16.88338   7.23573  51.48561  4      142
siesta:     21.70720   7.23573  51.48561  4      143
siesta:      2.41191  12.05955  51.48561  4      144
siesta:      7.23573  12.05955  51.48561  4      145
siesta:     12.05955  12.05955  51.48561  4      146
siesta:     16.88338  12.05955  51.48561  4      147
siesta:     21.70720  12.05955  51.48561  4      148
siesta:      2.41191  16.88338  51.48561  4      149
siesta:      7.23573  16.88338  51.48561  4      150
siesta:     12.05955  16.88338  51.48561  4      151
siesta:     16.88338  16.88338  51.48561  4      152
siesta:     21.70720  16.88338  51.48561  4      153
siesta:      0.00000   4.82382  54.89657  4      154
siesta:      4.82382   4.82382  54.89657  4      155
siesta:      9.64764   4.82382  54.89657  4      156
siesta:     14.47147   4.82382  54.89657  4      157
siesta:     19.29529   4.82382  54.89657  4      158
siesta:      0.00000   9.64764  54.89657  4      159
siesta:      4.82382   9.64764  54.89657  4      160
siesta:      9.64764   9.64764  54.89657  4      161
siesta:     14.47147   9.64764  54.89657  4      162
siesta:     19.29529   9.64764  54.89657  4      163
siesta:      0.00000  14.47147  54.89657  4      164
siesta:      4.82382  14.47147  54.89657  4      165
siesta:      9.64764  14.47147  54.89657  4      166
siesta:     14.47147  14.47147  54.89657  4      167
siesta:     19.29529  14.47147  54.89657  4      168
siesta:      2.41191   7.23573  58.30752  4      169
siesta:      7.23573   7.23573  58.30752  4      170
siesta:     12.05955   7.23573  58.30752  4      171
siesta:     16.88338   7.23573  58.30752  4      172
siesta:     21.70720   7.23573  58.30752  4      173
siesta:      2.41191  12.05955  58.30752  4      174
siesta:      7.23573  12.05955  58.30752  4      175
siesta:     12.05955  12.05955  58.30752  4      176
siesta:     16.88338  12.05955  58.30752  4      177
siesta:     21.70720  12.05955  58.30752  4      178
siesta:      2.41191  16.88338  58.30752  4      179
siesta:      7.23573  16.88338  58.30752  4      180
siesta:     12.05955  16.88338  58.30752  4      181
siesta:     16.88338  16.88338  58.30752  4      182
siesta:     21.70720  16.88338  58.30752  4      183

initatomlists: Number of atoms, orbitals, and projectors:    183   797  1280

siesta: System type = bulk      

* ProcessorY, Blocksize:    4   8

 timereversal= T
 timereversal= T
 timereversal= T
 timereversal= T
 timereversal= T
 timereversal= T
 timereversal= T
 timereversal= T
 timereversal= T
 timereversal= T
 timereversal= T

siesta: k-grid: Number of k-points =     6
siesta: k-grid: Cutoff             =    12.763 Ang
siesta: k-grid: Supercell and displacements
siesta: k-grid:    2   0   0      0.000
siesta: k-grid:    0   4   0      0.000
siesta: k-grid:    0   0   1      0.000
 timereversal= T
 timereversal= T
 timereversal= T
 timereversal= T
 timereversal= T
 timereversal= T
 timereversal= T
 timereversal= T
 timereversal= T
 timereversal= T
 timereversal= T
 timereversal= T
 timereversal= T
 timereversal= T
 timereversal= T
 timereversal= T
 timereversal= T
 timereversal= T
 timereversal= T
 timereversal= T
 timereversal= T
siesta: overlap:  rmaxh   veclen  direction
siesta: overlap:  19.6388 24.1191   1
siesta: overlap:  rmaxh   veclen  direction
siesta: overlap:  19.6388 14.4715   2
siesta: overlap:  rmaxh   veclen  direction
siesta: overlap:  19.6388 61.7656   3
 label:           1 Au                             1 s      
 label:           2 Au                             2 s      
 label:           3 Au                             3 s      
 label:           4 Au                             4 s      
 label:           5 Au                             5 s      
 label:           6 Au                             6 s      
 label:           7 Au                             7 s      
 label:           8 Au                             8 s      
 label:           9 Au                             9 s      
 label:          10 Au                            10 s      
 label:          11 Au                            11 s      
 label:          12 Au                            12 s      
 label:          13 Au                            13 s      
 label:          14 Au                            14 s      
 label:          15 Au                            15 s      
 label:          16 Au                            16 s      
 label:          17 Au                            17 s      
 label:          18 Au                            18 s      
 label:          19 Au                            19 s      
 label:          20 Au                            20 s      
 label:          21 Au                            21 s      
 label:          22 Au                            22 s      
 label:          23 Au                            23 s      
 label:          24 Au                            24 s      
 label:          25 Au                            25 s      
 label:          26 Au                            26 s      
 label:          27 Au                            27 s      
 label:          28 Au                            28 s      
 label:          29 Au                            29 s      
 label:          30 Au                            30 s      
 label:          31 Au                            31 s      
 label:          32 Au                            32 s      
 label:          33 Au                            33 s      
 label:          34 Au                            34 s      
 label:          35 Au                            35 s      
 label:          36 Au                            36 s      
 label:          37 Au                            37 s      
 label:          38 Au                            38 s      
 label:          39 Au                            39 s      
 label:          40 Au                            40 s      
 label:          41 Au                            41 s      
 label:          42 Au                            42 s      
 label:          43 Au                            43 s      
 label:          44 Au                            44 s      
 label:          45 Au                            45 s      
 label:          46 Au                            46 s      
 label:          47 Au                            47 s      
 label:          48 Au                            48 s      
 label:          49 Au                            49 s      
 label:          50 Au                            50 s      
 label:          51 Au                            51 s      
 label:          52 Au                            52 s      
 label:          53 Au                            53 s      
 label:          54 Au                            54 s      
 label:          55 Au                            55 s      
 label:          56 Au                            56 s      
 label:          57 Au                            57 s      
 label:          58 Au                            58 s      
 label:          59 Au                            59 s      
 label:          60 Au                            60 s      
 label:          61 Au_d                          61 s      
 label:          62 Au_d                          61 s      
 label:          63 Au_d                          61 dxy    
 label:          64 Au_d                          61 dyz    
 label:          65 Au_d                          61 dz2    
 label:          66 Au_d                          61 dxz    
 label:          67 Au_d                          61 dx2-y2 
 label:          68 Au_d                          61 dxy    
 label:          69 Au_d                          61 dyz    
 label:          70 Au_d                          61 dz2    
 label:          71 Au_d                          61 dxz    
 label:          72 Au_d                          61 dx2-y2 
 label:          73 Au_d                          61 Ppy    
 label:          74 Au_d                          61 Ppz    
 label:          75 Au_d                          61 Ppx    
 label:          76 Au_d                          62 s      
 label:          77 Au_d                          62 s      
 label:          78 Au_d                          62 dxy    
 label:          79 Au_d                          62 dyz    
 label:          80 Au_d                          62 dz2    
 label:          81 Au_d                          62 dxz    
 label:          82 Au_d                          62 dx2-y2 
 label:          83 Au_d                          62 dxy    
 label:          84 Au_d                          62 dyz    
 label:          85 Au_d                          62 dz2    
 label:          86 Au_d                          62 dxz    
 label:          87 Au_d                          62 dx2-y2 
 label:          88 Au_d                          62 Ppy    
 label:          89 Au_d                          62 Ppz    
 label:          90 Au_d                          62 Ppx    
 label:          91 Au_d                          63 s      
 label:          92 Au_d                          63 s      
 label:          93 Au_d                          63 dxy    
 label:          94 Au_d                          63 dyz    
 label:          95 Au_d                          63 dz2    
 label:          96 Au_d                          63 dxz    
 label:          97 Au_d                          63 dx2-y2 
 label:          98 Au_d                          63 dxy    
 label:          99 Au_d                          63 dyz    
 label:         100 Au_d                          63 dz2    
 label:         101 Au_d                          63 dxz    
 label:         102 Au_d                          63 dx2-y2 
 label:         103 Au_d                          63 Ppy    
 label:         104 Au_d                          63 Ppz    
 label:         105 Au_d                          63 Ppx    
 label:         106 Au_d                          64 s      
 label:         107 Au_d                          64 s      
 label:         108 Au_d                          64 dxy    
 label:         109 Au_d                          64 dyz    
 label:         110 Au_d                          64 dz2    
 label:         111 Au_d                          64 dxz    
 label:         112 Au_d                          64 dx2-y2 
 label:         113 Au_d                          64 dxy    
 label:         114 Au_d                          64 dyz    
 label:         115 Au_d                          64 dz2    
 label:         116 Au_d                          64 dxz    
 label:         117 Au_d                          64 dx2-y2 
 label:         118 Au_d                          64 Ppy    
 label:         119 Au_d                          64 Ppz    
 label:         120 Au_d                          64 Ppx    
 label:         121 Au_d                          65 s      
 label:         122 Au_d                          65 s      
 label:         123 Au_d                          65 dxy    
 label:         124 Au_d                          65 dyz    
 label:         125 Au_d                          65 dz2    
 label:         126 Au_d                          65 dxz    
 label:         127 Au_d                          65 dx2-y2 
 label:         128 Au_d                          65 dxy    
 label:         129 Au_d                          65 dyz    
 label:         130 Au_d                          65 dz2    
 label:         131 Au_d                          65 dxz    
 label:         132 Au_d                          65 dx2-y2 
 label:         133 Au_d                          65 Ppy    
 label:         134 Au_d                          65 Ppz    
 label:         135 Au_d                          65 Ppx    
 label:         136 Au_d                          66 s      
 label:         137 Au_d                          66 s      
 label:         138 Au_d                          66 dxy    
 label:         139 Au_d                          66 dyz    
 label:         140 Au_d                          66 dz2    
 label:         141 Au_d                          66 dxz    
 label:         142 Au_d                          66 dx2-y2 
 label:         143 Au_d                          66 dxy    
 label:         144 Au_d                          66 dyz    
 label:         145 Au_d                          66 dz2    
 label:         146 Au_d                          66 dxz    
 label:         147 Au_d                          66 dx2-y2 
 label:         148 Au_d                          66 Ppy    
 label:         149 Au_d                          66 Ppz    
 label:         150 Au_d                          66 Ppx    
 label:         151 Au_d                          67 s      
 label:         152 Au_d                          67 s      
 label:         153 Au_d                          67 dxy    
 label:         154 Au_d                          67 dyz    
 label:         155 Au_d                          67 dz2    
 label:         156 Au_d                          67 dxz    
 label:         157 Au_d                          67 dx2-y2 
 label:         158 Au_d                          67 dxy    
 label:         159 Au_d                          67 dyz    
 label:         160 Au_d                          67 dz2    
 label:         161 Au_d                          67 dxz    
 label:         162 Au_d                          67 dx2-y2 
 label:         163 Au_d                          67 Ppy    
 label:         164 Au_d                          67 Ppz    
 label:         165 Au_d                          67 Ppx    
 label:         166 Au_d                          68 s      
 label:         167 Au_d                          68 s      
 label:         168 Au_d                          68 dxy    
 label:         169 Au_d                          68 dyz    
 label:         170 Au_d                          68 dz2    
 label:         171 Au_d                          68 dxz    
 label:         172 Au_d                          68 dx2-y2 
 label:         173 Au_d                          68 dxy    
 label:         174 Au_d                          68 dyz    
 label:         175 Au_d                          68 dz2    
 label:         176 Au_d                          68 dxz    
 label:         177 Au_d                          68 dx2-y2 
 label:         178 Au_d                          68 Ppy    
 label:         179 Au_d                          68 Ppz    
 label:         180 Au_d                          68 Ppx    
 label:         181 Au_d                          69 s      
 label:         182 Au_d                          69 s      
 label:         183 Au_d                          69 dxy    
 label:         184 Au_d                          69 dyz    
 label:         185 Au_d                          69 dz2    
 label:         186 Au_d                          69 dxz    
 label:         187 Au_d                          69 dx2-y2 
 label:         188 Au_d                          69 dxy    
 label:         189 Au_d                          69 dyz    
 label:         190 Au_d                          69 dz2    
 label:         191 Au_d                          69 dxz    
 label:         192 Au_d                          69 dx2-y2 
 label:         193 Au_d                          69 Ppy    
 label:         194 Au_d                          69 Ppz    
 label:         195 Au_d                          69 Ppx    
 label:         196 Au_d                          70 s      
 label:         197 Au_d                          70 s      
 label:         198 Au_d                          70 dxy    
 label:         199 Au_d                          70 dyz    
 label:         200 Au_d                          70 dz2    
 label:         201 Au_d                          70 dxz    
 label:         202 Au_d                          70 dx2-y2 
 label:         203 Au_d                          70 dxy    
 label:         204 Au_d                          70 dyz    
 label:         205 Au_d                          70 dz2    
 label:         206 Au_d                          70 dxz    
 label:         207 Au_d                          70 dx2-y2 
 label:         208 Au_d                          70 Ppy    
 label:         209 Au_d                          70 Ppz    
 label:         210 Au_d                          70 Ppx    
 label:         211 Au_d                          71 s      
 label:         212 Au_d                          71 s      
 label:         213 Au_d                          71 dxy    
 label:         214 Au_d                          71 dyz    
 label:         215 Au_d                          71 dz2    
 label:         216 Au_d                          71 dxz    
 label:         217 Au_d                          71 dx2-y2 
 label:         218 Au_d                          71 dxy    
 label:         219 Au_d                          71 dyz    
 label:         220 Au_d                          71 dz2    
 label:         221 Au_d                          71 dxz    
 label:         222 Au_d                          71 dx2-y2 
 label:         223 Au_d                          71 Ppy    
 label:         224 Au_d                          71 Ppz    
 label:         225 Au_d                          71 Ppx    
 label:         226 Au_d                          72 s      
 label:         227 Au_d                          72 s      
 label:         228 Au_d                          72 dxy    
 label:         229 Au_d                          72 dyz    
 label:         230 Au_d                          72 dz2    
 label:         231 Au_d                          72 dxz    
 label:         232 Au_d                          72 dx2-y2 
 label:         233 Au_d                          72 dxy    
 label:         234 Au_d                          72 dyz    
 label:         235 Au_d                          72 dz2    
 label:         236 Au_d                          72 dxz    
 label:         237 Au_d                          72 dx2-y2 
 label:         238 Au_d                          72 Ppy    
 label:         239 Au_d                          72 Ppz    
 label:         240 Au_d                          72 Ppx    
 label:         241 Au_d                          73 s      
 label:         242 Au_d                          73 s      
 label:         243 Au_d                          73 dxy    
 label:         244 Au_d                          73 dyz    
 label:         245 Au_d                          73 dz2    
 label:         246 Au_d                          73 dxz    
 label:         247 Au_d                          73 dx2-y2 
 label:         248 Au_d                          73 dxy    
 label:         249 Au_d                          73 dyz    
 label:         250 Au_d                          73 dz2    
 label:         251 Au_d                          73 dxz    
 label:         252 Au_d                          73 dx2-y2 
 label:         253 Au_d                          73 Ppy    
 label:         254 Au_d                          73 Ppz    
 label:         255 Au_d                          73 Ppx    
 label:         256 Au_d                          74 s      
 label:         257 Au_d                          74 s      
 label:         258 Au_d                          74 dxy    
 label:         259 Au_d                          74 dyz    
 label:         260 Au_d                          74 dz2    
 label:         261 Au_d                          74 dxz    
 label:         262 Au_d                          74 dx2-y2 
 label:         263 Au_d                          74 dxy    
 label:         264 Au_d                          74 dyz    
 label:         265 Au_d                          74 dz2    
 label:         266 Au_d                          74 dxz    
 label:         267 Au_d                          74 dx2-y2 
 label:         268 Au_d                          74 Ppy    
 label:         269 Au_d                          74 Ppz    
 label:         270 Au_d                          74 Ppx    
 label:         271 Au_d                          75 s      
 label:         272 Au_d                          75 s      
 label:         273 Au_d                          75 dxy    
 label:         274 Au_d                          75 dyz    
 label:         275 Au_d                          75 dz2    
 label:         276 Au_d                          75 dxz    
 label:         277 Au_d                          75 dx2-y2 
 label:         278 Au_d                          75 dxy    
 label:         279 Au_d                          75 dyz    
 label:         280 Au_d                          75 dz2    
 label:         281 Au_d                          75 dxz    
 label:         282 Au_d                          75 dx2-y2 
 label:         283 Au_d                          75 Ppy    
 label:         284 Au_d                          75 Ppz    
 label:         285 Au_d                          75 Ppx    
 label:         286 Au_d                          76 s      
 label:         287 Au_d                          76 s      
 label:         288 Au_d                          76 dxy    
 label:         289 Au_d                          76 dyz    
 label:         290 Au_d                          76 dz2    
 label:         291 Au_d                          76 dxz    
 label:         292 Au_d                          76 dx2-y2 
 label:         293 Au_d                          76 dxy    
 label:         294 Au_d                          76 dyz    
 label:         295 Au_d                          76 dz2    
 label:         296 Au_d                          76 dxz    
 label:         297 Au_d                          76 dx2-y2 
 label:         298 Au_d                          76 Ppy    
 label:         299 Au_d                          76 Ppz    
 label:         300 Au_d                          76 Ppx    
 label:         301 Au_d                          77 s      
 label:         302 Au_d                          77 s      
 label:         303 Au_d                          77 dxy    
 label:         304 Au_d                          77 dyz    
 label:         305 Au_d                          77 dz2    
 label:         306 Au_d                          77 dxz    
 label:         307 Au_d                          77 dx2-y2 
 label:         308 Au_d                          77 dxy    
 label:         309 Au_d                          77 dyz    
 label:         310 Au_d                          77 dz2    
 label:         311 Au_d                          77 dxz    
 label:         312 Au_d                          77 dx2-y2 
 label:         313 Au_d                          77 Ppy    
 label:         314 Au_d                          77 Ppz    
 label:         315 Au_d                          77 Ppx    
 label:         316 Au_d                          78 s      
 label:         317 Au_d                          78 s      
 label:         318 Au_d                          78 dxy    
 label:         319 Au_d                          78 dyz    
 label:         320 Au_d                          78 dz2    
 label:         321 Au_d                          78 dxz    
 label:         322 Au_d                          78 dx2-y2 
 label:         323 Au_d                          78 dxy    
 label:         324 Au_d                          78 dyz    
 label:         325 Au_d                          78 dz2    
 label:         326 Au_d                          78 dxz    
 label:         327 Au_d                          78 dx2-y2 
 label:         328 Au_d                          78 Ppy    
 label:         329 Au_d                          78 Ppz    
 label:         330 Au_d                          78 Ppx    
 label:         331 Au_d                          79 s      
 label:         332 Au_d                          79 s      
 label:         333 Au_d                          79 dxy    
 label:         334 Au_d                          79 dyz    
 label:         335 Au_d                          79 dz2    
 label:         336 Au_d                          79 dxz    
 label:         337 Au_d                          79 dx2-y2 
 label:         338 Au_d                          79 dxy    
 label:         339 Au_d                          79 dyz    
 label:         340 Au_d                          79 dz2    
 label:         341 Au_d                          79 dxz    
 label:         342 Au_d                          79 dx2-y2 
 label:         343 Au_d                          79 Ppy    
 label:         344 Au_d                          79 Ppz    
 label:         345 Au_d                          79 Ppx    
 label:         346 Au_d                          80 s      
 label:         347 Au_d                          80 s      
 label:         348 Au_d                          80 dxy    
 label:         349 Au_d                          80 dyz    
 label:         350 Au_d                          80 dz2    
 label:         351 Au_d                          80 dxz    
 label:         352 Au_d                          80 dx2-y2 
 label:         353 Au_d                          80 dxy    
 label:         354 Au_d                          80 dyz    
 label:         355 Au_d                          80 dz2    
 label:         356 Au_d                          80 dxz    
 label:         357 Au_d                          80 dx2-y2 
 label:         358 Au_d                          80 Ppy    
 label:         359 Au_d                          80 Ppz    
 label:         360 Au_d                          80 Ppx    
 label:         361 Au_d                          81 s      
 label:         362 Au_d                          81 s      
 label:         363 Au_d                          81 dxy    
 label:         364 Au_d                          81 dyz    
 label:         365 Au_d                          81 dz2    
 label:         366 Au_d                          81 dxz    
 label:         367 Au_d                          81 dx2-y2 
 label:         368 Au_d                          81 dxy    
 label:         369 Au_d                          81 dyz    
 label:         370 Au_d                          81 dz2    
 label:         371 Au_d                          81 dxz    
 label:         372 Au_d                          81 dx2-y2 
 label:         373 Au_d                          81 Ppy    
 label:         374 Au_d                          81 Ppz    
 label:         375 Au_d                          81 Ppx    
 label:         376 Au_d                          82 s      
 label:         377 Au_d                          82 s      
 label:         378 Au_d                          82 dxy    
 label:         379 Au_d                          82 dyz    
 label:         380 Au_d                          82 dz2    
 label:         381 Au_d                          82 dxz    
 label:         382 Au_d                          82 dx2-y2 
 label:         383 Au_d                          82 dxy    
 label:         384 Au_d                          82 dyz    
 label:         385 Au_d                          82 dz2    
 label:         386 Au_d                          82 dxz    
 label:         387 Au_d                          82 dx2-y2 
 label:         388 Au_d                          82 Ppy    
 label:         389 Au_d                          82 Ppz    
 label:         390 Au_d                          82 Ppx    
 label:         391 Au_d                          83 s      
 label:         392 Au_d                          83 s      
 label:         393 Au_d                          83 dxy    
 label:         394 Au_d                          83 dyz    
 label:         395 Au_d                          83 dz2    
 label:         396 Au_d                          83 dxz    
 label:         397 Au_d                          83 dx2-y2 
 label:         398 Au_d                          83 dxy    
 label:         399 Au_d                          83 dyz    
 label:         400 Au_d                          83 dz2    
 label:         401 Au_d                          83 dxz    
 label:         402 Au_d                          83 dx2-y2 
 label:         403 Au_d                          83 Ppy    
 label:         404 Au_d                          83 Ppz    
 label:         405 Au_d                          83 Ppx    
 label:         406 Au_d                          84 s      
 label:         407 Au_d                          84 s      
 label:         408 Au_d                          84 dxy    
 label:         409 Au_d                          84 dyz    
 label:         410 Au_d                          84 dz2    
 label:         411 Au_d                          84 dxz    
 label:         412 Au_d                          84 dx2-y2 
 label:         413 Au_d                          84 dxy    
 label:         414 Au_d                          84 dyz    
 label:         415 Au_d                          84 dz2    
 label:         416 Au_d                          84 dxz    
 label:         417 Au_d                          84 dx2-y2 
 label:         418 Au_d                          84 Ppy    
 label:         419 Au_d                          84 Ppz    
 label:         420 Au_d                          84 Ppx    
 label:         421 Au_d                          85 s      
 label:         422 Au_d                          85 s      
 label:         423 Au_d                          85 dxy    
 label:         424 Au_d                          85 dyz    
 label:         425 Au_d                          85 dz2    
 label:         426 Au_d                          85 dxz    
 label:         427 Au_d                          85 dx2-y2 
 label:         428 Au_d                          85 dxy    
[...]
    0.00000000    1.27632818    7.22000000   5  Au_d      61
    2.55265588    1.27632818    7.22000000   5  Au_d      62
    5.10531096    1.27632818    7.22000000   5  Au_d      63
    7.65796644    1.27632818    7.22000000   5  Au_d      64
   10.21062192    1.27632818    7.22000000   5  Au_d      65
    0.00000000    3.82898366    7.22000000   5  Au_d      66
    2.55265588    3.82898366    7.22000000   5  Au_d      67
    5.10531096    3.82898366    7.22000000   5  Au_d      68
    7.65796644    3.82898366    7.22000000   5  Au_d      69
   10.21062192    3.82898366    7.22000000   5  Au_d      70
    0.00000000    6.38163870    7.22000000   5  Au_d      71
    2.55265588    6.38163870    7.22000000   5  Au_d      72
    5.10531096    6.38163870    7.22000000   5  Au_d      73
    7.65796644    6.38163870    7.22000000   5  Au_d      74
   10.21062192    6.38163870    7.22000000   5  Au_d      75
    1.27632814    2.55265592    9.02500000   5  Au_d      76
    3.82898322    2.55265592    9.02500000   5  Au_d      77
    6.38163870    2.55265592    9.02500000   5  Au_d      78
    8.93429418    2.55265592    9.02500000   5  Au_d      79
   11.48694966    2.55265592    9.02500000   5  Au_d      80
    1.27632814    5.10531096    9.02500000   5  Au_d      81
    3.82898322    5.10531096    9.02500000   5  Au_d      82
    6.38163870    5.10531096    9.02500000   5  Au_d      83
    8.93429418    5.10531096    9.02500000   5  Au_d      84
   11.48694966    5.10531096    9.02500000   5  Au_d      85
    1.27632814    7.65796644    9.02500000   5  Au_d      86
    3.82898322    7.65796644    9.02500000   5  Au_d      87
    6.38163870    7.65796644    9.02500000   5  Au_d      88
    8.93429418    7.65796644    9.02500000   5  Au_d      89
   11.48694966    7.65796644    9.02500000   5  Au_d      90
    4.04244940    3.88653974   11.04195172   3  N         91
    8.71495420    3.88826364   11.04424070   3  N         92
    6.37895074    3.90859442   11.05022785   3  N         93
    5.11344589    3.85911769   13.11093719   3  N         94
    7.49566692    3.84575828   13.08525775   3  N         95
    6.39311683    3.83297092   15.11593996   3  N         96
    5.18800079    3.88520811   11.78199016   2  C         97
    7.56055001    3.88227017   11.72970432   2  C         98
    6.26684766    3.88093446   13.85681955   2  C         99
    3.22482301    3.87599719   11.66449104   1  H        100
    9.55867392    3.87469155   11.62737892   1  H        101
    6.39306331    4.43288504   15.91861758   1  H        102
    8.33572641    3.83781275   13.66605212   1  H        103
    6.38163882    3.82898329   20.02500000   5  Au_d     104
    5.10531146    2.55265597   21.83000000   5  Au_d     105
    7.65796659    2.55265597   21.83000000   5  Au_d     106
    5.10531146    5.10531106   21.83000000   5  Au_d     107
    7.65796659    5.10531106   21.83000000   5  Au_d     108
    1.27632816    1.27632820   23.63500000   4  Au       109
    3.82898369    1.27632820   23.63500000   4  Au       110
    6.38163882    1.27632820   23.63500000   4  Au       111
    8.93429435    1.27632820   23.63500000   4  Au       112
   11.48694988    1.27632820   23.63500000   4  Au       113
    1.27632816    3.82898329   23.63500000   4  Au       114
    3.82898369    3.82898329   23.63500000   4  Au       115
    6.38163882    3.82898329   23.63500000   4  Au       116
    8.93429435    3.82898329   23.63500000   4  Au       117
   11.48694988    3.82898329   23.63500000   4  Au       118
    1.27632816    6.38163882   23.63500000   4  Au       119
    3.82898369    6.38163882   23.63500000   4  Au       120
    6.38163882    6.38163882   23.63500000   4  Au       121
    8.93429435    6.38163882   23.63500000   4  Au       122
   11.48694988    6.38163882   23.63500000   4  Au       123
    0.00000000    2.55265623   25.44000000   4  Au       124
    2.55265593    2.55265623   25.44000000   4  Au       125
    5.10531106    2.55265623   25.44000000   4  Au       126
    7.65796659    2.55265623   25.44000000   4  Au       127
   10.21062211    2.55265623   25.44000000   4  Au       128
    0.00000000    5.10531176   25.44000000   4  Au       129
    2.55265593    5.10531176   25.44000000   4  Au       130
    5.10531106    5.10531176   25.44000000   4  Au       131
    7.65796659    5.10531176   25.44000000   4  Au       132
   10.21062211    5.10531176   25.44000000   4  Au       133
    0.00000000    7.65796685   25.44000000   4  Au       134
    2.55265593    7.65796685   25.44000000   4  Au       135
    5.10531106    7.65796685   25.44000000   4  Au       136
    7.65796659    7.65796685   25.44000000   4  Au       137
   10.21062211    7.65796685   25.44000000   4  Au       138
    1.27632816    3.82898399   27.24500000   4  Au       139
    3.82898329    3.82898399   27.24500000   4  Au       140
    6.38163882    3.82898399   27.24500000   4  Au       141
    8.93429435    3.82898399   27.24500000   4  Au       142
   11.48694988    3.82898399   27.24500000   4  Au       143
    1.27632816    6.38163908   27.24500000   4  Au       144
    3.82898329    6.38163908   27.24500000   4  Au       145
    6.38163882    6.38163908   27.24500000   4  Au       146
    8.93429435    6.38163908   27.24500000   4  Au       147
   11.48694988    6.38163908   27.24500000   4  Au       148
    1.27632816    8.93429461   27.24500000   4  Au       149
    3.82898329    8.93429461   27.24500000   4  Au       150
    6.38163882    8.93429461   27.24500000   4  Au       151
    8.93429435    8.93429461   27.24500000   4  Au       152
   11.48694988    8.93429461   27.24500000   4  Au       153
    0.00000000    2.55265623   29.05000000   4  Au       154
    2.55265593    2.55265623   29.05000000   4  Au       155
    5.10531106    2.55265623   29.05000000   4  Au       156
    7.65796659    2.55265623   29.05000000   4  Au       157
   10.21062211    2.55265623   29.05000000   4  Au       158
    0.00000000    5.10531176   29.05000000   4  Au       159
    2.55265593    5.10531176   29.05000000   4  Au       160
    5.10531106    5.10531176   29.05000000   4  Au       161
    7.65796659    5.10531176   29.05000000   4  Au       162
   10.21062211    5.10531176   29.05000000   4  Au       163
    0.00000000    7.65796685   29.05000000   4  Au       164
    2.55265593    7.65796685   29.05000000   4  Au       165
    5.10531106    7.65796685   29.05000000   4  Au       166
    7.65796659    7.65796685   29.05000000   4  Au       167
   10.21062211    7.65796685   29.05000000   4  Au       168
    1.27632816    3.82898399   30.85500000   4  Au       169
    3.82898329    3.82898399   30.85500000   4  Au       170
    6.38163882    3.82898399   30.85500000   4  Au       171
    8.93429435    3.82898399   30.85500000   4  Au       172
   11.48694988    3.82898399   30.85500000   4  Au       173
    1.27632816    6.38163908   30.85500000   4  Au       174
    3.82898329    6.38163908   30.85500000   4  Au       175
    6.38163882    6.38163908   30.85500000   4  Au       176
    8.93429435    6.38163908   30.85500000   4  Au       177
   11.48694988    6.38163908   30.85500000   4  Au       178
    1.27632816    8.93429461   30.85500000   4  Au       179
    3.82898329    8.93429461   30.85500000   4  Au       180
    6.38163882    8.93429461   30.85500000   4  Au       181
    8.93429435    8.93429461   30.85500000   4  Au       182
   11.48694988    8.93429461   30.85500000   4  Au       183

superc: Internal auxiliary supercell:     1 x     3 x     1  =       3
superc: Number of atoms, orbitals, and projectors:    549  2391  3840

neb: Read density matrix (if it exists) number =  5                 

iodm: Reading Density Matrix from files

  5.DM                           
 iscf   1.00010000000000               31
 iscf   1.00160000000000                3
 iscf   1.00120000000000                0
 iscf   1.00180000000000                5
 iscf   1.00100000000000                6
 iscf   1.00190000000000                1
 iscf   1.00120000000000               29
 iscf   1.00010000000000               26
 iscf   1.00060000000000               28
 iscf   1.00060000000000               18
 iscf   1.00050000000000               20
 iscf   1.00110000000000               16
 iscf   1.00100000000000                4
 iscf   1.00090000000000                2
 iscf   1.00190000000000               30
 iscf   1.00160000000000               27
 iscf   1.00100000000000               23
 iscf   1.00040000000000               21
 iscf   1.00130000000000               22
 iscf   1.00060000000000                8
 iscf   1.00140000000000                7
 iscf   1.00080000000000               13
 iscf   1.00070000000000               14
 iscf   1.00180000000000               24
 iscf   1.00190000000000               25
 iscf   1.00050000000000               19
 iscf   1.00100000000000               11
 iscf   1.00130000000000               15
 iscf   1.00080000000000                9
 iscf   1.00090000000000               17
 iscf   1.00110000000000               12
 iscf   1.00070000000000               10
 n_kp=           1
 n_kp=           2
 n_kp=           3
 n_kp=           4
 n_kp=           5
 n_kp=           6
 iscf   22.2257000000000                1
 iscf   22.2268000000000                3
 iscf   22.2259000000000                6
 iscf   22.2251000000000               16
 iscf   22.2239000000000                8
 iscf   22.2234000000000               24
 iscf   22.2238000000000                7
 iscf   22.2249000000000                2
 iscf   22.2221000000000               17
 iscf   22.2229000000000                9
 iscf   22.2234000000000               25
 iscf   22.2249000000000                4
 iscf   22.2252000000000               18
 iscf   22.2219000000000               10
 iscf   22.2253000000000               26
 iscf   22.2261000000000                5
 iscf   22.2232000000000               19
 iscf   22.2230000000000               11
 iscf   22.2244000000000               27

 iscf   22.2252000000000               20
 iscf   22.2220000000000               12
 iscf   22.2253000000000               28
siesta: iscf   Eharris(eV)      E_KS(eV)   FreeEng(eV)   dDmax  Ef(eV)
 iscf   22.2242000000000               21
 iscf   22.2240000000000               13
 iscf   22.2254000000000               29
 iscf   22.2242000000000               22
 iscf   22.2239000000000               14
 iscf   22.2244000000000               30
 iscf   22.2242000000000               23
 iscf   22.2230000000000               15
 iscf   22.2273000000000               31
siesta:    1   -88595.5535   -88595.5611   -88595.5611  0.0021  0.0000
 iscf   22.2271000000000                0
 n_kp=           1
 n_kp=           2
 n_kp=           3
 n_kp=           4
 n_kp=           5
 n_kp=           6
 iscf   18.7397000000000                2
 iscf   18.7397000000000                4
 iscf   18.7397000000000               16
 iscf   18.7395000000000                8
 iscf   18.7398000000000               24
 iscf   18.7398000000000                6
 iscf   18.7398000000000               25
 iscf   18.7398000000000                7
 iscf   18.7397000000000               17
 iscf   18.7397000000000                9
 iscf   18.7398000000000               26
 iscf   18.7398000000000                1
 iscf   18.7395000000000               18
 iscf   18.7397000000000               10
 iscf   18.7398000000000               27
 iscf   18.7398000000000                3
 iscf   18.7397000000000               19
 iscf   18.7397000000000               11
 iscf   18.7398000000000               28
 iscf   18.7396000000000                5
 iscf   18.7397000000000               20
 iscf   18.7397000000000               12
 iscf   18.7398000000000               29
 iscf   18.7397000000000               21
 iscf   18.7397000000000               13
 iscf   18.7398000000000               30
 iscf   18.7397000000000               22
 iscf   18.7397000000000               14
 iscf   18.7395000000000               31
 iscf   18.7397000000000               23
 iscf   18.7397000000000               15
siesta:    2   -88595.7882   -88595.5556   -88595.5556  0.0036  0.0000
 iscf   18.7470000000000                0
 n_kp=           1
 n_kp=           2
 n_kp=           3
 n_kp=           4
 n_kp=           5
 n_kp=           6
 iscf   18.7424000000000                2
 iscf   18.7426000000000                4
 iscf   18.7426000000000               16
 iscf   18.7424000000000                8
 iscf   18.7426000000000               24
 iscf   18.7426000000000                5
 iscf   18.7426000000000                6
 iscf   18.7425000000000                1
 iscf   18.7426000000000               17
 iscf   18.7426000000000                9
 iscf   18.7426000000000               25
 iscf   18.7426000000000                7
 iscf   18.7426000000000               19
 iscf   18.7426000000000               10
 iscf   18.7426000000000               26
 iscf   18.7426000000000                3
 iscf   18.7426000000000               20
 iscf   18.7426000000000               11
 iscf   18.7426000000000               27
 iscf   18.7426000000000               21
 iscf   18.7426000000000               12
 iscf   18.7426000000000               28
 iscf   18.7426000000000               22
 iscf   18.7426000000000               13
 iscf   18.7426000000000               29
 iscf   18.7426000000000               23
 iscf   18.7426000000000               14
 iscf   18.7426000000000               30
 iscf   18.7423000000000               18
 iscf   18.7426000000000               15
 iscf   18.7423000000000               31
siesta:    3   -88595.5759   -88595.5608   -88595.5608  0.0018  0.0000
 iscf   18.7421000000000                0
 n_kp=           1
 n_kp=           2
 n_kp=           3
 n_kp=           4
 n_kp=           5
 n_kp=           6
 iscf   18.8222000000000                1
 iscf   18.8222000000000               16
 iscf   18.8220000000000                8
 iscf   18.8222000000000               24
 iscf   18.8223000000000                4
 iscf   18.8222000000000               17
 iscf   18.8222000000000                9
 iscf   18.8223000000000               25
 iscf   18.8223000000000                5
 iscf   18.8220000000000               18
 iscf   18.8222000000000               10
 iscf   18.8223000000000               26
 iscf   18.8223000000000                6
 iscf   18.8222000000000               19
 iscf   18.8222000000000               11
 iscf   18.8223000000000               27
 iscf   18.8221000000000                3
 iscf   18.8222000000000               20
 iscf   18.8222000000000               12
 iscf   18.8223000000000               28
 iscf   18.8222000000000                7
 iscf   18.8222000000000               21
 iscf   18.8222000000000               13
 iscf   18.8223000000000               29
 iscf   18.8223000000000                2
 iscf   18.8222000000000               22
 iscf   18.8222000000000               14
 iscf   18.8223000000000               30
 iscf   18.8222000000000               23
 iscf   18.8222000000000               15
 iscf   18.8220000000000               31
siesta:    4   -88595.5740   -88595.5614   -88595.5614  0.0012  0.0000
 iscf   18.8215000000000                0
 n_kp=           1
 n_kp=           2
 n_kp=           3
 n_kp=           4
 n_kp=           5
 n_kp=           6
 iscf   18.7970000000000                1
 iscf   18.7970000000000               16
 iscf   18.7967000000000                8
 iscf   18.7970000000000               24
 iscf   18.7967000000000                2
 iscf   18.7970000000000                9
 iscf   18.7970000000000               25
 iscf   18.7970000000000                3
 iscf   18.7970000000000               17
 iscf   18.7970000000000               10
 iscf   18.7970000000000               26
 iscf   18.7970000000000                4
 iscf   18.7967000000000               18
 iscf   18.7970000000000               11
 iscf   18.7970000000000               27
 iscf   18.7970000000000                5
 iscf   18.7970000000000               19
 iscf   18.7970000000000               12
 iscf   18.7970000000000               28
 iscf   18.7970000000000                6
 iscf   18.7970000000000               20
 iscf   18.7970000000000               13
 iscf   18.7970000000000               29
 iscf   18.7969000000000                7
 iscf   18.7970000000000               21
 iscf   18.7970000000000               14
 iscf   18.7970000000000               30
 iscf   18.7970000000000               22
 iscf   18.7970000000000               15
 iscf   18.7967000000000               31
 iscf   18.7970000000000               23
siesta:    5   -88595.5409   -88595.5621   -88595.5621  0.0009  0.0000
 iscf   18.8022000000000                0
 n_kp=           1
 n_kp=           2
 n_kp=           3
 n_kp=           4
 n_kp=           5
 n_kp=           6
 iscf   18.8995000000000                3
 iscf   18.8995000000000               16
 iscf   18.8992000000000                8
 iscf   18.8995000000000               24
 iscf   18.8995000000000                4
 iscf   18.8995000000000               17
 iscf   18.8995000000000                9
 iscf   18.8995000000000               25
 iscf   18.8995000000000                5
 iscf   18.8992000000000               18
 iscf   18.8995000000000               10
 iscf   18.8995000000000               26
 iscf   18.8995000000000                6
 iscf   18.8995000000000               19
 iscf   18.8995000000000               11
 iscf   18.8995000000000               27
 iscf   18.8993000000000                1
 iscf   18.8995000000000               20
 iscf   18.8995000000000               12
 iscf   18.8995000000000               28
 iscf   18.8994000000000                7
 iscf   18.8995000000000               21
 iscf   18.8995000000000               13
 iscf   18.8995000000000               29
 iscf   18.8995000000000                2
 iscf   18.8995000000000               22
 iscf   18.8995000000000               14
 iscf   18.8995000000000               30
 iscf   18.8995000000000               23
 iscf   18.8995000000000               15
 iscf   18.8993000000000               31
siesta:    6   -88595.5785   -88595.5592   -88595.5592  0.0003  0.0000
 iscf   18.8960000000000                0
 n_kp=           1
 n_kp=           2
 n_kp=           3
 n_kp=           4
 n_kp=           5
 n_kp=           6
 iscf   18.7407000000000                1
 iscf   18.7407000000000               16
 iscf   18.7405000000000                8
 iscf   18.7407000000000               24
 iscf   18.7407000000000                4
 iscf   18.7407000000000                9
 iscf   18.7407000000000               25
 iscf   18.7407000000000                5
 iscf   18.7407000000000               17
 iscf   18.7407000000000               10
 iscf   18.7407000000000               26
 iscf   18.7407000000000                6
 iscf   18.7404000000000               18
 iscf   18.7407000000000               11
 iscf   18.7407000000000               27
 iscf   18.7406000000000                7
 iscf   18.7407000000000               19
 iscf   18.7407000000000               12
 iscf   18.7407000000000               28
 iscf   18.7407000000000                3
 iscf   18.7407000000000               20
 iscf   18.7407000000000               13
 iscf   18.7407000000000               29
 iscf   18.7405000000000                2
 iscf   18.7407000000000               21
 iscf   18.7407000000000               14
 iscf   18.7407000000000               30
 iscf   18.7407000000000               22
 iscf   18.7407000000000               15
 iscf   18.7405000000000               31
 iscf   18.7407000000000               23
siesta:    7   -88595.5654   -88595.5598   -88595.5598  0.0003  0.0000
 iscf   18.7389000000000                0
 n_kp=           1
 n_kp=           2
