ATOMS
H             0.00000000      0.00000000     -0.01024134            -0.00112137      0.70710589     -0.00005068
H             0.00000000      0.00000000      0.74024825             0.00112137     -0.70710589      0.00005068
