ATOMS
H             0.00000000      0.00000000     -0.01024134             0.00017266     -0.00005040     -0.70710676
H             0.00000000      0.00000000      0.74024825            -0.00017266      0.00005040      0.70710676
