ATOMS
H             0.00000000      0.00000000     -0.01586883            -0.03062258      0.66457928      0.23957596
H             0.00000000      0.00000000      0.74588125            -0.03062258      0.66457928      0.23957596
