#     Step Nr.          Time[fs]        Kin.[a.u.]          Temp[K]            Pot.[a.u.]        Cons Qty[a.u.]        UsedTime[s]
         0            0.000000         0.708258252       300.000000000         4.602041553         5.310299804         0.000000000
     10000         5000.000000         1.023170518       433.388745959        -2.482597728         5.283550572         0.009647846
     20000        10000.000000         0.764629585       323.877448467        -2.930043984         5.280964737         0.008849144
     30000        15000.000000         0.701643385       297.198112632        -2.923604021         5.280952339         0.007616997
     40000        20000.000000         0.722196998       305.904094909        -2.959232445         5.280569005         0.009472132
     50000        25000.000000         0.746554772       316.221422027        -3.014267580         5.280428732         0.012732029
     60000        30000.000000         0.693869367       293.905238303        -2.907108042         5.281151423         0.008232117
     70000        35000.000000         0.677623633       287.023962573        -3.026722809         5.280476777         0.007207870
     80000        40000.000000         0.694424955       294.140570890        -3.021752553         5.280479366         0.009232998
     90000        45000.000000         0.706778966       299.373412681        -2.956139286         5.280501419         0.007589817
    100000        50000.000000         0.669928161       283.764358157        -2.995025039         5.280884299         0.008888006
    110000        55000.000000         0.686978264       290.986344171        -2.993683235         5.280516069         0.007883072
    120000        60000.000000         0.711009719       301.165451066        -2.971579937         5.280868906         0.007826090
    130000        65000.000000         0.704278464       298.314264389        -2.981407420         5.280678467         0.008038998
    140000        70000.000000         0.702316464       297.483211551        -2.983548698         5.280797391         0.007924080
    150000        75000.000000         0.731610732       309.891510680        -2.968176354         5.280866445         0.007501125
    160000        80000.000000         0.696249816       294.913535229        -2.906492108         5.281165862         0.009809017
    170000        85000.000000         0.699907840       296.462980157        -2.986394541         5.280524844         0.011865139
    180000        90000.000000         0.665928073       282.070023903        -2.978439346         5.280868272         0.007091999
    190000        95000.000000         0.707271855       299.582187719        -3.017889543         5.280836267         0.009130955
    200000       100000.000000         0.725872021       307.460740176        -3.012679609         5.280872921         0.007677794
    210000       105000.000000         0.699971682       296.490021964        -3.052221224         5.280573764         0.007523060
    220000       110000.000000         0.682958773       289.283790870        -2.988879330         5.280683086         0.007817984
    230000       115000.000000         0.737554492       312.409134973        -3.004825974         5.280351883         0.008302927
    240000       120000.000000         0.647207505       274.140472311        -2.984856843         5.280688544         0.008087873
    250000       125000.000000         0.711335705       301.303530396        -3.023029660         5.280616026         0.006098032
    260000       130000.000000         0.676797726       286.674129565        -3.000659132         5.280675700         0.007879972
    270000       135000.000001         0.714356442       302.583036953        -2.950568536         5.281151792         0.008487940
    280000       140000.000001         0.700710702       296.803051760        -2.940579929         5.280949968         0.009681940
    290000       145000.000001         0.745882368       315.936609310        -2.995953221         5.280774825         0.006945133
    300000       150000.000001         0.646807362       273.970981836        -2.964752045         5.280594472         0.008621931
    310000       155000.000001         0.703051563       297.794580423        -2.996652760         5.281151959         0.008267164
    320000       160000.000001         0.720771703       305.300376643        -2.977905644         5.280746483         0.009767056
    330000       165000.000001         0.679899823       287.988098255        -2.964896579         5.280605076         0.007174015
    340000       170000.000001         0.744101086       315.182103984        -2.967668591         5.280857738         0.010586023
    350000       175000.000001         0.761728240       322.648513268        -2.998459343         5.280746841         0.008530140
    360000       180000.000002         0.671165521       284.288472140        -3.011320250         5.280548942         0.007230997
    370000       185000.000002         0.723170370       306.316390174        -2.981148245         5.280552029         0.008340836
    380000       190000.000002         0.732827102       310.406733813        -2.970523832         5.280752955         0.007968903
    390000       195000.000002         0.718244117       304.229756262        -2.990352364         5.280456865         0.006587029
    400000       200000.000002         0.733380574       310.641170412        -2.976069718         5.280880973         0.009053946
    410000       205000.000002         0.727437987       308.124043067        -3.068502717         5.280280838         0.007538080
    420000       210000.000002         0.677472300       286.959861849        -3.012259627         5.280857816         0.008976221
    430000       215000.000002         0.703080068       297.806654332        -3.012956463         5.280671405         0.007315874
    440000       220000.000002         0.747182165       316.487169647        -3.028767906         5.280628872         0.007466078
    450000       225000.000001         0.734102585       310.946995799        -2.928162420         5.281014056         0.007052898
    460000       230000.000001         0.672487889       284.848593432        -2.904390675         5.281509455         0.011335135
    470000       235000.000001         0.704062166       298.222645913        -2.979392664         5.280636809         0.007538080
    480000       240000.000001         0.735845031       311.685051162        -2.974216241         5.280455392         0.008444071
    490000       245000.000001         0.759690207       321.785255028        -2.903179101         5.280978305         0.007942915
    500000       250000.000001         0.714651404       302.707975074        -2.986035566         5.280740666         0.008326054
    510000       255000.000001         0.739260975       313.131957369        -2.999818666         5.280445082         0.007380009
    520000       260000.000001         0.727024817       307.949034884        -3.022868317         5.280680737         0.013977051
    530000       265000.000001         0.721538268       305.625073751        -3.004490582         5.280437491         0.006489038
    540000       270000.000000         0.684360344       289.877460423        -2.980236146         5.281197920         0.007107019
    550000       275000.000000         0.659545956       279.366723133        -2.958315118         5.280681486         0.007942200
    560000       280000.000000         0.684977049       290.138680629        -3.004504263         5.280748717         0.008987188
    570000       285000.000000         0.680930122       288.424506489        -2.916374908         5.281048971         0.008360147
    580000       290000.000000         0.722672135       306.105350885        -2.964688253         5.281115980         0.006633997
    590000       295000.000000         0.717337355       303.845675042        -2.994404757         5.280827962         0.007730007
    600000       300000.000000         0.730475562       309.410681888        -2.992558318         5.280958766         0.006767035
    610000       305000.000000         0.682020580       288.886396471        -3.007902697         5.280791333         0.008214951
    620000       309999.999999         0.725357408       307.242763358        -3.007949696         5.280500356         0.009299040
    630000       314999.999999         0.733153678       310.545063036        -3.013121068         5.280497045         0.008177042
    640000       319999.999999         0.720738065       305.286128458        -2.978573369         5.280873897         0.008812904
    650000       324999.999999         0.700073350       296.533085793        -3.004063742         5.280506922         0.010247946
    660000       329999.999999         0.773987303       327.841137813        -3.024860142         5.280584872         0.009076118
    670000       334999.999999         0.706523483       299.265196423        -3.015080839         5.280454396         0.007904053
    680000       339999.999999         0.713395049       302.175815568        -3.049522336         5.280127192         0.009702921
    690000       344999.999999         0.683004192       289.303029338        -3.005589279         5.280763011         0.007456779
    700000       349999.999998         0.634936031       268.942590933        -3.018219627         5.280585866         0.007907152
    710000       354999.999998         0.750466092       317.878156764        -3.000411715         5.280863843         0.007559061
    720000       359999.999998         0.714456742       302.625521127        -3.049520527         5.280305025         0.009172916
    730000       364999.999998         0.712106566       301.630047029        -2.995989818         5.280335358         0.009615898
    740000       369999.999998         0.672527488       284.865366546        -3.014764520         5.280547109         0.007596970
    750000       374999.999998         0.752974063       318.940469154        -3.036841505         5.280623284         0.008547068
    760000       379999.999998         0.674249738       285.594867345        -3.017859903         5.280625172         0.010658979
    770000       384999.999998         0.642234500       272.034034846        -3.059320469         5.280328246         0.007699013
    780000       389999.999997         0.708248999       299.996080821        -3.009632328         5.280775415         0.007302999
    790000       394999.999997         0.689760222       292.164710022        -2.992681755         5.281009152         0.007244110
    800000       399999.999997         0.703147722       297.835310950        -2.975743150         5.281345588         0.007915020
    810000       404999.999997         0.677858207       287.123322125        -2.944611784         5.280982394         0.009302139
    820000       409999.999997         0.703693645       298.066549896        -2.986524576         5.280327981         0.008555174
    830000       414999.999998         0.741552542       314.102606203        -2.965658265         5.280703663         0.008176088
    840000       419999.999998         0.687612301       291.254905816        -3.009159172         5.280871875         0.008322954
    850000       424999.999998         0.704600004       298.450460421        -2.991955429         5.281194868         0.008386850
    860000       429999.999999         0.711606729       301.418329209        -3.001764094         5.280984426         0.007565022
    870000       434999.999999         0.740551415       313.678554222        -2.968322916         5.280814078         0.007526159
    880000       439999.999999         0.718759108       304.447893004        -3.011405547         5.281083246         0.008204937
    890000       445000.000000         0.700156663       296.568375253        -3.001356259         5.280534587         0.006438971
    900000       450000.000000         0.682463666       289.074076349        -2.986944154         5.280835838         0.013194084
    910000       455000.000000         0.673281894       285.184913379        -2.976011370         5.281053486         0.010035992
    920000       460000.000001         0.715747631       303.172308625        -3.012779692         5.281065800         0.008849859
    930000       465000.000001         0.699217147       296.170420262        -2.957483652         5.280915615         0.008822918
    940000       470000.000001         0.701757326       297.246374935        -2.937616628         5.280999404         0.007685184
    950000       475000.000002         0.738165465       312.667927496        -2.907277593         5.281307714         0.006628990
    960000       480000.000002         0.655490386       277.648887711        -2.921861454         5.281120994         0.007587910
    970000       485000.000002         0.752862763       318.893325090        -2.938070804         5.281162424         0.008442879
    980000       490000.000003         0.723568793       306.485152231        -2.929300264         5.281141308         0.009150028
    990000       495000.000003         0.755486333       320.004602002        -2.962196749         5.281276389         0.007862091
   1000000       500000.000003         0.668991502       283.367613870        -2.915257329         5.281252230         0.008579016
   1010000       505000.000004         0.726504681       307.728718717        -2.978423984         5.281024209         0.006659985
   1020000       510000.000004         0.703830013       298.124312043        -2.974457390         5.281066797         0.007189989
   1030000       515000.000004         0.700922836       296.892906630        -3.020454051         5.280811371         0.009831190
   1040000       520000.000005         0.695864140       294.750172801        -3.043212647         5.280419718         0.010746956
   1050000       525000.000005         0.687183090       291.073103107        -2.922201256         5.281455500         0.006365061
   1060000       530000.000005         0.720807796       305.315664465        -3.007603152         5.280877962         0.006909847
   1070000       535000.000006         0.699342828       296.223655746        -3.001595139         5.280963924         0.007901192
   1080000       540000.000006         0.679688078       287.898408368        -2.987515103         5.281107773         0.011101007
   1090000       545000.000006         0.745404840       315.734340421        -3.003915090         5.281021523         0.008836985
   1100000       550000.000007         0.716859670       303.643340037        -3.016986387         5.280462461         0.008184910
   1110000       555000.000007         0.692044912       293.132446077        -2.971604798         5.281069760         0.007970095
   1120000       560000.000007         0.741723852       314.175168493        -2.942455118         5.280724744         0.006278992
   1130000       565000.000008         0.757455244       320.838582201        -2.947684741         5.280929277         0.007497072
   1140000       570000.000008         0.719106726       304.595134905        -2.949603431         5.281327211         0.007416964
   1150000       575000.000008         0.716415717       303.455292608        -3.015647804         5.280912314         0.006391048
   1160000       580000.000009         0.691884100       293.064330095        -3.002859198         5.280795670         0.007721901
   1170000       585000.000009         0.681287206       288.575757835        -3.011715430         5.280528639         0.007396936
   1180000       590000.000009         0.711637279       301.431269092        -2.976041305         5.280790397         0.015461922
   1190000       595000.000010         0.720522371       305.194765841        -2.986121458         5.280679276         0.007384062
   1200000       600000.000010         0.684577412       289.969404853        -2.935155994         5.280827174         0.007771969
   1210000       605000.000010         0.697962524       295.638994114        -3.020413500         5.280664083         0.006892920
   1220000       610000.000011         0.734510469       311.119765003        -2.996468961         5.280729073         0.006772041
   1230000       615000.000011         0.715941424       303.254394371        -3.016166721         5.280754472         0.007538795
   1240000       620000.000011         0.699996821       296.500670396        -3.042133048         5.280521545         0.006639957
   1250000       625000.000012         0.670290361       283.917777042        -3.008595375         5.280544125         0.008677959
   1260000       630000.000012         0.666203492       282.186684214        -2.963137557         5.280969203         0.008098841
   1270000       635000.000012         0.736256130       311.859181907        -3.058919054         5.280455568         0.007971048
   1280000       640000.000013         0.669051409       283.392988762        -3.037154793         5.280481560         0.009656906
   1290000       645000.000013         0.707416746       299.643559866        -2.975321163         5.280705991         0.009279013
   1300000       650000.000013         0.730740240       309.522792542        -3.028397729         5.280528957         0.008049965
   1310000       655000.000014         0.736940711       312.149153010        -3.045228871         5.280573855         0.011268139
   1320000       660000.000014         0.705327942       298.758796319        -3.019988063         5.280639509         0.007498026
   1330000       665000.000014         0.709139218       300.373154783        -3.010645351         5.280797160         0.008268118
   1340000       670000.000015         0.681730495       288.763523910        -3.004481194         5.280908291         0.008460045
   1350000       675000.000015         0.695291842       294.507762019        -3.025169417         5.280768448         0.008182049
   1360000       680000.000015         0.724454524       306.860324726        -3.050223642         5.280456434         0.005934000
   1370000       685000.000016         0.711657647       301.439896705        -2.946818972         5.280878313         0.008929968
   1380000       690000.000016         0.700506659       296.716624577        -2.955354636         5.280621931         0.007616043
   1390000       695000.000016         0.732688408       310.347986704        -3.019020249         5.280771702         0.013985872
   1400000       700000.000017         0.747656999       316.688297273        -2.983779220         5.280938233         0.007193089
   1410000       705000.000017         0.721170448       305.469274537        -3.040040078         5.280206284         0.009320974
   1420000       710000.000017         0.699103942       296.122469861        -2.962389968         5.281010509         0.008736849
   1430000       715000.000018         0.718456943       304.319903661        -2.954322103         5.280778600         0.008140802
   1440000       720000.000018         0.679902883       287.989394369        -2.975344750         5.281131317         0.005306959
   1450000       725000.000018         0.730432694       309.392524168        -2.939767890         5.280916708         0.008262157
   1460000       730000.000019         0.632799951       268.037802642        -2.964941030         5.280925258         0.007935047
   1470000       735000.000019         0.729047485       308.805785081        -3.006574094         5.280405511         0.008574009
   1480000       740000.000019         0.720006409       304.976217607        -3.016249265         5.280809970         0.007797003
   1490000       745000.000020         0.719077484       304.582748814        -2.921544665         5.281266077         0.008364916
   1500000       750000.000020         0.737088162       312.211609441        -2.968827452         5.280638869         0.007435799
   1510000       755000.000020         0.702535873       297.576147313        -3.006578674         5.280685969         0.006976843
   1520000       760000.000021         0.726274388       307.631172732        -2.969619199         5.280626069         0.009459019
   1530000       765000.000021         0.700619267       296.764322377        -2.978933011         5.280996403         0.008832932
   1540000       770000.000021         0.690488495       292.473187585        -2.945782533         5.281183192         0.007050991
   1550000       775000.000021         0.717078217       303.735910978        -3.018283729         5.280669409         0.007391214
   1560000       780000.000022         0.694383088       294.122837312        -2.938225044         5.281120358         0.006783962
   1570000       785000.000022         0.729703347       309.083591672        -2.975101233         5.281098561         0.006899118
   1580000       790000.000022         0.757299034       320.772415408        -2.953345443         5.280707532         0.008358002
   1590000       795000.000023         0.731287530       309.754610931        -2.965269373         5.281100204         0.009370089
   1600000       800000.000023         0.716891974       303.657023238        -2.961680791         5.281124476         0.007092953
   1610000       805000.000023         0.694744551       294.275943486        -3.061179408         5.280572124         0.009285927
   1620000       810000.000024         0.709852922       300.675461562        -3.021646732         5.280806451         0.007447958
   1630000       815000.000024         0.711066139       301.189349157        -2.970692101         5.280883697         0.008397102
   1640000       820000.000024         0.731312193       309.765057415        -2.953868594         5.281364109         0.007900000
   1650000       825000.000025         0.695268660       294.497942576        -2.970669544         5.280908131         0.008239031
   1660000       830000.000025         0.701328789       297.064857541        -2.976710938         5.280848663         0.007708073
   1670000       835000.000025         0.711309006       301.292221298        -2.965101424         5.281269271         0.008220911
   1680000       840000.000026         0.740841731       313.801524828        -2.914840069         5.281341433         0.008189917
   1690000       845000.000026         0.735282847       311.446924554        -3.003936839         5.280694851         0.009700060
   1700000       850000.000026         0.726661381       307.795092758        -2.986275999         5.280600155         0.007001877
   1710000       855000.000027         0.690021681       292.275457285        -2.984761095         5.281076589         0.007445812
   1720000       860000.000027         0.720442003       305.160723985        -3.053974140         5.280203558         0.009318113
   1730000       865000.000027         0.697014113       295.237271825        -3.050288740         5.280112032         0.006282091
   1740000       870000.000028         0.712460306       301.779882114        -2.996161614         5.281010220         0.008159876
   1750000       875000.000028         0.666995706       282.522245674        -2.968845905         5.280990453         0.012425184
   1760000       880000.000028         0.687207943       291.083629984        -3.000694214         5.280859173         0.009866953
   1770000       885000.000029         0.723967151       306.653886343        -3.030444244         5.280716306         0.006568909
   1780000       890000.000029         0.680058114       288.055146138        -3.039053051         5.280006516         0.008014917
   1790000       895000.000029         0.710421940       300.916483004        -2.938618855         5.281597097         0.008248091
   1800000       900000.000030         0.692177945       293.188795278        -3.029053703         5.280903990         0.009382963
   1810000       905000.000030         0.670847643       284.153827354        -2.948977077         5.281225260         0.013375044
   1820000       910000.000030         0.761302469       322.468167895        -2.975197267         5.281014306         0.007749081
   1830000       915000.000031         0.714908885       302.817037645        -2.941251554         5.280943722         0.008425951
   1840000       920000.000031         0.696497923       295.018626809        -3.039454978         5.280711498         0.010282993
   1850000       925000.000031         0.693540710       293.766027296        -3.040210484         5.280569124         0.008353949
   1860000       930000.000032         0.695137805       294.442515964        -3.013240204         5.280629349         0.006296158
   1870000       935000.000032         0.705081371       298.654355049        -3.002419937         5.280766871         0.008491993
   1880000       940000.000032         0.697614305       295.491497870        -2.946941734         5.280918492         0.008013964
   1890000       945000.000033         0.720577755       305.218224992        -2.976667338         5.281313220         0.009509802
   1900000       950000.000033         0.683506226       289.515677680        -2.951961480         5.281344061         0.007566214
   1910000       955000.000033         0.710533255       300.963633050        -2.965557792         5.280599528         0.009073973
   1920000       960000.000034         0.702089092       297.386902350        -2.981356000         5.280667257         0.006155968
   1930000       965000.000034         0.711322485       301.297930368        -3.016446457         5.280874420         0.008347034
   1940000       970000.000034         0.710614076       300.997866915        -3.078012810         5.280345109         0.007266045
   1950000       975000.000035         0.663914263       281.217025818        -2.966109233         5.281041410         0.008426905
   1960000       980000.000035         0.691530156       292.914408464        -3.041529981         5.280624958         0.005276203
   1970000       985000.000035         0.725775593       307.419896011        -2.971586986         5.280783990         0.008006811
   1980000       990000.000036         0.707091514       299.505799845        -3.004809114         5.280550712         0.008090973
   1990000       995000.000036         0.730474892       309.410398091        -3.020713246         5.280591791         0.009716034
   2000000      1000000.000036         0.704593511       298.447710091        -2.952798839         5.281047634         0.007930994
   2010000      1005000.000037         0.677254603       286.867651081        -2.999914249         5.280945685         0.008031130
   2020000      1010000.000037         0.783656308       331.936679622        -3.026285582         5.280818547         0.008936882
   2030000      1015000.000037         0.662530058       280.630712160        -2.957076055         5.281214049         0.007368088
   2040000      1020000.000038         0.620038959       262.632574025        -2.999776990         5.280858552         0.005897045
   2050000      1025000.000038         0.704790147       298.530999913        -3.037747556         5.280794488         0.009835005
   2060000      1030000.000038         0.721873489       305.767064887        -2.969932192         5.280641970         0.008948088
   2070000      1035000.000039         0.744354450       315.289422307        -2.963727010         5.280929089         0.007441998
   2080000      1040000.000039         0.690714769       292.569031455        -3.037655360         5.280382443         0.008144140
   2090000      1045000.000039         0.719412017       304.724448689        -2.942284134         5.281233865         0.008756161
   2100000      1050000.000040         0.715758879       303.177073123        -2.981186318         5.280928969         0.007676125
   2110000      1055000.000040         0.756519838       320.442368046        -3.029629805         5.280438593         0.008186817
   2120000      1060000.000040         0.712493137       301.793788498        -2.996670941         5.280844028         0.007830143
   2130000      1065000.000041         0.664837187       281.607952750        -2.995853202         5.281290771         0.009748936
   2140000      1070000.000041         0.695312654       294.516577552        -2.992594850         5.280680888         0.008971930
   2150000      1075000.000041         0.697140710       295.290894924        -3.067899100         5.280229573         0.006102085
   2160000      1080000.000042         0.699679649       296.366324290        -3.042133901         5.280531970         0.007594109
   2170000      1085000.000042         0.699954206       296.482619489        -2.976986780         5.280927567         0.009019852
   2180000      1090000.000042         0.729692445       309.078973687        -3.013686295         5.280513896         0.008917809
   2190000      1095000.000043         0.697363350       295.385199730        -3.037902691         5.280587867         0.007022858
   2200000      1100000.000043         0.704806828       298.538065855        -3.013407113         5.280659679         0.007108212
   2210000      1105000.000043         0.699463347       296.274704577        -2.966202727         5.281056095         0.013016939
   2220000      1110000.000044         0.688893337       291.797519754        -2.963109005         5.281349962         0.009140968
   2230000      1115000.000044         0.704782230       298.527646398        -2.983637070         5.280952747         0.008750916
   2240000      1120000.000044         0.704299991       298.323382473        -3.039590600         5.280493809         0.009196997
   2250000      1125000.000045         0.680139167       288.089478026        -2.979648321         5.280702410         0.006838799
   2260000      1130000.000045         0.672775064       284.970233198        -2.986465600         5.280709541         0.008615971
   2270000      1135000.000045         0.745694791       315.857156340        -3.005553645         5.280993435         0.008864164