#     Step Nr.          Time[fs]        Kin.[a.u.]          Temp[K]            Pot.[a.u.]        Cons Qty[a.u.]        UsedTime[s]
  27690000     13844999.998956         0.701900255       297.306916208        -2.983076822         5.281160813         0.004776001
  27700000     13849999.998969         0.712495344       301.794723312        -2.986187412         5.281108105         0.006198883
  27710000     13854999.998981         0.701368811       297.081810005        -3.022404176         5.281053299         0.008081913
  27720000     13859999.998994         0.743080719       314.749902588        -3.004230034         5.281050816         0.005453110
  27730000     13864999.999007         0.714689534       302.724126074        -3.045840710         5.280710252         0.006477833
  27740000     13869999.999020         0.702371217       297.506403210        -3.036050661         5.280650483         0.005226135
  27750000     13874999.999033         0.743073485       314.746838573        -2.948003101         5.280957004         0.005393982
  27760000     13879999.999046         0.658254724       278.819790208        -2.990348102         5.281105912         0.006318808
  27770000     13884999.999059         0.688032623       291.432943565        -3.071077069         5.281029785         0.005780220
  27780000     13889999.999072         0.705596245       298.872442530        -3.038747063         5.280895751         0.006278992
  27790000     13894999.999085         0.671875829       284.589340301        -2.966848913         5.281369637         0.005638838
  27800000     13899999.999098         0.690842910       292.623308548        -2.998353694         5.280674221         0.005120993
  27810000     13904999.999111         0.667911697       282.910236095        -2.977232712         5.281002805         0.007610083
  27820000     13909999.999124         0.687403716       291.166554342        -2.934608156         5.281373310         0.005793810
  27830000     13914999.999137         0.707220950       299.560625519        -2.988874824         5.281393432         0.006105185
  27840000     13919999.999150         0.716153898       303.344392946        -2.980364012         5.281161746         0.004920006
  27850000     13924999.999163         0.702985939       297.766783821        -2.998608914         5.281060685         0.005346060
  27860000     13929999.999176         0.715910572       303.241326245        -3.057630872         5.280977820         0.006165028
  27870000     13934999.999189         0.711197373       301.244936380        -2.967823067         5.281588761         0.004797935
  27880000     13939999.999202         0.711856599       301.524167432        -2.971452147         5.281360298         0.004788160
  27890000     13944999.999215         0.706412887       299.218351162        -3.001564645         5.281253060         0.005259991
  27900000     13949999.999227         0.772640276       327.270571714        -3.003218834         5.281366318         0.005036831
  27910000     13954999.999240         0.705118224       298.669965116        -2.930124181         5.281245580         0.004822969
  27920000     13959999.999253         0.681463764       288.650543623        -2.961222666         5.281174930         0.005865097
  27930000     13964999.999266         0.726277792       307.632614379        -3.005268843         5.281325673         0.008286953
  27940000     13969999.999279         0.726287899       307.636895392        -3.043344347         5.281229162         0.005887985
  27950000     13974999.999292         0.665001285       281.677460262        -3.007814085         5.281175529         0.005300999
  27960000     13979999.999305         0.686009190       290.575869264        -3.010287846         5.281331647         0.006356001
  27970000     13984999.999318         0.709036480       300.329637589        -3.062676920         5.281033403         0.005042791
  27980000     13989999.999331         0.675273098       286.028336258        -3.001095942         5.281471173         0.007233858
  27990000     13994999.999344         0.729227023       308.881832705        -2.989336596         5.281228831         0.007297993
  28000000     13999999.999357         0.698033617       295.669107488        -2.982528395         5.281166172         0.012901068
  28010000     14004999.999370         0.694883802       294.334926712        -2.982743817         5.281152001         0.004785061
  28020000     14009999.999383         0.723667346       306.526896720        -3.022972938         5.281193553         0.006103992
  28030000     14014999.999396         0.694517771       294.179885551        -2.993028855         5.281214556         0.005043030
  28040000     14019999.999409         0.725750045       307.409074150        -2.979908521         5.281406371         0.004981995
  28050000     14024999.999422         0.737371492       312.331620548        -2.988056028         5.281406921         0.005383015
  28060000     14029999.999435         0.732090211       310.094605715        -2.990539355         5.281145700         0.005789042
  28070000     14034999.999448         0.715036114       302.870928538        -2.978293401         5.281459809         0.004949093
  28080000     14039999.999460         0.743939394       315.113615452        -3.008112620         5.280922263         0.004755020
  28090000     14044999.999473         0.725495677       307.301330654        -2.962665694         5.281657422         0.006746054
  28100000     14049999.999486         0.706400535       299.213118918        -3.042496719         5.280915203         0.006352901
  28110000     14054999.999499         0.693303816       293.665685409        -3.017429109         5.281049797         0.007724047
  28120000     14059999.999512         0.718106940       304.171651538        -3.017924943         5.281120498         0.009341955
  28130000     14064999.999525         0.692441507       293.300433218        -3.049875108         5.280708850         0.006367207
  28140000     14069999.999538         0.714759527       302.753773080        -3.032069315         5.281261898         0.005082130
  28150000     14074999.999551         0.744847225       315.498149053        -2.931320728         5.281480633         0.005073071
  28160000     14079999.999564         0.674881193       285.862335535        -2.943476402         5.281584911         0.005041122
  28170000     14084999.999577         0.681766961       288.778969782        -3.003561315         5.280986858         0.006173134
  28180000     14089999.999590         0.728979453       308.776968654        -3.025476394         5.280737798         0.006165028
  28190000     14094999.999603         0.724147466       306.730263033        -2.991447467         5.281575880         0.005004883
  28200000     14099999.999616         0.722235993       305.920612324        -2.976363471         5.281364033         0.005091906
  28210000     14104999.999629         0.694617078       294.221949523        -2.985231664         5.280914516         0.005230904
  28220000     14109999.999642         0.654415714       277.193684540        -2.985035947         5.281148283         0.005491018
  28230000     14114999.999655         0.712665456       301.866778462        -3.001895962         5.281308514         0.005545139
  28240000     14119999.999668         0.721662847       305.677842295        -3.010040945         5.281092707         0.005381107
  28250000     14124999.999681         0.757792226       320.981319228        -2.923055742         5.281791462         0.005538940
  28260000     14129999.999694         0.752392460       318.694117091        -3.039086868         5.281022817         0.006437778
  28270000     14134999.999706         0.721094393       305.437059573        -3.052901004         5.281016612         0.007730961
  28280000     14139999.999719         0.710497567       300.948516547        -3.002501035         5.281380579         0.005280972
  28290000     14144999.999732         0.699756976       296.399078187        -2.914906681         5.281747694         0.004939079
  28300000     14149999.999745         0.675526078       286.135492384        -2.906651308         5.281672247         0.005377054
  28310000     14154999.999758         0.730881077       309.582447612        -2.967331762         5.281586445         0.006338835
  28320000     14159999.999771         0.698529577       295.879183555        -2.993889776         5.281194434         0.004943848
  28330000     14164999.999784         0.666198401       282.184528039        -3.030352689         5.280728621         0.004853010
  28340000     14169999.999797         0.650113487       275.371371365        -2.982431550         5.281293715         0.005386829
  28350000     14174999.999810         0.729886976       309.161372220        -2.978337053         5.281159701         0.004945040
  28360000     14179999.999823         0.713452193       302.200020298        -2.943678775         5.281783936         0.004810095
  28370000     14184999.999836         0.720328553       305.112669773        -3.024891003         5.280814599         0.004861116
  28380000     14189999.999849         0.701456764       297.119064450        -3.076205704         5.280851812         0.005529881
  28390000     14194999.999862         0.702031744       297.362611574        -3.040855949         5.280885180         0.005382061
  28400000     14199999.999875         0.728199728       308.446697033        -3.006136505         5.281238954         0.005007982
  28410000     14204999.999888         0.732745379       310.372118281        -2.988974323         5.281412844         0.006444931
  28420000     14209999.999901         0.721528715       305.621027279        -3.009275474         5.281178008         0.005127907
  28430000     14214999.999914         0.677112366       286.807403204        -2.978054946         5.281352653         0.004659891
  28440000     14219999.999927         0.724166006       306.738116132        -3.029704911         5.281101510         0.005874157
  28450000     14224999.999939         0.678774182       287.511305402        -2.972406196         5.281283517         0.005388975
  28460000     14229999.999952         0.682712320       289.179399861        -2.958317508         5.281331905         0.005261898
  28470000     14234999.999965         0.681375438       288.613130743        -2.972868673         5.281247151         0.005077124
  28480000     14239999.999978         0.702661457       297.629341672        -3.004011110         5.281195015         0.007696152
  28490000     14244999.999991         0.692808228       293.455766738        -3.031508509         5.281334991         0.006509066
  28500000     14250000.000004         0.706958567       299.449487188        -3.061008157         5.280989949         0.004951954
  28510000     14255000.000017         0.697895426       295.610573208        -3.029791642         5.281186354         0.005217791
  28520000     14260000.000030         0.674392207       285.655213415        -3.006270596         5.281413909         0.006372929
  28530000     14265000.000043         0.708251814       299.997273211        -2.975841786         5.281331770         0.006377935
  28540000     14270000.000056         0.707420824       299.645287168        -3.013721971         5.281355483         0.007737875
  28550000     14275000.000069         0.727634455       308.207261922        -2.965538413         5.281499497         0.004852057
  28560000     14280000.000082         0.701772351       297.252739356        -2.990575911         5.281346741         0.004993916
  28570000     14285000.000095         0.689903043       292.225205008        -2.991238201         5.281264098         0.008438826
  28580000     14290000.000108         0.693629480       293.803628342        -2.967473796         5.281914658         0.007360935
  28590000     14295000.000121         0.731756274       309.953158675        -3.013213909         5.281342868         0.004745960
  28600000     14300000.000134         0.712284490       301.705411160        -3.017606830         5.281047239         0.005525112
  28610000     14305000.000147         0.660830628       279.910877098        -2.996671914         5.281287462         0.006192923
  28620000     14310000.000160         0.699693349       296.372127238        -2.987211170         5.281488405         0.006123066
  28630000     14315000.000172         0.700854180       296.863825664        -3.045363980         5.280812824         0.004884005
  28640000     14320000.000185         0.709390398       300.479547970        -2.952720273         5.281567563         0.006250143
  28650000     14325000.000198         0.739782299       313.352776568        -2.906517994         5.281796769         0.005193233
  28660000     14330000.000211         0.736598922       312.004379838        -2.979872731         5.281741421         0.005402088
  28670000     14335000.000224         0.753188019       319.031095107        -2.995555486         5.281408059         0.006166935
  28680000     14340000.000237         0.738859630       312.961957865        -3.000120009         5.281439786         0.005093813
  28690000     14345000.000250         0.709752048       300.632733607        -3.015792219         5.281367437         0.004850864
  28700000     14350000.000263         0.680661230       288.310610637        -2.980878674         5.281440674         0.006478071
  28710000     14355000.000276         0.736267464       311.863982799        -3.031645510         5.281099661         0.006110907
  28720000     14360000.000289         0.718228912       304.223315693        -3.005171335         5.281181974         0.004935026
  28730000     14365000.000302         0.728556466       308.597802097        -2.896380222         5.282451647         0.004808903
  28740000     14370000.000315         0.721103369       305.440861690        -2.975722976         5.281372599         0.005783081
  28750000     14375000.000328         0.700302589       296.630185733        -2.967812020         5.281159472         0.004916906
  28760000     14380000.000341         0.703404274       297.943979670        -2.973521049         5.281444057         0.004751921
  28770000     14385000.000354         0.680223474       288.125188582        -2.974763021         5.281481245         0.004747868
  28780000     14390000.000367         0.689714219       292.145224418        -3.008771950         5.281439191         0.005373955
  28790000     14395000.000380         0.686972024       290.983700821        -2.994339922         5.281235924         0.005403042
  28800000     14400000.000393         0.695757516       294.705009587        -3.018372348         5.281394831         0.005292892
  28810000     14405000.000406         0.705614382       298.880124946        -3.008702655         5.281419126         0.005350113
  28820000     14410000.000418         0.707073309       299.498088799        -2.992692254         5.281007815         0.005134106
  28830000     14415000.000431         0.678125363       287.236482500        -2.974608690         5.281595769         0.004810095
  28840000     14420000.000444         0.735873626       311.697163024        -2.953401846         5.281241656         0.005508184
  28850000     14425000.000457         0.639581354       270.910230452        -3.009213576         5.281416207         0.005164862
  28860000     14430000.000470         0.743349580       314.863785382        -3.005249563         5.280943325         0.006438971
  28870000     14435000.000483         0.710702181       301.035185826        -2.951247720         5.281728748         0.005231142
  28880000     14440000.000496         0.710449080       300.927978449        -2.993922061         5.281378392         0.005277157
  28890000     14445000.000509         0.712233732       301.683911432        -2.962053608         5.281492372         0.005317926
  28900000     14450000.000522         0.715498484       303.066776288        -3.001650930         5.281579074         0.004930973
  28910000     14455000.000535         0.717760489       304.024903762        -2.932994709         5.281760460         0.005384922
  28920000     14460000.000548         0.676028432       286.348276469        -2.982641302         5.281667683         0.005879164
  28930000     14465000.000561         0.696046556       294.827439442        -2.964587969         5.281530219         0.004948854
  28940000     14470000.000574         0.720855607       305.335916239        -3.010604052         5.281356814         0.005007982
  28950000     14475000.000587         0.746294702       316.111263374        -2.944392706         5.281661287         0.004931211
  28960000     14480000.000600         0.679962326       288.014573043        -2.936216788         5.282066889         0.004976988
  28970000     14485000.000613         0.711584630       301.408968374        -3.005374134         5.281209499         0.005135059
  28980000     14490000.000626         0.702932061       297.743962726        -2.981058046         5.281596705         0.005151033
  28990000     14495000.000639         0.677536848       286.987202737        -3.060482963         5.281315146         0.005332947
  29000000     14500000.000651         0.684380131       289.885841472        -3.031818354         5.281161419         0.006248951
  29010000     14505000.000664         0.655317710       277.575746694        -3.048213325         5.281523576         0.005443096
  29020000     14510000.000677         0.660904108       279.942001448        -2.990018426         5.281650081         0.005249023
  29030000     14515000.000690         0.713331626       302.148951150        -2.994740311         5.281285106         0.005652905
  29040000     14520000.000703         0.648865882       274.842918264        -2.978676537         5.281728398         0.005018950
  29050000     14525000.000716         0.764420218       323.788765993        -2.925241464         5.282063277         0.005240917
  29060000     14530000.000729         0.768316859       325.439283376        -2.949311307         5.282163716         0.005698204
  29070000     14535000.000742         0.732618250       310.318269344        -2.982426705         5.281405057         0.005969048
  29080000     14540000.000755         0.759982928       321.909243970        -2.980777031         5.281621435         0.005047083
  29090000     14545000.000768         0.767957301       325.286983628        -3.027671405         5.281415349         0.005455971
  29100000     14550000.000781         0.732047861       310.076667255        -3.021253971         5.281180237         0.005489826
  29110000     14555000.000794         0.693586680       293.785499361        -2.957301295         5.281653285         0.006174803
  29120000     14560000.000807         0.710389863       300.902895755        -2.992669745         5.281527404         0.005486965
  29130000     14565000.000820         0.696450139       294.998386688        -2.994836055         5.281564104         0.005607128
  29140000     14570000.000833         0.679183883       287.684844516        -2.998803294         5.281287875         0.005757093
  29150000     14575000.000846         0.722296115       305.946078312        -3.014664403         5.281393942         0.005688190
  29160000     14580000.000859         0.707967188       299.876712978        -2.993552685         5.281509743         0.004945993
  29170000     14585000.000872         0.724467548       306.865841672        -2.999908865         5.281519680         0.005017996
  29180000     14590000.000885         0.693395686       293.704598861        -2.941165479         5.281709127         0.004986048
  29190000     14595000.000897         0.733259136       310.589732249        -3.015567690         5.281337438         0.005110025
  29200000     14600000.000910         0.748398940       317.002564543        -3.015469619         5.281257955         0.005020857
  29210000     14605000.000923         0.715855421       303.217965674        -3.049187171         5.281117938         0.005259991
  29220000     14610000.000936         0.768931123       325.699469821        -3.030078002         5.281414310         0.005489826
  29230000     14615000.000949         0.671106189       284.263340929        -2.983828643         5.281508438         0.005360842
  29240000     14620000.000962         0.762338544       322.907022631        -3.054489249         5.281279686         0.004938126
  29250000     14625000.000975         0.717262965       303.814165414        -3.048471489         5.281046796         0.005532980
  29260000     14630000.000988         0.730332515       309.350090762        -3.019429790         5.281323913         0.006140947
  29270000     14635000.001001         0.677221730       286.853726998        -2.996339753         5.281457743         0.005127907
  29280000     14640000.001014         0.718479412       304.329420789        -3.026728906         5.281358841         0.004726887
  29290000     14645000.001027         0.752476470       318.729701392        -2.964067710         5.281931620         0.006628990
  29300000     14650000.001040         0.705107788       298.665544605        -2.997866625         5.281632942         0.005188942
  29310000     14655000.001053         0.696682732       295.096907261        -2.985955587         5.281497737         0.005666018
  29320000     14660000.001066         0.714598062       302.685380992        -3.009680371         5.281506473         0.005608082
  29330000     14665000.001079         0.748567167       317.073820970        -2.971011118         5.281865349         0.005300999
  29340000     14670000.001092         0.718810769       304.469775103        -3.011008166         5.281660580         0.007068872
  29350000     14675000.001105         0.693968693       293.947309943        -2.956272281         5.281716266         0.006941080
  29360000     14680000.001118         0.758451033       321.260372921        -2.998452980         5.281312694         0.006366968
  29370000     14685000.001130         0.658634049       278.980462533        -3.001805190         5.281514945         0.007834911
  29380000     14690000.001143         0.689980431       292.257984718        -2.963310097         5.281540595         0.006215096
  29390000     14695000.001156         0.714410782       302.606053879        -3.042343521         5.281091905         0.006743193
  29400000     14700000.001169         0.724423930       306.847366295        -2.971525202         5.281633911         0.005378008
  29410000     14705000.001182         0.746008342       315.989968570        -3.012569668         5.281389076         0.005927086
  29420000     14710000.001195         0.674441315       285.676014577        -3.038504359         5.281283309         0.005810976
  29430000     14715000.001208         0.699024412       296.088782652        -2.988788327         5.281587937         0.006512880
  29440000     14720000.001221         0.650888634       275.699703690        -3.031813457         5.281345640         0.008141041
  29450000     14725000.001234         0.723035486       306.259256854        -3.037576418         5.281343321         0.005373001
  29460000     14730000.001247         0.703171306       297.845300570        -3.046177278         5.280894677         0.008286953
  29470000     14735000.001260         0.694247801       294.065533125        -2.982371660         5.281334870         0.008347034
  29480000     14740000.001273         0.707514150       299.684817670        -2.970958236         5.281058188         0.005697012
  29490000     14745000.001286         0.640658214       271.366360580        -2.946306402         5.281462607         0.005769968
  29500000     14750000.001299         0.700057771       296.526487182        -2.960471736         5.281469210         0.006929874
  29510000     14755000.001312         0.702785480       297.681874492        -3.069628582         5.281161319         0.006022930
  29520000     14760000.001325         0.684363418       289.878762357        -2.995346048         5.281055610         0.006730080
  29530000     14765000.001338         0.737007915       312.177619049        -2.989944361         5.281309822         0.005939007
  29540000     14770000.001351         0.695832658       294.736837608        -3.018180809         5.281274517         0.005702972
  29550000     14775000.001364         0.660592136       279.809858185        -2.950628822         5.281659736         0.007090092
  29560000     14780000.001376         0.685481188       290.352220840        -2.965455265         5.281662464         0.005745888
  29570000     14785000.001389         0.697017648       295.238769274        -2.971126288         5.281469047         0.006195068
  29580000     14790000.001402         0.724237844       306.768544652        -3.020576340         5.280980482         0.007156134
  29590000     14795000.001415         0.686917020       290.960402762        -3.024388357         5.280885837         0.010103941
  29600000     14800000.001428         0.735996339       311.749141355        -2.982348982         5.281678566         0.007225990
  29610000     14805000.001441         0.773949695       327.825207794        -2.912004419         5.281579267         0.005980015
  29620000     14810000.001454         0.706750679       299.361431087        -3.000527131         5.281491936         0.008067131
  29630000     14815000.001467         0.707996924       299.889308344        -2.972642595         5.281526336         0.009961843
  29640000     14820000.001480         0.735613185       311.586846905        -2.970777704         5.281072772         0.005491018
  29650000     14825000.001493         0.729944450       309.185716633        -2.972756575         5.281242250         0.007042885
  29660000     14830000.001506         0.775724450       328.576948518        -2.946524759         5.281827160         0.005686998
  29670000     14835000.001519         0.724912811       307.054443710        -2.929205109         5.281596970         0.005359888
  29680000     14840000.001532         0.732433303       310.239930857        -3.012213668         5.280962707         0.008563995
  29690000     14845000.001545         0.681721757       288.759822816        -3.022843425         5.281364650         0.006177902
  29700000     14850000.001558         0.698378203       295.815065373        -2.993890548         5.281394343         0.006548882
  29710000     14855000.001571         0.720246166       305.077772409        -2.978602134         5.281429863         0.007171154
  29720000     14860000.001584         0.685091342       290.187092096        -3.075044802         5.281035328         0.007009983
  29730000     14865000.001597         0.719702302       304.847405988        -3.002054053         5.281177842         0.004673004
  29740000     14870000.001609         0.750534739       317.907233823        -3.009563464         5.281331308         0.005737066
  29750000     14875000.001622         0.692590396       293.363498869        -2.970563396         5.281493631         0.005417109
  29760000     14880000.001635         0.702565717       297.588788811        -2.962042939         5.281552917         0.005365133
  29770000     14885000.001648         0.730746137       309.525290506        -2.957462652         5.281823471         0.005623102
  29780000     14890000.001661         0.738567902       312.838389244        -2.968239052         5.281575683         0.005703211
  29790000     14895000.001674         0.749496078       317.467283809        -2.950495655         5.281709307         0.004909039
  29800000     14900000.001687         0.749084144       317.292799089        -3.009572545         5.281446336         0.004963160
  29810000     14905000.001700         0.704220540       298.289729157        -3.049208449         5.280754691         0.004963160
  29820000     14910000.001713         0.656178063       277.940170110        -2.969118594         5.281340016         0.004935026
  29830000     14915000.001726         0.709847320       300.673088372        -2.963087194         5.281658186         0.004929066
  29840000     14920000.001739         0.751785586       318.437060715        -2.974160779         5.281450384         0.005249023
  29850000     14925000.001752         0.684277729       289.842466871        -2.970730868         5.281585998         0.005563021
  29860000     14930000.001765         0.670115727       283.843806381        -3.060061915         5.280972529         0.004930973
  29870000     14935000.001778         0.734648807       311.178361170        -3.044049524         5.281003873         0.009475946
  29880000     14940000.001791         0.702931197       297.743596766        -2.965327299         5.281486873         0.004777908
  29890000     14945000.001804         0.753919484       319.340925018        -2.991753032         5.281571808         0.005666971
  29900000     14950000.001817         0.755598218       320.051993454        -2.950663878         5.281595816         0.005954981
  29910000     14955000.001830         0.712300740       301.712294154        -3.002599671         5.281267137         0.005146980
  29920000     14960000.001842         0.734309742       311.034742246        -3.002726039         5.281220225         0.006109953
  29930000     14965000.001855         0.715805746       303.196924836        -3.042586570         5.281047855         0.005192995
  29940000     14970000.001868         0.680025655       288.041397264        -3.011361621         5.281484045         0.006654024
  29950000     14975000.001881         0.710131230       300.793345448        -3.013392410         5.281589587         0.004817963
  29960000     14980000.001894         0.683608919       289.559176141        -2.988595698         5.281539048         0.005965948