ATOMS
Au            1.78720903      1.28067091      0.00000000             0.00000000      0.00000000      0.00000000
Au            0.30935586      2.75852409      2.09000000             0.00000000      0.00000000      0.00000000
Au            1.78720903      1.28067091      4.18000000             0.00000000      0.00000000      0.00000000
Au            0.30935586      2.75852409      6.27000000             0.00000000      0.00000000      0.00000000
Au            4.74291537      1.28067091      0.00000000             0.00000000      0.00000000      0.00000000
Au            3.26506220      2.75852409      2.09000000             0.00000000      0.00000000      0.00000000
Au            4.74291537      1.28067091      4.18000000             0.00000000      0.00000000      0.00000000
Au            3.26506220      2.75852409      6.27000000             0.00000000      0.00000000      0.00000000
Au            7.69862172      1.28067091      0.00000000             0.00000000      0.00000000      0.00000000
Au            6.22076855      2.75852409      2.09000000             0.00000000      0.00000000      0.00000000
Au            7.69862172      1.28067091      4.18000000             0.00000000      0.00000000      0.00000000
Au            6.22076855      2.75852409      6.27000000             0.00000000      0.00000000      0.00000000
Au            1.78720903      4.23637726      0.00000000             0.00000000      0.00000000      0.00000000
Au            0.30935586      5.71423043      2.09000000             0.00000000      0.00000000      0.00000000
Au            1.78720903      4.23637726      4.18000000             0.00000000      0.00000000      0.00000000
Au            0.30935586      5.71423043      6.27000000             0.00000000      0.00000000      0.00000000
Au            4.74291537      4.23637726      0.00000000             0.00000000      0.00000000      0.00000000
Au            3.26506220      5.71423043      2.09000000             0.00000000      0.00000000      0.00000000
Au            4.74291537      4.23637726      4.18000000             0.00000000      0.00000000      0.00000000
Au            3.26506220      5.71423043      6.27000000             0.00000000      0.00000000      0.00000000
Au            7.69862172      4.23637726      0.00000000             0.00000000      0.00000000      0.00000000
Au            6.22076855      5.71423043      2.09000000             0.00000000      0.00000000      0.00000000
Au            7.69862172      4.23637726      4.18000000             0.00000000      0.00000000      0.00000000
Au            6.22076855      5.71423043      6.27000000             0.00000000      0.00000000      0.00000000
Au            1.78720903      7.19208360      0.00000000             0.00000000      0.00000000      0.00000000
Au            0.30935586      8.66993678      2.09000000             0.00000000      0.00000000      0.00000000
Au            1.78720903      7.19208360      4.18000000             0.00000000      0.00000000      0.00000000
Au            0.30935586      8.66993678      6.27000000             0.00000000      0.00000000      0.00000000
Au            4.74291537      7.19208360      0.00000000             0.00000000      0.00000000      0.00000000
Au            3.26506220      8.66993678      2.09000000             0.00000000      0.00000000      0.00000000
Au            4.74291537      7.19208360      4.18000000             0.00000000      0.00000000      0.00000000
Au            3.26506220      8.66993678      6.27000000             0.00000000      0.00000000      0.00000000
Au            7.69862172      7.19208360      0.00000000             0.00000000      0.00000000      0.00000000
Au            6.22076855      8.66993678      2.09000000             0.00000000      0.00000000      0.00000000
Au            7.69862172      7.19208360      4.18000000             0.00000000      0.00000000      0.00000000
Au            6.22076855      8.66993678      6.27000000             0.00000000      0.00000000      0.00000000
Au            1.78720903      1.28067091      8.36000000             0.00000000      0.00000000      0.00000000
Au            1.78720903      4.23637726      8.36000000             0.00000000      0.00000000      0.00000000
Au            1.78720903      7.19208360      8.36000000             0.00000000      0.00000000      0.00000000
Au            4.74291537      1.28067091      8.36000000             0.00000000      0.00000000      0.00000000
Au            4.74291537      4.23637726      8.36000000             0.00000000      0.00000000      0.00000000
Au            4.74291537      7.19208360      8.36000000             0.00000000      0.00000000      0.00000000
Au            7.69862172      1.28067091      8.36000000             0.00000000      0.00000000      0.00000000
Au            7.69862172      4.23637726      8.36000000             0.00000000      0.00000000      0.00000000
Au            7.69862172      7.19208360      8.36000000             0.00000000      0.00000000      0.00000000
Au            0.30935586      2.75852409     10.45000000             0.00000000      0.00000000      0.00000000
Au            0.30935586      5.71423043     10.45000000             0.00000000      0.00000000      0.00000000
Au            0.30935586      8.66993678     10.45000000             0.00000000      0.00000000      0.00000000
Au            3.26506220      2.75852409     10.45000000             0.00000000      0.00000000      0.00000000
Au            3.26506220      5.71423043     10.45000000             0.00000000      0.00000000      0.00000000
Au            3.26506220      8.66993678     10.45000000             0.00000000      0.00000000      0.00000000
Au            6.22076855      2.75852409     10.45000000             0.00000000      0.00000000      0.00000000
Au            6.22076855      5.71423043     10.45000000             0.00000000      0.00000000      0.00000000
Au            6.22076855      8.66993678     10.45000000             0.00000000      0.00000000      0.00000000
Au            1.75303285      4.20382505     12.43633889             0.00000000      0.00000000      0.00000000
Au            1.75292575      7.22806730     12.43810316             0.00000000      0.00000000      0.00000000
Au            4.77697176      4.20403781     12.43652365             0.00000000      0.00000000      0.00000000
Au            4.77700972      7.22775091     12.43825971             0.00000000      0.00000000      0.00000000
Au            3.26445737      5.71378337     14.34072788             0.00004239      0.00034357     -0.00016891
Au            3.26698333      5.75265984     17.01425956            -0.00005245     -0.00038387      0.00004768
H             3.25251931      5.71902023     18.89009854            -0.11576489     -0.69151111     -0.00383133
H             3.25459080      5.72334718     19.76215822             0.11165933      0.70407688     -0.01427595
Au            3.24171928      5.71965823     21.64219676             0.00000848      0.00002689      0.00016892
Au            3.25913575      5.71906382     24.29066483            -0.00000104     -0.00006737      0.00001713
Au            1.77417842      4.22273308     26.27163434             0.00000000      0.00000000      0.00000000
Au            1.77267254      7.20525981     26.27280869             0.00000000      0.00000000      0.00000000
Au            4.75398518      4.22401064     26.27085556             0.00000000      0.00000000      0.00000000
Au            4.75521555      7.20376106     26.27202261             0.00000000      0.00000000      0.00000000
Au            0.30935586      2.75852409     28.27000000             0.00000000      0.00000000      0.00000000
Au            0.30935586      5.71423043     28.27000000             0.00000000      0.00000000      0.00000000
Au            0.30935586      8.66993678     28.27000000             0.00000000      0.00000000      0.00000000
Au            3.26506220      2.75852409     28.27000000             0.00000000      0.00000000      0.00000000
Au            3.26506220      5.71423043     28.27000000             0.00000000      0.00000000      0.00000000
Au            3.26506220      8.66993678     28.27000000             0.00000000      0.00000000      0.00000000
Au            6.22076855      2.75852409     28.27000000             0.00000000      0.00000000      0.00000000
Au            6.22076855      5.71423043     28.27000000             0.00000000      0.00000000      0.00000000
Au            6.22076855      8.66993678     28.27000000             0.00000000      0.00000000      0.00000000
Au            1.78720903      1.28067091     30.36000000             0.00000000      0.00000000      0.00000000
Au            0.30935586      2.75852409     32.45000000             0.00000000      0.00000000      0.00000000
Au            1.78720903      1.28067091     34.54000000             0.00000000      0.00000000      0.00000000
Au            0.30935586      2.75852409     36.63000000             0.00000000      0.00000000      0.00000000
Au            4.74291537      1.28067091     30.36000000             0.00000000      0.00000000      0.00000000
Au            3.26506220      2.75852409     32.45000000             0.00000000      0.00000000      0.00000000
Au            4.74291537      1.28067091     34.54000000             0.00000000      0.00000000      0.00000000
Au            3.26506220      2.75852409     36.63000000             0.00000000      0.00000000      0.00000000
Au            7.69862172      1.28067091     30.36000000             0.00000000      0.00000000      0.00000000
Au            6.22076855      2.75852409     32.45000000             0.00000000      0.00000000      0.00000000
Au            7.69862172      1.28067091     34.54000000             0.00000000      0.00000000      0.00000000
Au            6.22076855      2.75852409     36.63000000             0.00000000      0.00000000      0.00000000
Au            1.78720903      4.23637726     30.36000000             0.00000000      0.00000000      0.00000000
Au            0.30935586      5.71423043     32.45000000             0.00000000      0.00000000      0.00000000
Au            1.78720903      4.23637726     34.54000000             0.00000000      0.00000000      0.00000000
Au            0.30935586      5.71423043     36.63000000             0.00000000      0.00000000      0.00000000
Au            4.74291537      4.23637726     30.36000000             0.00000000      0.00000000      0.00000000
Au            3.26506220      5.71423043     32.45000000             0.00000000      0.00000000      0.00000000
Au            4.74291537      4.23637726     34.54000000             0.00000000      0.00000000      0.00000000
Au            3.26506220      5.71423043     36.63000000             0.00000000      0.00000000      0.00000000
Au            7.69862172      4.23637726     30.36000000             0.00000000      0.00000000      0.00000000
Au            6.22076855      5.71423043     32.45000000             0.00000000      0.00000000      0.00000000
Au            7.69862172      4.23637726     34.54000000             0.00000000      0.00000000      0.00000000
Au            6.22076855      5.71423043     36.63000000             0.00000000      0.00000000      0.00000000
Au            1.78720903      7.19208360     30.36000000             0.00000000      0.00000000      0.00000000
Au            0.30935586      8.66993678     32.45000000             0.00000000      0.00000000      0.00000000
Au            1.78720903      7.19208360     34.54000000             0.00000000      0.00000000      0.00000000
Au            0.30935586      8.66993678     36.63000000             0.00000000      0.00000000      0.00000000
Au            4.74291537      7.19208360     30.36000000             0.00000000      0.00000000      0.00000000
Au            3.26506220      8.66993678     32.45000000             0.00000000      0.00000000      0.00000000
Au            4.74291537      7.19208360     34.54000000             0.00000000      0.00000000      0.00000000
Au            3.26506220      8.66993678     36.63000000             0.00000000      0.00000000      0.00000000
Au            7.69862172      7.19208360     30.36000000             0.00000000      0.00000000      0.00000000
Au            6.22076855      8.66993678     32.45000000             0.00000000      0.00000000      0.00000000
Au            7.69862172      7.19208360     34.54000000             0.00000000      0.00000000      0.00000000
Au            6.22076855      8.66993678     36.63000000             0.00000000      0.00000000      0.00000000
