 DBCSR| CPU Multiplication driver                                           XSMM
 DBCSR| Multrec recursion limit                                              512
 DBCSR| Multiplication stack size                                           1000
 DBCSR| Maximum elements for images                                    UNLIMITED
 DBCSR| Multiplicative factor virtual images                                   1
 DBCSR| Use multiplication densification                                       T
 DBCSR| Multiplication size stacks                                             3
 DBCSR| Use memory pool for CPU allocation                                     F
 DBCSR| Number of 3D layers                                               SINGLE
 DBCSR| Use MPI memory allocation                                              F
 DBCSR| Use RMA algorithm                                                      F
 DBCSR| Use Communication thread                                               T
 DBCSR| Communication thread load                                             87
 DBCSR| MPI: My node id                                                        0
 DBCSR| MPI: Number of nodes                                                 240
 DBCSR| OMP: Current number of threads                                         1
 DBCSR| OMP: Max number of threads                                             1
 DBCSR| Split modifier for TAS multiplication algorithm                  1.0E+00


  **** **** ******  **  PROGRAM STARTED AT               2023-03-09 22:32:39.358
 ***** ** ***  *** **   PROGRAM STARTED ON                 cn1011.scarf.rl.ac.uk
 **    ****   ******    PROGRAM STARTED BY                             scarf1157
 ***** **    ** ** **   PROGRAM PROCESS ID                                 20971
  **** **  *******  **  PROGRAM STARTED IN /work4/scd/scarf1157/work/testing/cp2
                                           k-smeagol/bdt/cp2k/hollow-site/transp
                                           ort-cp2k/5-4/geometry-ordered/3x3-4/s
                                           z/bulk_layers-4/transmission/exp/sz/s
                                           ergey/kpoints_bulk-31_em-1-1-1

 CP2K| version string:                 CP2K version 2022.1 (Development Version)
 CP2K| source code revision number:                                  git:e136ce5
 CP2K| cp2kflags: omp fftw3 libxc parallel mpi3 scalapack xsmm spglib           
 CP2K| is freely available from                            https://www.cp2k.org/
 CP2K| Program compiled at                          Thu  9 Mar 17:17:16 GMT 2023
 CP2K| Program compiled on                                 cn1108.scarf.rl.ac.uk
 CP2K| Program compiled for                                                local
 CP2K| Data directory path    /home/vol07/scarf1157/code/smeagol/cp2k-smeagol/sc
 CP2K| Input file name                                                  3_0V.inp

 GLOBAL| Force Environment number                                              1
 GLOBAL| Basis set file name                                        BASIS_MOLOPT
 GLOBAL| Potential file name                                      GTH_POTENTIALS
 GLOBAL| MM Potential file name                                     MM_POTENTIAL
 GLOBAL| Coordinate file name                                             em.xyz
 GLOBAL| Method name                                                        CP2K
 GLOBAL| Project name                                                         0V
 GLOBAL| Run type                                                         ENERGY
 GLOBAL| FFT library                                                       FFTW3
 GLOBAL| Diagonalization library                                       ScaLAPACK
 GLOBAL| Orthonormality check for eigenvectors                          DISABLED
 GLOBAL| Matrix multiplication library                                 ScaLAPACK
 GLOBAL| All-to-all communication in single precision                          F
 GLOBAL| FFTs using library dependent lengths                                  T
 GLOBAL| Grid backend                                                       AUTO
 GLOBAL| Global print level                                               MEDIUM
 GLOBAL| MPI I/O enabled                                                       T
 GLOBAL| Total number of message passing processes                           240
 GLOBAL| Number of threads for this process                                    1
 GLOBAL| This output is from process                                           0
 GLOBAL| Stack size for threads created by OpenMP (OMP_STACKSIZE)        default
 GLOBAL| CPU model name                         AMD EPYC 7502P 32-Core Processor
 GLOBAL| CPUID                                                              1002

 MEMORY| system memory details [Kb]
 MEMORY|                        rank 0           min           max       average
 MEMORY| MemTotal            263896980     263896980     263896984     263896981
 MEMORY| MemFree             217266116      45310628     222855652     178890981
 MEMORY| Buffers                   372           372          3452          2243
 MEMORY| Cached               27862928      24161624     202021860      68428202
 MEMORY| Slab                  1101456       1014528       1996268       1269737
 MEMORY| SReclaimable           588920        513544       1478036        750633
 MEMORY| MemLikelyFree       245718336     245718004     249086000     248072059


 *** Fundamental physical constants (SI units) ***

 *** Literature: B. J. Mohr and B. N. Taylor,
 ***             CODATA recommended values of the fundamental physical
 ***             constants: 2006, Web Version 5.1
 ***             http://physics.nist.gov/constants

 Speed of light in vacuum [m/s]                             2.99792458000000E+08
 Magnetic constant or permeability of vacuum [N/A**2]       1.25663706143592E-06
 Electric constant or permittivity of vacuum [F/m]          8.85418781762039E-12
 Planck constant (h) [J*s]                                  6.62606896000000E-34
 Planck constant (h-bar) [J*s]                              1.05457162825177E-34
 Elementary charge [C]                                      1.60217648700000E-19
 Electron mass [kg]                                         9.10938215000000E-31
 Electron g factor [ ]                                     -2.00231930436220E+00
 Proton mass [kg]                                           1.67262163700000E-27
 Fine-structure constant                                    7.29735253760000E-03
 Rydberg constant [1/m]                                     1.09737315685270E+07
 Avogadro constant [1/mol]                                  6.02214179000000E+23
 Boltzmann constant [J/K]                                   1.38065040000000E-23
 Atomic mass unit [kg]                                      1.66053878200000E-27
 Bohr radius [m]                                            5.29177208590000E-11

 *** Conversion factors ***

 [u] -> [a.u.]                                              1.82288848426455E+03
 [Angstrom] -> [Bohr] = [a.u.]                              1.88972613288564E+00
 [a.u.] = [Bohr] -> [Angstrom]                              5.29177208590000E-01
 [a.u.] -> [s]                                              2.41888432650478E-17
 [a.u.] -> [fs]                                             2.41888432650478E-02
 [a.u.] -> [J]                                              4.35974393937059E-18
 [a.u.] -> [N]                                              8.23872205491840E-08
 [a.u.] -> [K]                                              3.15774647902944E+05
 [a.u.] -> [kJ/mol]                                         2.62549961709828E+03
 [a.u.] -> [kcal/mol]                                       6.27509468713739E+02
 [a.u.] -> [Pa]                                             2.94210107994716E+13
 [a.u.] -> [bar]                                            2.94210107994716E+08
 [a.u.] -> [atm]                                            2.90362800883016E+08
 [a.u.] -> [eV]                                             2.72113838565563E+01
 [a.u.] -> [Hz]                                             6.57968392072181E+15
 [a.u.] -> [1/cm] (wave numbers)                            2.19474631370540E+05
 [a.u./Bohr**2] -> [1/cm]                                   5.14048714338585E+03
 

 CELL_TOP| Volume [angstrom^3]:                                      2357.480286
 CELL_TOP| Vector a [angstrom     8.336     0.000     0.000   |a| =     8.336000
 CELL_TOP| Vector b [angstrom     0.000     8.336     0.000   |b| =     8.336000
 CELL_TOP| Vector c [angstrom     0.000     0.000    33.926   |c| =    33.926000
 CELL_TOP| Angle (b,c), alpha [degree]:                                90.000000
 CELL_TOP| Angle (a,c), beta  [degree]:                                90.000000
 CELL_TOP| Angle (a,b), gamma [degree]:                                90.000000
 CELL_TOP| Numerically orthorhombic:                                         YES
 CELL_TOP| Periodicity                                                       XYZ

 GENERATE|  Preliminary Number of Bonds generated:                             0
 GENERATE|  Achieved consistency in connectivity generation.

 CELL| Volume [angstrom^3]:                                          2357.480286
 CELL| Vector a [angstrom]:       8.336     0.000     0.000   |a| =     8.336000
 CELL| Vector b [angstrom]:       0.000     8.336     0.000   |b| =     8.336000
 CELL| Vector c [angstrom]:       0.000     0.000    33.926   |c| =    33.926000
 CELL| Angle (b,c), alpha [degree]:                                    90.000000
 CELL| Angle (a,c), beta  [degree]:                                    90.000000
 CELL| Angle (a,b), gamma [degree]:                                    90.000000
 CELL| Numerically orthorhombic:                                             YES
 CELL| Periodicity                                                           XYZ

 CELL_REF| Volume [angstrom^3]:                                      2357.480286
 CELL_REF| Vector a [angstrom     8.336     0.000     0.000   |a| =     8.336000
 CELL_REF| Vector b [angstrom     0.000     8.336     0.000   |b| =     8.336000
 CELL_REF| Vector c [angstrom     0.000     0.000    33.926   |c| =    33.926000
 CELL_REF| Angle (b,c), alpha [degree]:                                90.000000
 CELL_REF| Angle (a,c), beta  [degree]:                                90.000000
 CELL_REF| Angle (a,b), gamma [degree]:                                90.000000
 CELL_REF| Numerically orthorhombic:                                         YES
 CELL_REF| Periodicity                                                       XYZ

 *******************************************************************************
                                    Kpoints
 *******************************************************************************
 BRILLOUIN| K-point scheme                                        Monkhorst-Pack
 BRILLOUIN| K-Point grid                                             1    1    1
 BRILLOUIN| Accuracy in Symmetry determination                      0.100000E-07
 BRILLOUIN| K-Point point group symmetrization                               OFF
 BRILLOUIN| Wavefunction type                                            COMPLEX
 BRILLOUIN| Use full k-point grid     
 BRILLOUIN| List of Kpoints [2 Pi/Bohr]                                        1
 BRILLOUIN| Number           Weight            X              Y              Z
 BRILLOUIN|     1           1.00000        0.00000        0.00000        0.00000
 *******************************************************************************

 *******************************************************************************
 *******************************************************************************
 **                                                                           **
 **     #####                         ##              ##                      **
 **    ##   ##            ##          ##              ##                      **
 **   ##     ##                       ##            ######                    **
 **   ##     ##  ##   ##  ##   #####  ##  ##   ####   ##    #####    #####    **
 **   ##     ##  ##   ##  ##  ##      ## ##   ##      ##   ##   ##  ##   ##   **
 **   ##  ## ##  ##   ##  ##  ##      ####     ###    ##   ######   ######    **
 **    ##  ###   ##   ##  ##  ##      ## ##      ##   ##   ##       ##        **
 **     #######   #####   ##   #####  ##  ##  ####    ##    #####   ##        **
 **           ##                                                    ##        **
 **                                                                           **
 **                                                ... make the atoms dance   **
 **                                                                           **
 **            Copyright (C) by CP2K developers group (2000-2022)             **
 **                      J. Chem. Phys. 152, 194103 (2020)                    **
 **                                                                           **
 *******************************************************************************

 DFT| Spin restricted Kohn-Sham (RKS) calculation                            RKS
 DFT| Multiplicity                                                             1
 DFT| Number of spin states                                                    1
 DFT| Charge                                                                   0
 DFT| Self-interaction correction (SIC)                                       NO
 DFT| Cutoffs: density                                              1.000000E-10
 DFT|          gradient                                             1.000000E-10
 DFT|          tau                                                  1.000000E-10
 DFT|          cutoff_smoothing_range                               0.000000E+00
 DFT| XC density smoothing                                                  NONE
 DFT| XC derivatives                                                          PW

 FUNCTIONAL| PADE:
 FUNCTIONAL| S. Goedecker, M. Teter and J. Hutter, Phys. Rev. B 54, 1703 (1996) 


 QS| Method:                                                                 GPW
 QS| Density plane wave grid type                        NON-SPHERICAL FULLSPACE
 QS| Number of grid levels:                                                    4
 QS| Density cutoff [a.u.]:                                                200.0
 QS| Multi grid cutoff [a.u.]: 1) grid level                               200.0
 QS|                           2) grid level                                66.7
 QS|                           3) grid level                                22.2
 QS|                           4) grid level                                 7.4
 QS| Grid level progression factor:                                          3.0
 QS| Relative density cutoff [a.u.]:                                        20.0
 QS| Interaction thresholds: eps_pgf_orb:                                1.0E-05
 QS|                         eps_filter_matrix:                          0.0E+00
 QS|                         eps_core_charge:                            1.0E-12
 QS|                         eps_rho_gspace:                             1.0E-10
 QS|                         eps_rho_rspace:                             1.0E-10
 QS|                         eps_gvg_rspace:                             1.0E-05
 QS|                         eps_ppl:                                    1.0E-02
 QS|                         eps_ppnl:                                   1.0E-07


 ATOMIC KIND INFORMATION

  1. Atomic kind: Au                                    Number of atoms:     104

     Orbital Basis Set                                         SZV-MOLOPT-SR-GTH

       Number of orbital shell sets:                                           1
       Number of orbital shells:                                               3
       Number of primitive Cartesian functions:                                5
       Number of Cartesian basis functions:                                   10
       Number of spherical basis functions:                                    9
       Norm type:                                                              2

       Normalised Cartesian orbitals:

                        Set   Shell   Orbital            Exponent    Coefficient

                          1       1    2s                2.950008       0.074626
                                                         1.563057      -0.007898
                                                         0.666664      -0.297688
                                                         0.251083       0.136809
                                                         0.081714       0.088198

                          1       2    3px               2.950008       0.148824
                                                         1.563057       0.025430
                                                         0.666664      -0.123003
                                                         0.251083       0.033648
                                                         0.081714       0.059008
                          1       2    3py               2.950008       0.148824
                                                         1.563057       0.025430
                                                         0.666664      -0.123003
                                                         0.251083       0.033648
                                                         0.081714       0.059008
                          1       2    3pz               2.950008       0.148824
                                                         1.563057       0.025430
                                                         0.666664      -0.123003
                                                         0.251083       0.033648
                                                         0.081714       0.059008

                          1       3    4dx2              2.950008      -0.139595
                                                         1.563057       1.319655
                                                         0.666664       0.377081
                                                         0.251083       0.046872
                                                         0.081714       0.001393
                          1       3    4dxy              2.950008      -0.241786
                                                         1.563057       2.285709
                                                         0.666664       0.653124
                                                         0.251083       0.081185
                                                         0.081714       0.002412
                          1       3    4dxz              2.950008      -0.241786
                                                         1.563057       2.285709
                                                         0.666664       0.653124
                                                         0.251083       0.081185
                                                         0.081714       0.002412
                          1       3    4dy2              2.950008      -0.139595
                                                         1.563057       1.319655
                                                         0.666664       0.377081
                                                         0.251083       0.046872
                                                         0.081714       0.001393
                          1       3    4dyz              2.950008      -0.241786
                                                         1.563057       2.285709
                                                         0.666664       0.653124
                                                         0.251083       0.081185
                                                         0.081714       0.002412
                          1       3    4dz2              2.950008      -0.139595
                                                         1.563057       1.319655
                                                         0.666664       0.377081
                                                         0.251083       0.046872
                                                         0.081714       0.001393

       Atomic covalent radius [Angstrom]:                                  1.340

       Atomic van der Waals radius [Angstrom]:                             1.660

     GTH Potential information for                                  GTH-PADE-q11

       Description:                       Goedecker-Teter-Hutter pseudopotential
                                           Goedecker et al., PRB 54, 1703 (1996)
                                          Hartwigsen et al., PRB 58, 3641 (1998)
                                                      Krack, TCA 114, 145 (2005)

       Gaussian exponent of the core charge distribution:               1.436369
       Electronic configuration (s p d ...):                           1   0  10

       Parameters of the local part of the GTH pseudopotential:

                          rloc        C1          C2          C3          C4
                        0.590000   11.604428

       Parameters of the non-local part of the GTH pseudopotential:

                   l      r(l)      h(i,j,l)

                   0    0.521180    2.538614   -1.046137
                                   -1.046137    2.701113
                   1    0.630613    0.394853   -0.869592
                                   -0.869592    2.057831
                   2    0.440706   -4.719070    0.727771
                                    0.727771   -1.650429

  2. Atomic kind: S                                     Number of atoms:       2

     Orbital Basis Set                                         SZV-MOLOPT-SR-GTH

       Number of orbital shell sets:                                           1
       Number of orbital shells:                                               2
       Number of primitive Cartesian functions:                                4
       Number of Cartesian basis functions:                                    4
       Number of spherical basis functions:                                    4
       Norm type:                                                              2

       Normalised Cartesian orbitals:

                        Set   Shell   Orbital            Exponent    Coefficient

                          1       1    2s                2.215855       0.308496
                                                         1.131471       0.138505
                                                         0.410168      -0.373736
                                                         0.140587      -0.040370

                          1       2    3px               2.215855       0.420434
                                                         1.131471      -0.319283
                                                         0.410168      -0.335323
                                                         0.140587      -0.030976
                          1       2    3py               2.215855       0.420434
                                                         1.131471      -0.319283
                                                         0.410168      -0.335323
                                                         0.140587      -0.030976
                          1       2    3pz               2.215855       0.420434
                                                         1.131471      -0.319283
                                                         0.410168      -0.335323
                                                         0.140587      -0.030976

       Atomic covalent radius [Angstrom]:                                  1.020

       Atomic van der Waals radius [Angstrom]:                             1.800

     GTH Potential information for                                   GTH-PADE-q6

       Description:                       Goedecker-Teter-Hutter pseudopotential
                                           Goedecker et al., PRB 54, 1703 (1996)
                                          Hartwigsen et al., PRB 58, 3641 (1998)
                                                      Krack, TCA 114, 145 (2005)

       Gaussian exponent of the core charge distribution:               2.834467
       Electronic configuration (s p d ...):                               2   4

       Parameters of the local part of the GTH pseudopotential:

                          rloc        C1          C2          C3          C4
                        0.420000   -6.554492

       Parameters of the non-local part of the GTH pseudopotential:

                   l      r(l)      h(i,j,l)

                   0    0.361757    7.905303   -1.731881
                                   -1.731881    4.471698
                   1    0.405285    3.866579

  3. Atomic kind: C                                     Number of atoms:       6

     Orbital Basis Set                                         SZV-MOLOPT-SR-GTH

       Number of orbital shell sets:                                           1
       Number of orbital shells:                                               2
       Number of primitive Cartesian functions:                                5
       Number of Cartesian basis functions:                                    4
       Number of spherical basis functions:                                    4
       Norm type:                                                              2

       Normalised Cartesian orbitals:

                        Set   Shell   Orbital            Exponent    Coefficient

                          1       1    2s                5.605331       0.322515
                                                         2.113016       0.213043
                                                         0.769911      -0.209686
                                                         0.348157      -0.219794
                                                         0.128212      -0.022789

                          1       2    3px               5.605331      -0.703879
                                                         2.113016      -0.642521
                                                         0.769911      -0.374851
                                                         0.348157      -0.139743
                                                         0.128212      -0.027849
                          1       2    3py               5.605331      -0.703879
                                                         2.113016      -0.642521
                                                         0.769911      -0.374851
                                                         0.348157      -0.139743
                                                         0.128212      -0.027849
                          1       2    3pz               5.605331      -0.703879
                                                         2.113016      -0.642521
                                                         0.769911      -0.374851
                                                         0.348157      -0.139743
                                                         0.128212      -0.027849

       Atomic covalent radius [Angstrom]:                                  0.770

       Atomic van der Waals radius [Angstrom]:                             1.700

     GTH Potential information for                                   GTH-PADE-q4

       Description:                       Goedecker-Teter-Hutter pseudopotential
                                           Goedecker et al., PRB 54, 1703 (1996)
                                          Hartwigsen et al., PRB 58, 3641 (1998)
                                                      Krack, TCA 114, 145 (2005)

       Gaussian exponent of the core charge distribution:               4.109048
       Electronic configuration (s p d ...):                               2   2

       Parameters of the local part of the GTH pseudopotential:

                          rloc        C1          C2          C3          C4
                        0.348830   -8.513771    1.228432

       Parameters of the non-local part of the GTH pseudopotential:

                   l      r(l)      h(i,j,l)

                   0    0.304553    9.522842
                   1    0.232677

  4. Atomic kind: H                                     Number of atoms:       4

     Orbital Basis Set                                         SZV-MOLOPT-SR-GTH

       Number of orbital shell sets:                                           1
       Number of orbital shells:                                               1
       Number of primitive Cartesian functions:                                5
       Number of Cartesian basis functions:                                    1
       Number of spherical basis functions:                                    1
       Norm type:                                                              2

       Normalised Cartesian orbitals:

                        Set   Shell   Orbital            Exponent    Coefficient

                          1       1    2s               10.068468      -0.133023
                                                         2.680223      -0.177618
                                                         0.791502      -0.258419
                                                         0.239116      -0.107525
                                                         0.082193      -0.014019

       Atomic covalent radius [Angstrom]:                                  0.320

       Atomic van der Waals radius [Angstrom]:                             1.090

     GTH Potential information for                                   GTH-PADE-q1

       Description:                       Goedecker-Teter-Hutter pseudopotential
                                           Goedecker et al., PRB 54, 1703 (1996)
                                          Hartwigsen et al., PRB 58, 3641 (1998)
                                                      Krack, TCA 114, 145 (2005)

       Gaussian exponent of the core charge distribution:              12.500000
       Electronic configuration (s p d ...):                                   1

       Parameters of the local part of the GTH pseudopotential:

                          rloc        C1          C2          C3          C4
                        0.200000   -4.180237    0.725075


 MOLECULE KIND INFORMATION


 All atoms are their own molecule, skipping detailed information


 TOTAL NUMBERS AND MAXIMUM NUMBERS

  Total number of            - Atomic kinds:                                   4
                             - Atoms:                                        116
                             - Shell sets:                                   116
                             - Shells:                                       332
                             - Primitive Cartesian functions:                578
                             - Cartesian basis functions:                   1076
                             - Spherical basis functions:                    972

  Maximum angular momentum of- Orbital basis functions:                        2
                             - Local part of the GTH pseudopotential:          2
                             - Non-local part of the GTH pseudopotential:      4


 MODULE QUICKSTEP: ATOMIC COORDINATES IN ANGSTROM

   Atom Kind Element         X             Y             Z       Z(eff)     Mass
      1    1 Au   79      0.000000      0.000000      0.000000  11.0000 196.9666
      2    1 Au   79      0.000000      4.168000      0.000000  11.0000 196.9666
      3    1 Au   79      2.084000      2.084000      0.000000  11.0000 196.9666
      4    1 Au   79      2.084000      6.252000      0.000000  11.0000 196.9666
      5    1 Au   79      4.168000      0.000000      0.000000  11.0000 196.9666
      6    1 Au   79      4.168000      4.168000      0.000000  11.0000 196.9666
      7    1 Au   79      6.252000      2.084000      0.000000  11.0000 196.9666
      8    1 Au   79      6.252000      6.252000      0.000000  11.0000 196.9666
      9    1 Au   79      0.000000      2.084000      2.084000  11.0000 196.9666
     10    1 Au   79      0.000000      6.252000      2.084000  11.0000 196.9666
     11    1 Au   79      2.084000      0.000000      2.084000  11.0000 196.9666
     12    1 Au   79      2.084000      4.168000      2.084000  11.0000 196.9666
     13    1 Au   79      4.168000      2.084000      2.084000  11.0000 196.9666
     14    1 Au   79      4.168000      6.252000      2.084000  11.0000 196.9666
     15    1 Au   79      6.252000      0.000000      2.084000  11.0000 196.9666
     16    1 Au   79      6.252000      4.168000      2.084000  11.0000 196.9666
     17    1 Au   79      0.000000      0.000000      4.168000  11.0000 196.9666
     18    1 Au   79      0.000000      4.168000      4.168000  11.0000 196.9666
     19    1 Au   79      2.084000      2.084000      4.168000  11.0000 196.9666
     20    1 Au   79      2.084000      6.252000      4.168000  11.0000 196.9666
     21    1 Au   79      4.168000      0.000000      4.168000  11.0000 196.9666
     22    1 Au   79      4.168000      4.168000      4.168000  11.0000 196.9666
     23    1 Au   79      6.252000      2.084000      4.168000  11.0000 196.9666
     24    1 Au   79      6.252000      6.252000      4.168000  11.0000 196.9666
     25    1 Au   79      0.000000      2.084000      6.252000  11.0000 196.9666
     26    1 Au   79      0.000000      6.252000      6.252000  11.0000 196.9666
     27    1 Au   79      2.084000      0.000000      6.252000  11.0000 196.9666
     28    1 Au   79      2.084000      4.168000      6.252000  11.0000 196.9666
     29    1 Au   79      4.168000      2.084000      6.252000  11.0000 196.9666
     30    1 Au   79      4.168000      6.252000      6.252000  11.0000 196.9666
     31    1 Au   79      6.252000      0.000000      6.252000  11.0000 196.9666
     32    1 Au   79      6.252000      4.168000      6.252000  11.0000 196.9666
     33    1 Au   79      0.000000      0.000000      8.336000  11.0000 196.9666
     34    1 Au   79      0.000000      4.168000      8.336000  11.0000 196.9666
     35    1 Au   79      2.084000      2.084000      8.336000  11.0000 196.9666
     36    1 Au   79      2.084000      6.252000      8.336000  11.0000 196.9666
     37    1 Au   79      4.168000      0.000000      8.336000  11.0000 196.9666
     38    1 Au   79      4.168000      4.168000      8.336000  11.0000 196.9666
     39    1 Au   79      6.252000      2.084000      8.336000  11.0000 196.9666
     40    1 Au   79      6.252000      6.252000      8.336000  11.0000 196.9666
     41    1 Au   79      0.000000      2.084000     10.420000  11.0000 196.9666
     42    1 Au   79      0.000000      6.252000     10.420000  11.0000 196.9666
     43    1 Au   79      2.084000      0.000000     10.420000  11.0000 196.9666
     44    1 Au   79      2.084000      4.168000     10.420000  11.0000 196.9666
     45    1 Au   79      4.168000      2.084000     10.420000  11.0000 196.9666
     46    1 Au   79      4.168000      6.252000     10.420000  11.0000 196.9666
     47    1 Au   79      6.252000      0.000000     10.420000  11.0000 196.9666
     48    1 Au   79      6.252000      4.168000     10.420000  11.0000 196.9666
     49    1 Au   79      0.000000      0.000000     12.504000  11.0000 196.9666
     50    1 Au   79      0.000000      4.168000     12.504000  11.0000 196.9666
     51    1 Au   79      2.084000      2.084000     12.504000  11.0000 196.9666
     52    1 Au   79      2.084000      6.252000     12.504000  11.0000 196.9666
     53    1 Au   79      4.168000      0.000000     12.504000  11.0000 196.9666
     54    1 Au   79      4.168000      4.168000     12.504000  11.0000 196.9666
     55    1 Au   79      6.252000      2.084000     12.504000  11.0000 196.9666
     56    1 Au   79      6.252000      6.252000     12.504000  11.0000 196.9666
     57    2 S    16      4.171000      2.086000     13.790000   6.0000  32.0650
     58    3 C     6      4.175000      2.089000     15.551000   4.0000  12.0107
     59    4 H     1      2.073000      2.116000     15.734000   1.0000   1.0079
     60    4 H     1      6.269000      2.116000     15.740000   1.0000   1.0079
     61    3 C     6      2.965000      2.095000     16.251000   4.0000  12.0107
     62    3 C     6      5.373000      2.095000     16.251000   4.0000  12.0107
     63    3 C     6      2.959000      2.074000     17.674000   4.0000  12.0107
     64    3 C     6      5.367000      2.074000     17.674000   4.0000  12.0107
     65    4 H     1      2.063000      2.053000     18.186000   1.0000   1.0079
     66    4 H     1      6.259000      2.053000     18.192000   1.0000   1.0079
     67    3 C     6      4.157000      2.080000     18.375000   4.0000  12.0107
     68    2 S    16      4.171000      2.086000     20.136000   6.0000  32.0650
     69    1 Au   79      0.000000      0.000000     21.422000  11.0000 196.9666
     70    1 Au   79      0.000000      4.168000     21.422000  11.0000 196.9666
     71    1 Au   79      2.084000      2.084000     21.422000  11.0000 196.9666
     72    1 Au   79      2.084000      6.252000     21.422000  11.0000 196.9666
     73    1 Au   79      4.168000      0.000000     21.422000  11.0000 196.9666
     74    1 Au   79      4.168000      4.168000     21.422000  11.0000 196.9666
     75    1 Au   79      6.252000      2.084000     21.422000  11.0000 196.9666
     76    1 Au   79      6.252000      6.252000     21.422000  11.0000 196.9666
     77    1 Au   79      0.000000      2.084000     23.506000  11.0000 196.9666
     78    1 Au   79      0.000000      6.252000     23.506000  11.0000 196.9666
     79    1 Au   79      2.084000      0.000000     23.506000  11.0000 196.9666
     80    1 Au   79      2.084000      4.168000     23.506000  11.0000 196.9666
     81    1 Au   79      4.168000      2.084000     23.506000  11.0000 196.9666
     82    1 Au   79      4.168000      6.252000     23.506000  11.0000 196.9666
     83    1 Au   79      6.252000      0.000000     23.506000  11.0000 196.9666
     84    1 Au   79      6.252000      4.168000     23.506000  11.0000 196.9666
     85    1 Au   79      0.000000      0.000000     25.590000  11.0000 196.9666
     86    1 Au   79      0.000000      4.168000     25.590000  11.0000 196.9666
     87    1 Au   79      2.084000      2.084000     25.590000  11.0000 196.9666
     88    1 Au   79      2.084000      6.252000     25.590000  11.0000 196.9666
     89    1 Au   79      4.168000      0.000000     25.590000  11.0000 196.9666
     90    1 Au   79      4.168000      4.168000     25.590000  11.0000 196.9666
     91    1 Au   79      6.252000      2.084000     25.590000  11.0000 196.9666
     92    1 Au   79      6.252000      6.252000     25.590000  11.0000 196.9666
     93    1 Au   79      0.000000      2.084000     27.674000  11.0000 196.9666
     94    1 Au   79      0.000000      6.252000     27.674000  11.0000 196.9666
     95    1 Au   79      2.084000      0.000000     27.674000  11.0000 196.9666
     96    1 Au   79      2.084000      4.168000     27.674000  11.0000 196.9666
     97    1 Au   79      4.168000      2.084000     27.674000  11.0000 196.9666
     98    1 Au   79      4.168000      6.252000     27.674000  11.0000 196.9666
     99    1 Au   79      6.252000      0.000000     27.674000  11.0000 196.9666
    100    1 Au   79      6.252000      4.168000     27.674000  11.0000 196.9666
    101    1 Au   79      0.000000      0.000000     29.758000  11.0000 196.9666
    102    1 Au   79      0.000000      4.168000     29.758000  11.0000 196.9666
    103    1 Au   79      2.084000      2.084000     29.758000  11.0000 196.9666
    104    1 Au   79      2.084000      6.252000     29.758000  11.0000 196.9666
    105    1 Au   79      4.168000      0.000000     29.758000  11.0000 196.9666
    106    1 Au   79      4.168000      4.168000     29.758000  11.0000 196.9666
    107    1 Au   79      6.252000      2.084000     29.758000  11.0000 196.9666
    108    1 Au   79      6.252000      6.252000     29.758000  11.0000 196.9666
    109    1 Au   79      0.000000      2.084000     31.842000  11.0000 196.9666
    110    1 Au   79      0.000000      6.252000     31.842000  11.0000 196.9666
    111    1 Au   79      2.084000      0.000000     31.842000  11.0000 196.9666
    112    1 Au   79      2.084000      4.168000     31.842000  11.0000 196.9666
    113    1 Au   79      4.168000      2.084000     31.842000  11.0000 196.9666
    114    1 Au   79      4.168000      6.252000     31.842000  11.0000 196.9666
    115    1 Au   79      6.252000      0.000000     31.842000  11.0000 196.9666
    116    1 Au   79      6.252000      4.168000     31.842000  11.0000 196.9666



 SCF PARAMETERS         Density guess:                                   RESTART
                        --------------------------------------------------------
                        max_scf:                                             100
                        max_scf_history:                                       0
                        max_diis:                                              4
                        --------------------------------------------------------
                        eps_scf:                                        1.00E-07
                        eps_scf_history:                                0.00E+00
                        eps_diis:                                       1.00E-01
                        eps_eigval:                                     1.00E-05
                        --------------------------------------------------------
                        level_shift [a.u.]:                             0.000000
                        added MOs                                       100    0
                        --------------------------------------------------------
                        Mixing method:                            BROYDEN_MIXING
                                                charge density mixing in g-space
                        --------------------------------------------------------
                        Smear method:                                FERMI_DIRAC
                        Electronic temperature [K]:                        293.0
                        Electronic temperature [a.u.]:                  9.28E-04
                        Accuracy threshold:                             1.00E-10
                        --------------------------------------------------------
                        No outer SCF

 PW_GRID| Information for grid number                                          1
 PW_GRID| Grid distributed over                                   240 processors
 PW_GRID| Real space group dimensions                                    12   20
 PW_GRID| the grid is blocked:                                               YES
 PW_GRID| Cutoff [a.u.]                                                    200.0
 PW_GRID| spherical cutoff:                                                   NO
 PW_GRID|   Bounds   1            -52      52                Points:         105
 PW_GRID|   Bounds   2            -52      52                Points:         105
 PW_GRID|   Bounds   3           -210     209                Points:         420
 PW_GRID| Volume element (a.u.^3)  0.3436E-02     Volume (a.u.^3)     15909.0657
 PW_GRID| Grid span                                                    FULLSPACE
 PW_GRID|   Distribution                         Average         Max         Min
 PW_GRID|   G-Vectors                            19293.8       19845       17640
 PW_GRID|   G-Rays                                 183.8         189         168
 PW_GRID|   Real Space Points                    19293.8       19845       17640

 PW_GRID| Information for grid number                                          2
 PW_GRID| Number of the reference grid                                         1
 PW_GRID| Grid distributed over                                   240 processors
 PW_GRID| Real space group dimensions                                    12   20
 PW_GRID| the grid is blocked:                                                NO
 PW_GRID| Cutoff [a.u.]                                                     66.7
 PW_GRID| spherical cutoff:                                                   NO
 PW_GRID|   Bounds   1            -30      29                Points:          60
 PW_GRID|   Bounds   2            -30      29                Points:          60
 PW_GRID|   Bounds   3           -120     119                Points:         240
 PW_GRID| Volume element (a.u.^3)  0.1841E-01     Volume (a.u.^3)     15909.0657
 PW_GRID| Grid span                                                    FULLSPACE
 PW_GRID|   Distribution                         Average         Max         Min
 PW_GRID|   G-Vectors                             3600.0       11340           0
 PW_GRID|   G-Rays                                  60.0         189           0
 PW_GRID|   Real Space Points                     3600.0        3600        3600

 PW_GRID| Information for grid number                                          3
 PW_GRID| Number of the reference grid                                         1
 PW_GRID| Grid distributed over                                   240 processors
 PW_GRID| Real space group dimensions                                    12   20
 PW_GRID| the grid is blocked:                                                NO
 PW_GRID| Cutoff [a.u.]                                                     22.2
 PW_GRID| spherical cutoff:                                                   NO
 PW_GRID|   Bounds   1            -16      16                Points:          33
 PW_GRID|   Bounds   2            -16      16                Points:          33
 PW_GRID|   Bounds   3            -70      69                Points:         140
 PW_GRID| Volume element (a.u.^3)  0.1043         Volume (a.u.^3)     15909.0657
 PW_GRID| Grid span                                                    FULLSPACE
 PW_GRID|   Distribution                         Average         Max         Min
 PW_GRID|   G-Vectors                              635.2        6237           0
 PW_GRID|   G-Rays                                  19.2         189           0
 PW_GRID|   Real Space Points                      635.2         840         280

 PW_GRID| Information for grid number                                          4
 PW_GRID| Number of the reference grid                                         1
 PW_GRID| Grid distributed over                                   240 processors
 PW_GRID| Real space group dimensions                                    12   20
 PW_GRID| the grid is blocked:                                                NO
 PW_GRID| Cutoff [a.u.]                                                      7.4
 PW_GRID| spherical cutoff:                                                   NO
 PW_GRID|   Bounds   1            -10       9                Points:          20
 PW_GRID|   Bounds   2            -10       9                Points:          20
 PW_GRID|   Bounds   3            -40      39                Points:          80
 PW_GRID| Volume element (a.u.^3)  0.4972         Volume (a.u.^3)     15909.0657
 PW_GRID| Grid span                                                    FULLSPACE
 PW_GRID|   Distribution                         Average         Max         Min
 PW_GRID|   G-Vectors                              133.3        3780           0
 PW_GRID|   G-Rays                                   6.7         189           0
 PW_GRID|   Real Space Points                      133.3         160          80

 POISSON| Solver                                                        PERIODIC
 POISSON| Periodicity                                                        XYZ

 RS_GRID| Information for grid number                                          1
 RS_GRID|   Bounds   1            -52      52                Points:         105
 RS_GRID|   Bounds   2            -52      52                Points:         105
 RS_GRID|   Bounds   3           -210     209                Points:         420
 RS_GRID| Real space distribution over                                  8 groups
 RS_GRID| Real space distribution along direction                              2
 RS_GRID| Border size                                                         30
 RS_GRID| Real space distribution over                                 30 groups
 RS_GRID| Real space distribution along direction                              3
 RS_GRID| Border size                                                         30
 RS_GRID|   Distribution                         Average         Max         Min
 RS_GRID|   Planes                                  73.1          74          73
 RS_GRID|   Distribution                         Average         Max         Min
 RS_GRID|   Planes                                  74.0          74          74

 RS_GRID| Information for grid number                                          2
 RS_GRID|   Bounds   1            -30      29                Points:          60
 RS_GRID|   Bounds   2            -30      29                Points:          60
 RS_GRID|   Bounds   3           -120     119                Points:         240
 RS_GRID| Real space distribution over                                  8 groups
 RS_GRID| Real space distribution along direction                              2
 RS_GRID| Border size                                                         21
 RS_GRID| Real space distribution over                                 30 groups
 RS_GRID| Real space distribution along direction                              3
 RS_GRID| Border size                                                         21
 RS_GRID|   Distribution                         Average         Max         Min
 RS_GRID|   Planes                                  49.5          50          49
 RS_GRID|   Distribution                         Average         Max         Min
 RS_GRID|   Planes                                  50.0          50          50

 RS_GRID| Information for grid number                                          3
 RS_GRID|   Bounds   1            -16      16                Points:          33
 RS_GRID|   Bounds   2            -16      16                Points:          33
 RS_GRID|   Bounds   3            -70      69                Points:         140
 RS_GRID| Real space fully replicated
 RS_GRID| Group size                                                           1

 RS_GRID| Information for grid number                                          4
 RS_GRID|   Bounds   1            -10       9                Points:          20
 RS_GRID|   Bounds   2            -10       9                Points:          20
 RS_GRID|   Bounds   3            -40      39                Points:          80
 RS_GRID| Real space fully replicated
 RS_GRID| Group size                                                           1

 KPOINTS| Number of kpoint groups                                              1
 KPOINTS| Size of each kpoint group                                          240
 KPOINTS| Number of kpoints per group                                          1

 Number of electrons:                                                       1184
 Number of occupied orbitals:                                                592
 Number of molecular orbitals:                                               692

 Number of orbital functions:                                                972
 Number of independent orbital functions:                                    972

 Extrapolation method: initial_guess


 SCF WAVEFUNCTION OPTIMIZATION

  Step     Update method      Time    Convergence         Total energy    Change
  ------------------------------------------------------------------------------
 SMEAGOL DEBUG| Number of electrons in the unit cell =      1183.9999999953
     1 NoMix/SMGL  0.30E+00   19.7     0.55901681     -3517.6022853091 -3.52E+03
 SMEAGOL DEBUG| Number of electrons in the unit cell =      1195.6758486685
     2 Broy./SMGL  0.30E+00    9.1     0.23596450     -3488.0469708882  2.96E+01
 SMEAGOL DEBUG| Number of electrons in the unit cell =      1203.7954347397
     3 Broy./SMGL  0.30E+00    9.0     0.27214202     -3507.2145574083 -1.92E+01
 SMEAGOL DEBUG| Number of electrons in the unit cell =      1195.7797105012
     4 Broy./SMGL  0.30E+00    8.8     0.27774598     -3549.7787815844 -4.26E+01
 SMEAGOL DEBUG| Number of electrons in the unit cell =      1194.4966447933
     5 Broy./SMGL  0.30E+00    8.8     0.06788837     -3501.4349868443  4.83E+01
 SMEAGOL DEBUG| Number of electrons in the unit cell =      1191.3045892944
     6 Broy./SMGL  0.30E+00    8.9     0.07938260     -3502.1116027700 -6.77E-01
 SMEAGOL DEBUG| Number of electrons in the unit cell =      1191.3013722750
     7 Broy./SMGL  0.30E+00    8.9     0.07270904     -3505.4373356549 -3.33E+00
 SMEAGOL DEBUG| Number of electrons in the unit cell =      1190.6374960891
     8 Broy./SMGL  0.30E+00    8.8     0.12306632     -3509.9151196256 -4.48E+00
 SMEAGOL DEBUG| Number of electrons in the unit cell =      1190.2519399646
     9 Broy./SMGL  0.30E+00    8.8     0.18211705     -3505.1050440481  4.81E+00
 SMEAGOL DEBUG| Number of electrons in the unit cell =      1189.4507143586
    10 Broy./SMGL  0.30E+00    8.8     0.08400624     -3519.0547506829 -1.39E+01
 SMEAGOL DEBUG| Number of electrons in the unit cell =      1189.4040191975
    11 Broy./SMGL  0.30E+00    8.8     0.03130178     -3522.3816485796 -3.33E+00
 SMEAGOL DEBUG| Number of electrons in the unit cell =      1188.9512781048
    12 Broy./SMGL  0.30E+00    8.8     0.10461720     -3521.2368288440  1.14E+00
 SMEAGOL DEBUG| Number of electrons in the unit cell =      1188.5204554015
    13 Broy./SMGL  0.30E+00    9.1     0.05490692     -3515.1093151561  6.13E+00
 SMEAGOL DEBUG| Number of electrons in the unit cell =      1188.4266370957
    14 Broy./SMGL  0.30E+00    8.8     0.01994087     -3518.1290374496 -3.02E+00
 SMEAGOL DEBUG| Number of electrons in the unit cell =      1188.2745747736
    15 Broy./SMGL  0.30E+00    8.8     0.00566086     -3516.4540283790  1.68E+00
 SMEAGOL DEBUG| Number of electrons in the unit cell =      1188.2382466253
    16 Broy./SMGL  0.30E+00    8.8     0.01908489     -3516.3258968275  1.28E-01
 SMEAGOL DEBUG| Number of electrons in the unit cell =      1188.2174060879
    17 Broy./SMGL  0.30E+00    8.9     0.00995628     -3517.0357466295 -7.10E-01
 SMEAGOL DEBUG| Number of electrons in the unit cell =      1188.2559027307
    18 Broy./SMGL  0.30E+00    9.1     0.00993361     -3517.1224654406 -8.67E-02
 SMEAGOL DEBUG| Number of electrons in the unit cell =      1188.2347510561
    19 Broy./SMGL  0.30E+00    9.0     0.00489064     -3516.8514877795  2.71E-01
 SMEAGOL DEBUG| Number of electrons in the unit cell =      1188.2339130653
    20 Broy./SMGL  0.30E+00    8.9     0.00489064     -3516.9337762480 -8.23E-02
 SMEAGOL DEBUG| Number of electrons in the unit cell =      1188.2250005907
    21 Broy./SMGL  0.30E+00    8.9     0.00719563     -3516.9398770285 -6.10E-03
 SMEAGOL DEBUG| Number of electrons in the unit cell =      1188.2194982268
    22 Broy./SMGL  0.30E+00    8.9     0.00613701     -3516.9718312237 -3.20E-02
 SMEAGOL DEBUG| Number of electrons in the unit cell =      1188.2229881024
    23 Broy./SMGL  0.30E+00    8.9     0.00486914     -3516.9867064352 -1.49E-02
 SMEAGOL DEBUG| Number of electrons in the unit cell =      1188.2252474472
    24 Broy./SMGL  0.30E+00    8.8     0.01008645     -3517.0025760957 -1.59E-02
 SMEAGOL DEBUG| Number of electrons in the unit cell =      1188.2295312758
    25 Broy./SMGL  0.30E+00    9.0     0.01008124     -3517.0167799476 -1.42E-02
 SMEAGOL DEBUG| Number of electrons in the unit cell =      1188.2323734832
    26 Broy./SMGL  0.30E+00    9.1     0.00293574     -3517.0182403046 -1.46E-03
 SMEAGOL DEBUG| Number of electrons in the unit cell =      1188.2333383347
    27 Broy./SMGL  0.30E+00    8.9     0.00297865     -3517.0209479247 -2.71E-03
 SMEAGOL DEBUG| Number of electrons in the unit cell =      1188.2338257447
    28 Broy./SMGL  0.30E+00    8.9     0.00272747     -3517.0191545376  1.79E-03
 SMEAGOL DEBUG| Number of electrons in the unit cell =      1188.2346374799
    29 Broy./SMGL  0.30E+00    8.8     0.00272759     -3517.0171573283  2.00E-03
 SMEAGOL DEBUG| Number of electrons in the unit cell =      1188.2344206741
    30 Broy./SMGL  0.30E+00    8.8     0.00197650     -3517.0200326654 -2.88E-03
 SMEAGOL DEBUG| Number of electrons in the unit cell =      1188.2345134552
    31 Broy./SMGL  0.30E+00    8.8     0.01008420     -3517.0171206095  2.91E-03
 SMEAGOL DEBUG| Number of electrons in the unit cell =      1188.2345341044
    32 Broy./SMGL  0.30E+00    8.8     0.00003907     -3517.0187362338 -1.62E-03
 SMEAGOL DEBUG| Number of electrons in the unit cell =      1188.2343469310
    33 Broy./SMGL  0.30E+00    8.9     0.00004948     -3517.0180355518  7.01E-04
 SMEAGOL DEBUG| Number of electrons in the unit cell =      1188.2340872997
    34 Broy./SMGL  0.30E+00    8.8     0.00022695     -3517.0181212662 -8.57E-05
 SMEAGOL DEBUG| Number of electrons in the unit cell =      1188.2340523458
    35 Broy./SMGL  0.30E+00    8.9     0.00005709     -3517.0174672961  6.54E-04
 SMEAGOL DEBUG| Number of electrons in the unit cell =      1188.2340232647
    36 Broy./SMGL  0.30E+00    8.8     0.00022694     -3517.0172953151  1.72E-04
 SMEAGOL DEBUG| Number of electrons in the unit cell =      1188.2340519820
    37 Broy./SMGL  0.30E+00    8.8     0.00022694     -3517.0174114448 -1.16E-04
 SMEAGOL DEBUG| Number of electrons in the unit cell =      1188.2340667094
    38 Broy./SMGL  0.30E+00    9.1     0.00003846     -3517.0174912804 -7.98E-05
 SMEAGOL DEBUG| Number of electrons in the unit cell =      1188.2340522529
    39 Broy./SMGL  0.30E+00    8.8     0.00004947     -3517.0175293509 -3.81E-05
 SMEAGOL DEBUG| Number of electrons in the unit cell =      1188.2340509532
    40 Broy./SMGL  0.30E+00    8.8     0.00022694     -3517.0175203387  9.01E-06
 SMEAGOL DEBUG| Number of electrons in the unit cell =      1188.2340412215
    41 Broy./SMGL  0.30E+00    8.8     0.00005870     -3517.0175651792 -4.48E-05
 SMEAGOL DEBUG| Number of electrons in the unit cell =      1188.2340487871
    42 Broy./SMGL  0.30E+00    8.7     0.00003906     -3517.0175647378  4.41E-07
 SMEAGOL DEBUG| Number of electrons in the unit cell =      1188.2340492266
    43 Broy./SMGL  0.30E+00    8.7     0.00004947     -3517.0175517016  1.30E-05
 SMEAGOL DEBUG| Number of electrons in the unit cell =      1188.2340498844
    44 Broy./SMGL  0.30E+00    8.9     0.00001488     -3517.0175870539 -3.54E-05
 SMEAGOL DEBUG| Number of electrons in the unit cell =      1188.2340525171
    45 Broy./SMGL  0.30E+00    8.8     0.00004878     -3517.0175678854  1.92E-05
 SMEAGOL DEBUG| Number of electrons in the unit cell =      1188.2340537613
    46 Broy./SMGL  0.30E+00    8.8     0.00004878     -3517.0175778368 -9.95E-06
 SMEAGOL DEBUG| Number of electrons in the unit cell =      1188.2340553945
    47 Broy./SMGL  0.30E+00    8.8     0.00001488     -3517.0175741541  3.68E-06
 SMEAGOL DEBUG| Number of electrons in the unit cell =      1188.2340565764
    48 Broy./SMGL  0.30E+00    8.7     0.00003906     -3517.0175747985 -6.44E-07
 SMEAGOL DEBUG| Number of electrons in the unit cell =      1188.2340580262
    49 Broy./SMGL  0.30E+00    8.7     0.00003906     -3517.0175751607 -3.62E-07
 SMEAGOL DEBUG| Number of electrons in the unit cell =      1188.2340582584
    50 Broy./SMGL  0.30E+00    9.0     0.00003906     -3517.0175752125 -5.17E-08
 SMEAGOL DEBUG| Number of electrons in the unit cell =      1188.2340579614
    51 Broy./SMGL  0.30E+00    8.9     0.00003906     -3517.0175751970  1.55E-08
 SMEAGOL DEBUG| Number of electrons in the unit cell =      1188.2340587940
    52 Broy./SMGL  0.30E+00    8.8     0.00003906     -3517.0175755247 -3.28E-07
 SMEAGOL DEBUG| Number of electrons in the unit cell =      1188.2340591073
    53 Broy./SMGL  0.30E+00    8.9     0.00003543     -3517.0175783439 -2.82E-06
 SMEAGOL DEBUG| Number of electrons in the unit cell =      1188.2340596051
    54 Broy./SMGL  0.30E+00    8.8     0.00003906     -3517.0175746879  3.66E-06
 SMEAGOL DEBUG| Number of electrons in the unit cell =      1188.2340598148
    55 Broy./SMGL  0.30E+00    8.8     0.00003906     -3517.0175805386 -5.85E-06
 SMEAGOL DEBUG| Number of electrons in the unit cell =      1188.2340604662
    56 Broy./SMGL  0.30E+00    8.9     0.00001029     -3517.0175744047  6.13E-06
 SMEAGOL DEBUG| Number of electrons in the unit cell =      1188.2340609144
    57 Broy./SMGL  0.30E+00    8.7     0.00003906     -3517.0175761681 -1.76E-06
 SMEAGOL DEBUG| Number of electrons in the unit cell =      1188.2340615293
    58 Broy./SMGL  0.30E+00    8.8     0.00003906     -3517.0175763333 -1.65E-07
 SMEAGOL DEBUG| Number of electrons in the unit cell =      1188.2340621654
    59 Broy./SMGL  0.30E+00    8.7     0.00003906     -3517.0175778557 -1.52E-06
 SMEAGOL DEBUG| Number of electrons in the unit cell =      1188.2340622711
    60 Broy./SMGL  0.30E+00    8.9     0.00001488     -3517.0175772973  5.58E-07
 SMEAGOL DEBUG| Number of electrons in the unit cell =      1188.2340624230
    61 Broy./SMGL  0.30E+00    8.9     0.00001488     -3517.0175773249 -2.76E-08
 SMEAGOL DEBUG| Number of electrons in the unit cell =      1188.2340623741
    62 Broy./SMGL  0.30E+00    8.8     0.00000504     -3517.0175774117 -8.68E-08
 SMEAGOL DEBUG| Number of electrons in the unit cell =      1188.2340624112
    63 Broy./SMGL  0.30E+00    9.0     0.00003906     -3517.0175773473  6.44E-08
 SMEAGOL DEBUG| Number of electrons in the unit cell =      1188.2340622665
    64 Broy./SMGL  0.30E+00    8.9     0.00003542     -3517.0175770912  2.56E-07
 SMEAGOL DEBUG| Number of electrons in the unit cell =      1188.2340622480
    65 Broy./SMGL  0.30E+00    8.8     0.00003543     -3517.0175763240  7.67E-07
 SMEAGOL DEBUG| Number of electrons in the unit cell =      1188.2340628352
    66 Broy./SMGL  0.30E+00    8.8     0.00003906     -3517.0175767527 -4.29E-07
 SMEAGOL DEBUG| Number of electrons in the unit cell =      1188.2340625516
    67 Broy./SMGL  0.30E+00    8.8     0.00000664     -3517.0175788434 -2.09E-06
 SMEAGOL DEBUG| Number of electrons in the unit cell =      1188.2340624915
    68 Broy./SMGL  0.30E+00    8.8     0.00003906     -3517.0175769093  1.93E-06
 SMEAGOL DEBUG| Number of electrons in the unit cell =      1188.2340624769
    69 Broy./SMGL  0.30E+00    8.7     0.00003906     -3517.0175773798 -4.71E-07
 SMEAGOL DEBUG| Number of electrons in the unit cell =      1188.2340624364
    70 Broy./SMGL  0.30E+00    8.7     0.00003906     -3517.0175772397  1.40E-07
 SMEAGOL DEBUG| Number of electrons in the unit cell =      1188.2340624113
    71 Broy./SMGL  0.30E+00    8.7     0.00003906     -3517.0175769959  2.44E-07
 SMEAGOL DEBUG| Number of electrons in the unit cell =      1188.2340624601
    72 Broy./SMGL  0.30E+00    8.8     0.00000664     -3517.0175770593 -6.34E-08
 SMEAGOL DEBUG| Number of electrons in the unit cell =      1188.2340623926
    73 Broy./SMGL  0.30E+00    8.8     0.00003906     -3517.0175776267 -5.67E-07
 SMEAGOL DEBUG| Number of electrons in the unit cell =      1188.2340623920
    74 Broy./SMGL  0.30E+00    8.7     0.00000087     -3517.0175771568  4.70E-07
 SMEAGOL DEBUG| Number of electrons in the unit cell =      1188.2340624042
    75 Broy./SMGL  0.30E+00    9.1     0.00000113     -3517.0175771559  9.41E-10
 SMEAGOL DEBUG| Number of electrons in the unit cell =      1188.2340624154
    76 Broy./SMGL  0.30E+00    8.9     0.00003906     -3517.0175771866 -3.08E-08
 SMEAGOL DEBUG| Number of electrons in the unit cell =      1188.2340624128
    77 Broy./SMGL  0.30E+00    8.8     0.00003906     -3517.0175768463  3.40E-07
 SMEAGOL DEBUG| Number of electrons in the unit cell =      1188.2340624189
    78 Broy./SMGL  0.30E+00    8.8     0.00003906     -3517.0175772600 -4.14E-07
 SMEAGOL DEBUG| Number of electrons in the unit cell =      1188.2340624189
    79 Broy./SMGL  0.30E+00    8.8     0.00003906     -3517.0175771115  1.49E-07
 SMEAGOL DEBUG| Number of electrons in the unit cell =      1188.2340624233
    80 Broy./SMGL  0.30E+00    8.7     0.00003906     -3517.0175770519  5.96E-08
 SMEAGOL DEBUG| Number of electrons in the unit cell =      1188.2340624124
    81 Broy./SMGL  0.30E+00    8.9     0.00001488     -3517.0175771228 -7.09E-08
 SMEAGOL DEBUG| Number of electrons in the unit cell =      1188.2340624014
    82 Broy./SMGL  0.30E+00    9.0     0.00003906     -3517.0175770394  8.34E-08
 SMEAGOL DEBUG| Number of electrons in the unit cell =      1188.2340624029
    83 Broy./SMGL  0.30E+00    8.8     0.00003906     -3517.0175769065  1.33E-07
 SMEAGOL DEBUG| Number of electrons in the unit cell =      1188.2340624163
    84 Broy./SMGL  0.30E+00    8.7     0.00000096     -3517.0175765061  4.00E-07
 SMEAGOL DEBUG| Number of electrons in the unit cell =      1188.2340623987
    85 Broy./SMGL  0.30E+00    8.7     0.00001488     -3517.0175774246 -9.19E-07
 SMEAGOL DEBUG| Number of electrons in the unit cell =      1188.2340623996
    86 Broy./SMGL  0.30E+00    8.8     0.00000664     -3517.0175770165  4.08E-07
 SMEAGOL DEBUG| Number of electrons in the unit cell =      1188.2340623999
    87 Broy./SMGL  0.30E+00    9.1     0.00000504     -3517.0175770302 -1.37E-08
 SMEAGOL DEBUG| Number of electrons in the unit cell =      1188.2340623981
    88 Broy./SMGL  0.30E+00    8.7     0.00003906     -3517.0175770390 -8.77E-09
 SMEAGOL DEBUG| Number of electrons in the unit cell =      1188.2340623841
    89 Broy./SMGL  0.30E+00    8.7     0.00000001     -3517.0175772221 -1.83E-07

  *** SCF run converged in    89 steps ***


  Electronic density on regular grids:      -1188.2340623841       -4.2340623841
  Core density on regular grids:             1183.9999998085       -0.0000001915
  Total charge density on r-space grids:       -4.2340625756
  Total charge density g-space grids:          -4.2340625756

  Overlap energy of the core charge distribution:               0.00001347459308
  Self energy of the core charge distribution:              -6148.38221378166963
  Core Hamiltonian energy:                                   1943.87553573656578
  Hartree energy:                                            1244.26268077240275
  Exchange-correlation energy:                               -556.77359342395084
  Electronic entropic energy:                                   0.00000000000000
  Fermi energy:                                                 0.00000000000000

  Total energy:                                             -3517.01757722205821

 The electron density is written in cube file format to the file:

 0V-ELECTRON_DENSITY-1_0.cube

 !-----------------------------------------------------------------------------!
                     Mulliken Population Analysis

 #  Atom  Element  Kind  Atomic population                           Net charge
       1     Au       1         10.999991                              0.000009
       2     Au       1         10.999992                              0.000008
       3     Au       1         10.999992                              0.000008
       4     Au       1         10.999992                              0.000008
       5     Au       1         10.999992                              0.000008
       6     Au       1         10.999992                              0.000008
       7     Au       1         10.999992                              0.000008
       8     Au       1         10.999992                              0.000008
       9     Au       1         10.999681                              0.000319
      10     Au       1         10.999717                              0.000283
      11     Au       1         10.999707                              0.000293
      12     Au       1         10.999708                              0.000292
      13     Au       1         10.999833                              0.000167
      14     Au       1         10.999683                              0.000317
      15     Au       1         10.999707                              0.000293
      16     Au       1         10.999708                              0.000292
      17     Au       1         11.030051                             -0.030051
      18     Au       1         11.030039                             -0.030039
      19     Au       1         11.030148                             -0.030148
      20     Au       1         11.030197                             -0.030197
      21     Au       1         11.030145                             -0.030145
      22     Au       1         11.030143                             -0.030143
      23     Au       1         11.030157                             -0.030157
      24     Au       1         11.030187                             -0.030187
      25     Au       1         11.045638                             -0.045638
      26     Au       1         11.054917                             -0.054917
      27     Au       1         11.046077                             -0.046077
      28     Au       1         11.046087                             -0.046087
      29     Au       1         11.051289                             -0.051289
      30     Au       1         11.045512                             -0.045512
      31     Au       1         11.046060                             -0.046060
      32     Au       1         11.046069                             -0.046069
      33     Au       1         11.058660                             -0.058660
      34     Au       1         11.058692                             -0.058692
      35     Au       1         11.072060                             -0.072060
      36     Au       1         11.059206                             -0.059206
      37     Au       1         11.071083                             -0.071083
      38     Au       1         11.071059                             -0.071059
      39     Au       1         11.071975                             -0.071975
      40     Au       1         11.059300                             -0.059300
      41     Au       1         10.998895                              0.001105
      42     Au       1         11.038677                             -0.038677
      43     Au       1         10.979721                              0.020279
      44     Au       1         10.979600                              0.020400
      45     Au       1         10.985657                              0.014343
      46     Au       1         11.003116                             -0.003116
      47     Au       1         10.979470                              0.020530
      48     Au       1         10.979350                              0.020650
      49     Au       1         11.159376                             -0.159376
      50     Au       1         11.159912                             -0.159912
      51     Au       1         11.311424                             -0.311424
      52     Au       1         11.154462                             -0.154462
      53     Au       1         11.281720                             -0.281720
      54     Au       1         11.282707                             -0.282707
      55     Au       1         11.312411                             -0.312411
      56     Au       1         11.154437                             -0.154437
      57     S        2          5.320590                              0.679410
      58     C        3          4.088674                             -0.088674
      59     H        4          0.847819                              0.152181
      60     H        4          0.847381                              0.152619
      61     C        3          4.119448                             -0.119448
      62     C        3          4.121644                             -0.121644
      63     C        3          4.121515                             -0.121515
      64     C        3          4.119281                             -0.119281
      65     H        4          0.847500                              0.152500
      66     H        4          0.848180                              0.151820
      67     C        3          4.088779                             -0.088779
      68     S        2          5.321833                              0.678167
      69     Au       1         11.148818                             -0.148818
      70     Au       1         11.148274                             -0.148274
      71     Au       1         11.301673                             -0.301673
      72     Au       1         11.143578                             -0.143578
      73     Au       1         11.272682                             -0.272682
      74     Au       1         11.272898                             -0.272898
      75     Au       1         11.302604                             -0.302604
      76     Au       1         11.143583                             -0.143583
      77     Au       1         11.047027                             -0.047027
      78     Au       1         11.104377                             -0.104377
      79     Au       1         11.042822                             -0.042822
      80     Au       1         11.042636                             -0.042636
      81     Au       1         11.045525                             -0.045525
      82     Au       1         11.050831                             -0.050831
      83     Au       1         11.042575                             -0.042575
      84     Au       1         11.042388                             -0.042388
      85     Au       1         11.025862                             -0.025862
      86     Au       1         11.025861                             -0.025861
      87     Au       1         11.039509                             -0.039509
      88     Au       1         11.025952                             -0.025952
      89     Au       1         11.038552                             -0.038552
      90     Au       1         11.038534                             -0.038534
      91     Au       1         11.039440                             -0.039440
      92     Au       1         11.025921                             -0.025921
      93     Au       1         11.029522                             -0.029522
      94     Au       1         11.027939                             -0.027939
      95     Au       1         11.027587                             -0.027587
      96     Au       1         11.027594                             -0.027594
      97     Au       1         11.028331                             -0.028331
      98     Au       1         11.029523                             -0.029523
      99     Au       1         11.027600                             -0.027600
     100     Au       1         11.027607                             -0.027607
     101     Au       1         11.000086                             -0.000086
     102     Au       1         11.000086                             -0.000086
     103     Au       1         11.000046                             -0.000046
     104     Au       1         11.000089                             -0.000089
     105     Au       1         11.000051                             -0.000051
     106     Au       1         11.000052                             -0.000052
     107     Au       1         11.000047                             -0.000047
     108     Au       1         11.000088                             -0.000088
     109     Au       1         10.999984                              0.000016
     110     Au       1         10.999984                              0.000016
     111     Au       1         10.999985                              0.000015
     112     Au       1         10.999986                              0.000014
     113     Au       1         10.999988                              0.000012
     114     Au       1         10.999984                              0.000016
     115     Au       1         10.999985                              0.000015
     116     Au       1         10.999986                              0.000014
 # Total charge                           1188.234063                 -4.234063

 !-----------------------------------------------------------------------------!

 !-----------------------------------------------------------------------------!
                           Hirshfeld Charges

  #Atom  Element  Kind  Ref Charge     Population                    Net charge
      1       Au     1      11.000         11.000                         0.000
      2       Au     1      11.000         11.000                         0.000
      3       Au     1      11.000         11.000                         0.000
      4       Au     1      11.000         11.000                         0.000
      5       Au     1      11.000         11.000                         0.000
      6       Au     1      11.000         11.000                        -0.000
      7       Au     1      11.000         11.000                         0.000
      8       Au     1      11.000         11.000                         0.000
      9       Au     1      11.000         11.000                        -0.000
     10       Au     1      11.000         11.000                        -0.000
     11       Au     1      11.000         11.000                        -0.000
     12       Au     1      11.000         11.000                        -0.000
     13       Au     1      11.000         11.000                        -0.000
     14       Au     1      11.000         11.000                        -0.000
     15       Au     1      11.000         11.000                        -0.000
     16       Au     1      11.000         11.000                        -0.000
     17       Au     1      11.000         11.026                        -0.026
     18       Au     1      11.000         11.026                        -0.026
     19       Au     1      11.000         11.026                        -0.026
     20       Au     1      11.000         11.026                        -0.026
     21       Au     1      11.000         11.026                        -0.026
     22       Au     1      11.000         11.026                        -0.026
     23       Au     1      11.000         11.026                        -0.026
     24       Au     1      11.000         11.026                        -0.026
     25       Au     1      11.000         11.101                        -0.101
     26       Au     1      11.000         11.104                        -0.104
     27       Au     1      11.000         11.102                        -0.102
     28       Au     1      11.000         11.102                        -0.102
     29       Au     1      11.000         11.103                        -0.103
     30       Au     1      11.000         11.101                        -0.101
     31       Au     1      11.000         11.102                        -0.102
     32       Au     1      11.000         11.102                        -0.102
     33       Au     1      11.000         11.037                        -0.037
     34       Au     1      11.000         11.037                        -0.037
     35       Au     1      11.000         11.037                        -0.037
     36       Au     1      11.000         11.036                        -0.036
     37       Au     1      11.000         11.038                        -0.038
     38       Au     1      11.000         11.038                        -0.038
     39       Au     1      11.000         11.037                        -0.037
     40       Au     1      11.000         11.036                        -0.036
     41       Au     1      11.000         11.009                        -0.009
     42       Au     1      11.000         11.019                        -0.019
     43       Au     1      11.000         11.029                        -0.029
     44       Au     1      11.000         11.029                        -0.029
     45       Au     1      11.000         11.026                        -0.026
     46       Au     1      11.000         11.008                        -0.008
     47       Au     1      11.000         11.029                        -0.029
     48       Au     1      11.000         11.029                        -0.029
     49       Au     1      11.000         11.119                        -0.119
     50       Au     1      11.000         11.119                        -0.119
     51       Au     1      11.000         11.056                        -0.056
     52       Au     1      11.000         11.118                        -0.118
     53       Au     1      11.000         11.065                        -0.065
     54       Au     1      11.000         11.065                        -0.065
     55       Au     1      11.000         11.056                        -0.056
     56       Au     1      11.000         11.118                        -0.118
     57       S      2       6.000          5.952                         0.048
     58       C      3       4.000          4.016                        -0.016
     59       H      4       1.000          0.968                         0.032
     60       H      4       1.000          0.968                         0.032
     61       C      3       4.000          4.063                        -0.063
     62       C      3       4.000          4.064                        -0.064
     63       C      3       4.000          4.063                        -0.063
     64       C      3       4.000          4.063                        -0.063
     65       H      4       1.000          0.968                         0.032
     66       H      4       1.000          0.968                         0.032
     67       C      3       4.000          4.016                        -0.016
     68       S      2       6.000          5.953                         0.047
     69       Au     1      11.000         11.118                        -0.118
     70       Au     1      11.000         11.118                        -0.118
     71       Au     1      11.000         11.055                        -0.055
     72       Au     1      11.000         11.117                        -0.117
     73       Au     1      11.000         11.064                        -0.064
     74       Au     1      11.000         11.064                        -0.064
     75       Au     1      11.000         11.054                        -0.054
     76       Au     1      11.000         11.117                        -0.117
     77       Au     1      11.000         11.013                        -0.013
     78       Au     1      11.000         11.025                        -0.025
     79       Au     1      11.000         11.033                        -0.033
     80       Au     1      11.000         11.033                        -0.033
     81       Au     1      11.000         11.032                        -0.032
     82       Au     1      11.000         11.012                        -0.012
     83       Au     1      11.000         11.033                        -0.033
     84       Au     1      11.000         11.033                        -0.033
     85       Au     1      11.000         11.101                        -0.101
     86       Au     1      11.000         11.101                        -0.101
     87       Au     1      11.000         11.105                        -0.105
     88       Au     1      11.000         11.102                        -0.102
     89       Au     1      11.000         11.105                        -0.105
     90       Au     1      11.000         11.105                        -0.105
     91       Au     1      11.000         11.105                        -0.105
     92       Au     1      11.000         11.102                        -0.102
     93       Au     1      11.000         11.026                        -0.026
     94       Au     1      11.000         11.027                        -0.027
     95       Au     1      11.000         11.026                        -0.026
     96       Au     1      11.000         11.026                        -0.026
     97       Au     1      11.000         11.026                        -0.026
     98       Au     1      11.000         11.026                        -0.026
     99       Au     1      11.000         11.026                        -0.026
    100       Au     1      11.000         11.026                        -0.026
    101       Au     1      11.000         11.000                        -0.000
    102       Au     1      11.000         11.000                        -0.000
    103       Au     1      11.000         11.000                        -0.000
    104       Au     1      11.000         11.000                        -0.000
    105       Au     1      11.000         11.000                        -0.000
    106       Au     1      11.000         11.000                        -0.000
    107       Au     1      11.000         11.000                        -0.000
    108       Au     1      11.000         11.000                        -0.000
    109       Au     1      11.000         11.000                         0.000
    110       Au     1      11.000         11.000                         0.000
    111       Au     1      11.000         11.000                         0.000
    112       Au     1      11.000         11.000                        -0.000
    113       Au     1      11.000         11.000                        -0.000
    114       Au     1      11.000         11.000                        -0.000
    115       Au     1      11.000         11.000                         0.000
    116       Au     1      11.000         11.000                        -0.000

  Total Charge                                                           -4.234
 !-----------------------------------------------------------------------------!
 Calculating transmission coefficient

 ENERGY| Total FORCE_EVAL ( QS ) energy [a.u.]:            -3517.017577222058208

 -------------------------------------------------------------------------------
 -                                                                             -
 -                                DBCSR STATISTICS                             -
 -                                                                             -
 -------------------------------------------------------------------------------
 COUNTER                                    TOTAL       BLAS       SMM       ACC
 flops inhomo. stacks                           0       0.0%      0.0%      0.0%
 flops total                         0.000000E+00       0.0%      0.0%      0.0%
 flops max/rank                      0.000000E+00       0.0%      0.0%      0.0%
 matmuls inhomo. stacks                         0       0.0%      0.0%      0.0%
 matmuls total                                  0       0.0%      0.0%      0.0%
 number of processed stacks                     0       0.0%      0.0%      0.0%
 average stack size                                     0.0       0.0       0.0
 marketing flops                     0.000000E+00
 -------------------------------------------------------------------------------
 -                                                                             -
 -                      DBCSR MESSAGE PASSING PERFORMANCE                      -
 -                                                                             -
 -------------------------------------------------------------------------------
 ROUTINE             CALLS      AVE VOLUME [Bytes]
 MP_Bcast                1                     12.
 MP_Allreduce         7495                      8.
 MP_Alltoall          5840                 175095.
 -------------------------------------------------------------------------------

 -------------------------------------------------------------------------------
 -                                                                             -
 -                                DBM STATISTICS                               -
 -                                                                             -
 -------------------------------------------------------------------------------
    M  x    N  x    K                                          COUNT     PERCENT
 -------------------------------------------------------------------------------

 -------------------------------------------------------------------------------
 -                                                                             -
 -                                GRID STATISTICS                              -
 -                                                                             -
 -------------------------------------------------------------------------------
 LP    KERNEL             BACKEND                              COUNT     PERCENT
 4     collocate ortho    REF                                8556480      44.82%
 4     integrate ortho    REF                                8461408      44.32%
 3     collocate ortho    REF                                 409590       2.15%
 3     integrate ortho    REF                                 405039       2.12%
 2     collocate ortho    REF                                 295290       1.55%
 2     integrate ortho    REF                                 292009       1.53%
 0     collocate general  REF                                 250560       1.31%
 0     integrate general  REF                                 222720       1.17%
 1     collocate ortho    REF                                  73800       0.39%
 1     integrate ortho    REF                                  72980       0.38%
 0     collocate ortho    REF                                  25380       0.13%
 0     integrate ortho    REF                                  25098       0.13%
 -------------------------------------------------------------------------------

 MEMORY| Estimated peak process memory [MiB]                                 881

 -------------------------------------------------------------------------------
 ----                             MULTIGRID INFO                            ----
 -------------------------------------------------------------------------------
 count for grid        1:         403725          cutoff [a.u.]          200.00
 count for grid        2:         625157          cutoff [a.u.]           66.67
 count for grid        3:         344958          cutoff [a.u.]           22.22
 count for grid        4:         152886          cutoff [a.u.]            7.41
 total gridlevel count  :        1526726

 -------------------------------------------------------------------------------
 -                                                                             -
 -                         MESSAGE PASSING PERFORMANCE                         -
 -                                                                             -
 -------------------------------------------------------------------------------

 ROUTINE             CALLS      AVE VOLUME [Bytes]
 MP_Group                5
 MP_Bcast            66385                  16216.
 MP_Allreduce         6650                 884309.
 MP_Sync              1078
 MP_Alltoall          1627              516161265.
 MP_ISendRecv        85562                   4000.
 MP_Wait            105399
 MP_ISend            28905                  37210.
 MP_IRecv            29003                  37093.
 MP_Recv              6300                 248832.
 MP_Write_All            2                 248850.
 -------------------------------------------------------------------------------


 -------------------------------------------------------------------------------
 -                                                                             -
 -                           R E F E R E N C E S                               -
 -                                                                             -
 -------------------------------------------------------------------------------
 
 CP2K version 2022.1 (Development Version), the CP2K developers group (2022).
 CP2K is freely available from https://www.cp2k.org/ .

 Kuehne,Thomas D.; Iannuzzi,Marcella; Del Ben,Mauro;
 Rybkin,Vladimir V.; Seewald,Patrick; Stein,Frederick; Laino,Teodoro;
 Khaliullin,Rustam Z.; Schuett,Ole; Schiffmann,Florian; Golze,Dorothea;
 Wilhelm,Jan; Chulkov,Sergey; Bani-Hashemian,Mohammad Hossein;
 Weber,Valery; Borstnik,Urban; Taillefumier,Mathieu;
 Jakobovits,Alice Shoshana; Lazzaro,Alfio; Pabst,Hans; Mueller,Tiziano;
 Schade,Robert; Guidon,Manuel; Andermatt,Samuel; Holmberg,Nico;
 Schenter,Gregory K.; Hehn,Anna; Bussy,Augustin; Belleflamme,Fabian;
 Tabacchi,Gloria; Gloess,Andreas; Lass,Michael; Bethune,Iain;
 Mundy,Christopher J.; Plessl,Christian; Watkins,Matt;
 VandeVondele,Joost; Krack,Matthias; Hutter,Juerg. 
 The Journal of Chemical Physics, 152 (19), (2020). 
 CP2K: An electronic structure and molecular dynamics software package -
 Quickstep: Efficient and accurate electronic structure calculations.
 https://doi.org/10.1063/5.0007045

 Togo, Atsushi; Tanaka, Isao. arXiv, 1808.01590 (2018). 
 Spglib : a software library for crystal symmetry search.
 https://doi.org/xxx

 Schuett, Ole; Messmer, Peter; Hutter, Juerg; VandeVondele, Joost. 
 Electronic Structure Calculations on Graphics Processing Units, John
 Wiley & Sons, Ltd, 173-190 (2016). 
 GPU-Accelerated Sparse Matrix-Matrix Multiplication for
 Linear Scaling Density Functional Theory.
 https://doi.org/10.1002/9781118670712.ch8

 Heinecke, A; Henry, G; Hutchinson, M; Pabst, H. 
 Proceedings of Intl. Supercomputing Conference, 981-991 (2016). 
 LIBXSMM: Accelerating Small Matrix Multiplications
 by Runtime Code Generation.
 https://doi.org/10.1109/SC.2016.83

 Borstnik, U; VandeVondele, J; Weber, V; Hutter, J. 
 PARALLEL COMPUTING, 40 (5-6), 47-58 (2014). 
 Sparse matrix multiplication: The distributed block-compressed sparse
 row library.
 https://doi.org/10.1016/j.parco.2014.03.012

 Hutter, J; Iannuzzi, M; Schiffmann, F; VandeVondele, J. 
 WIREs Comput Mol Sci., 4 (1), 15-25 (2014). 
 CP2K: atomistic simulations of condensed matter systems.
 https://doi.org/10.1002/wcms.1159

 VandeVondele, J; Hutter, J. 
 JOURNAL OF CHEMICAL PHYSICS, 127 (11), 114105 (2007). 
 Gaussian basis sets for accurate calculations on molecular systems in
 gas and condensed phases.
 https://doi.org/10.1063/1.2770708

 Krack, M. 
 THEORETICAL CHEMISTRY ACCOUNTS, 114 (1-3), 145-152 (2005). 
 Pseudopotentials for H to Kr optimized for gradient-corrected
 exchange-correlation functionals.
 https://doi.org/10.1007/s00214-005-0655-y

 VandeVondele, J; Krack, M; Mohamed, F; Parrinello, M; Chassaing, T;
 Hutter, J. COMPUTER PHYSICS COMMUNICATIONS, 167 (2), 103-128 (2005). 
 QUICKSTEP: Fast and accurate density functional calculations using a
 mixed Gaussian and plane waves approach.
 https://doi.org/10.1016/j.cpc.2004.12.014

 Frigo, M; Johnson, SG. 
 PROCEEDINGS OF THE IEEE, 93 (2), 216-231 (2005). 
 The design and implementation of FFTW3.
 https://doi.org/10.1109/JPROC.2004.840301

 Hartwigsen, C; Goedecker, S; Hutter, J. 
 PHYSICAL REVIEW B, 58 (7), 3641-3662 (1998). 
 Relativistic separable dual-space Gaussian pseudopotentials from H to Rn.
 https://doi.org/10.1103/PhysRevB.58.3641

 Lippert, G; Hutter, J; Parrinello, M. 
 MOLECULAR PHYSICS, 92 (3), 477-487 (1997). 
 A hybrid Gaussian and plane wave density functional scheme.
 https://doi.org/10.1080/002689797170220

 Goedecker, S; Teter, M; Hutter, J. 
 PHYSICAL REVIEW B, 54 (3), 1703-1710 (1996). 
 Separable dual-space Gaussian pseudopotentials.
 https://doi.org/10.1103/PhysRevB.54.1703


 -------------------------------------------------------------------------------
 -                                                                             -
 -                                T I M I N G                                  -
 -                                                                             -
 -------------------------------------------------------------------------------
 SUBROUTINE                       CALLS  ASD         SELF TIME        TOTAL TIME
                                MAXIMUM       AVERAGE  MAXIMUM  AVERAGE  MAXIMUM
 CP2K                                 1  1.0    0.033    0.055  819.357  819.360
 qs_energies                          1  2.0    0.000    0.001  818.936  819.076
 scf_env_do_scf                       1  3.0    0.000    0.000  801.747  801.796
 scf_env_do_scf_inner_loop           89  4.0    0.008    0.609  801.746  801.796
 run_smeagol_emtrans                 90  6.0  527.394  601.635  774.893  793.961
 qs_scf_new_mos_kp                   89  5.0    0.001    0.002  760.212  779.143
 convert_dbcsr_to_replsiesta        180  7.0    8.182   15.609   88.774   95.259
 dbcsr_replicate                  11340  8.0    0.663    1.157   74.882   75.827
 mp_sum_iv                          645  7.4   72.934   73.420   72.934   73.420
 dbcsr_finalize                   13008  8.8    0.087    0.149   22.957   45.836
 dbcsr_merge_all                  11770 10.0    0.461    0.848   22.802   45.605
 dbcsr_sort_data                  11340 11.0   19.086   41.427   19.086   41.427
 mp_allgather_i12                 11340  9.0   27.048   40.511   27.048   40.511
 replsiesta_struct_create            90  7.0    5.040   13.069   28.325   36.586
 mp_max_iv                          271  8.0   25.762   35.814   25.762   35.814
 mp_sum_dv                          622  7.6   33.712   35.703   33.712   35.703
 mp_allgatherv_dv                 11340  9.0   20.309   23.235   20.309   23.235
 self_consistency_check              89  5.0    0.003    0.004   19.189   23.233
 cp_sm_mix                         3738  6.0    0.040    0.076   19.166   23.213
 mp_max_d                          3740  7.0   19.116   23.174   19.116   23.174
 replsiesta_struct_merge_images      90  7.0    8.554   17.094    8.554   17.094
 -------------------------------------------------------------------------------

 The number of warnings for this run is : 0
 
 -------------------------------------------------------------------------------
  **** **** ******  **  PROGRAM ENDED AT                 2023-03-09 22:46:19.970
 ***** ** ***  *** **   PROGRAM RAN ON                     cn1011.scarf.rl.ac.uk
 **    ****   ******    PROGRAM RAN BY                                 scarf1157
 ***** **    ** ** **   PROGRAM PROCESS ID                                 20971
  **** **  *******  **  PROGRAM STOPPED IN /work4/scd/scarf1157/work/testing/cp2
                                           k-smeagol/bdt/cp2k/hollow-site/transp
                                           ort-cp2k/5-4/geometry-ordered/3x3-4/s
                                           z/bulk_layers-4/transmission/exp/sz/s
                                           ergey/kpoints_bulk-31_em-1-1-1
