         0      -5729.782607898      -5729.752736015      -5729.713868993      -5729.731738758      -5729.737335714      -5729.709313310      -5729.772184594          0.616258353          0.616258353          0.616258353          0.616258353          1.131633098          1.131633098
         1      -5729.782607899      -5729.833818622      -5729.790791280      -5729.805918351      -5729.804800040      -5729.780980941      -5729.772184595          0.748384024          0.657612634          0.677929995          0.650959079          1.221732331          1.264977079
         2      -5729.782607898      -5729.874676813      -5729.848506207      -5729.845394928      -5729.840437506      -5729.835891144      -5729.772184595          0.822802383          0.609204361          0.657702594          0.668896315          1.125613054          1.345811069
         3      -5729.782607898      -5729.898207931      -5729.891951765      -5729.873156637      -5729.868740013      -5729.881047625      -5729.772184595          0.869128600          0.657075834          0.681619818          0.706577272          1.121137771          1.377313305
         4      -5729.782607898      -5729.907739842      -5729.908415651      -5729.890268330      -5729.881455489      -5729.896769770      -5729.772184595          0.877043028          0.718267156          0.630430767          0.759928489          1.140397287          1.377532059
         5      -5729.782607899      -5729.914413954      -5729.920982451      -5729.903231689      -5729.892421858      -5729.908477488      -5729.772184595          0.881335133          0.818441014          0.642351341          0.793175212          1.203287770          1.379298998
         6      -5729.782607898      -5729.919077701      -5729.929551768      -5729.912253596      -5729.899567319      -5729.916625012      -5729.772184595          0.888646771          0.861646642          0.636612364          0.824270845          1.230466513          1.379210418
         7      -5729.782607898      -5729.923031655      -5729.934062855      -5729.918462537      -5729.902909679      -5729.921613187      -5729.772184595          0.889988284          0.886767326          0.661378923          0.821729581          1.264920716          1.379005999
         8      -5729.782607899      -5729.934710302      -5729.969130157      -5729.945735668      -5729.934253049      -5729.952774060      -5729.772184594          1.008541391          1.324785652          1.000827597          0.821931108          1.774278114          1.567960580
         9      -5729.782607899      -5729.941027572      -5729.972695849      -5729.952210657      -5729.935937744      -5729.958535114      -5729.772184594          1.030432368          1.291332513          1.011967701          0.832394189          1.758432698          1.578884488
        10      -5729.782607898      -5729.943146853      -5729.975267587      -5729.954923511      -5729.938236128      -5729.960552921      -5729.772184595          1.051780523          1.260501902          1.053113989          0.848900175          1.768023537          1.593854374
        11      -5729.782607899      -5729.944688696      -5729.977324165      -5729.957577211      -5729.940104160      -5729.962012850      -5729.772184595          1.067505822          1.238646808          1.055563275          0.863834438          1.778667441          1.607077796
        12      -5729.782607898      -5729.945899605      -5729.978352172      -5729.959568705      -5729.941020264      -5729.962829909      -5729.772184595          1.073748265          1.230108492          1.069180568          0.872399801          1.787575233          1.614088594
        13      -5729.782607898      -5729.953079016      -5729.997397411      -5729.985554063      -5729.961876176      -5729.979595227      -5729.772184595          1.272128208          1.271971986          1.370437363          1.143393025          2.067516821          1.928858467
        14      -5729.782607899      -5729.955528630      -5729.999785925      -5729.989032563      -5729.963430690      -5729.981097616      -5729.772184594          1.234090904          1.294640670          1.358733769          1.187403429          2.026161719          1.936039855
        15      -5729.782607899      -5729.949121229      -5730.001443810      -5729.991121923      -5729.965818037      -5729.981721147      -5729.772184595          1.145190261          1.361693498          1.363685334          1.254715964          1.979881574          1.944120792
        16      -5729.782607899      -5729.941572089      -5730.002395676      -5729.992742336      -5729.967907790      -5729.982098150      -5729.772184595          1.055121902          1.435690225          1.364165549          1.309331946          1.941377761          1.947028298
        17      -5729.782607898      -5729.940047972      -5730.002711518      -5729.993634940      -5729.968897695      -5729.982328856      -5729.772184595          1.004969766          1.473425032          1.371584057          1.332507900          1.928711590          1.947123543
        18      -5729.782607899      -5729.950111366      -5730.002161393      -5729.992327315      -5729.966785030      -5729.982151024      -5729.772184595          1.133393677          1.373850142          1.358116903          1.284741017          1.957708083          1.948217553
        19      -5729.782607899      -5729.940688895      -5730.003024523      -5729.993825705      -5729.969108641      -5729.982422923      -5729.772184594          1.018504509          1.468249790          1.368594504          1.340596481          1.922594375          1.949540061
        20      -5729.782607899      -5729.912776390      -5730.003827953      -5729.995689165      -5729.973433849      -5729.982485725      -5729.772184595          0.783565251          1.673984809          1.393648458          1.433132781          1.870449507          1.946581691
        21      -5729.782607899      -5729.907231780      -5730.003843855      -5729.996609177      -5729.974940663      -5729.982609732      -5729.772184595          0.693637146          1.740801833          1.413568633          1.456487242          1.859374148          1.943163810
        22      -5729.782607898      -5729.876812189      -5730.003526325      -5729.997812485      -5729.978315080      -5729.982444979      -5729.772184595          0.462420192          1.929243194          1.451672791          1.510860074          1.836180407          1.934922368
        23      -5729.782607899      -5729.905976469      -5730.003725775      -5729.993790032      -5729.973705255      -5729.981384478      -5729.772184595          0.940902587          1.628853169          1.401181688          1.443969925          1.871611172          1.950079865
        24      -5729.782607899      -5729.935258209      -5730.004571349      -5729.996597256      -5729.974524309      -5729.982748636      -5729.772184595          0.947135301          1.596759287          1.404017663          1.457434762          1.861181363          1.948211366
        25      -5729.782607899      -5729.461598963      -5729.965805066      -5729.955542773      -5729.995375100      -5729.946411592      -5729.772184595          0.788267743          2.895936131          1.704806571          1.926686032          1.808437245          1.892098718
        26      -5729.782607899      -5729.622444077      -5730.000712359      -5730.006457914      -5729.999811186      -5729.979820876      -5729.772184595          0.721291381          2.940259281          1.776674742          2.033077710          1.770360069          1.900875652
        27      -5729.782607899      -5729.645817024      -5730.001386472      -5730.009773327      -5730.002035839      -5729.981407728      -5729.772184595          1.029833362          3.154373113          1.796477806          1.983342572          1.788018654          1.894744178
        28      -5729.782607899      -5729.505398413      -5729.998798057      -5730.010870573      -5730.003292459      -5729.981311939      -5729.772184595          1.256309640          3.330810253          1.854584806          1.980065371          1.803817836          1.888597836
        29      -5729.782607898      -5729.471336390      -5729.993932612      -5730.012343518      -5730.004851421      -5729.981000066      -5729.772184595          1.920122611          3.815540019          1.953462157          2.002375045          1.825735596          1.881635677
        30      -5729.782607898      -5729.422961168      -5729.991007352      -5730.013126324      -5730.005554528      -5729.981032698      -5729.772184595          2.080568291          3.918242589          2.010922327          2.020328474          1.835040926          1.879430101
        31      -5729.782607899      -5729.156650180      -5729.976872832      -5730.015867972      -5730.008335359      -5729.980249989      -5729.772184595          3.260791248          4.792333655          2.263381207          2.097708389          1.877338700          1.872374513
        32      -5729.782607898      -5728.808818995      -5729.971446977      -5730.016955641      -5730.009113584      -5729.980707984      -5729.772184595          3.722456010          5.159995663          2.354381457          2.111613006          1.888610528          1.873019806
        33      -5729.782607898      -5729.690177584      -5729.990340689      -5730.012992004      -5730.006278777      -5729.977738896      -5729.772184594          0.893262795          2.682069153          2.034008841          2.032124230          1.849392560          1.871071348
        34      -5729.782607899      -5729.791317185      -5729.992827992      -5730.014862086      -5730.007235480      -5729.980190799      -5729.772184595          0.792391015          2.467963606          2.071093416          2.058403674          1.861023518          1.872287508
        35      -5729.782607899      -5729.848775798      -5729.991646027      -5730.016190312      -5730.008654969      -5729.979380047      -5729.772184594          0.934139994          2.257399510          2.107772877          2.085649471          1.881742286          1.872716265
        36      -5729.782607898      -5729.874588703      -5729.992250119      -5730.017571222      -5730.009555196      -5729.980478585      -5729.772184594          0.950621200          2.139201924          2.126372272          2.116369041          1.894578036          1.874524653
        37      -5729.782607898      -5729.890589135      -5729.992655790      -5730.018782081      -5730.011022246      -5729.979649289      -5729.772184595          0.919253714          1.927854544          2.139727414          2.146965907          1.918630776          1.877863143
        38      -5729.782607898      -5729.905955169      -5729.993671735      -5730.020703625      -5730.012196662      -5729.981157017      -5729.772184595          0.915070838          1.794445651          2.149723180          2.179866604          1.936243689          1.881574542
        39      -5729.782607899      -5729.905613444      -5729.994791563      -5730.021544096      -5730.013005121      -5729.981232414      -5729.772184595          0.841893285          1.758727132          2.140848781          2.198230564          1.949542103          1.885444249
        40      -5729.782607899      -5729.905148683      -5729.995584386      -5730.022304372      -5730.013677970      -5729.981456648      -5729.772184595          0.776524324          1.715963515          2.137388831          2.212452561          1.960670666          1.888727390
        41      -5729.782607899      -5729.886334566      -5729.985924856      -5730.013399552      -5730.006591939      -5729.976453215      -5729.772184594          1.738787357          2.207046471          2.183745078          2.060304192          1.863538505          1.853638184
        42      -5729.782607899      -5729.893992545      -5729.987603665      -5730.015282190      -5730.007563780      -5729.979276955      -5729.772184595          1.806574763          2.212946759          2.180374669          2.094621394          1.875206742          1.857388570
        43      -5729.782607898      -5729.898292185      -5729.989134001      -5730.015998162      -5730.009100412      -5729.977056180      -5729.772184594          1.919120856          2.220674765          2.170062360          2.123906817          1.899927534          1.862323726
        44      -5729.782607899      -5729.902016183      -5729.990179763      -5730.017965857      -5730.010029126      -5729.979758989      -5729.772184595          1.980363980          2.227235513          2.176009130          2.159371976          1.911623698          1.867474336
        45      -5729.782607898      -5729.904687751      -5729.991007593      -5730.018334008      -5730.011443191      -5729.977766331      -5729.772184595          2.091308698          2.242283253          2.177270291          2.182753563          1.937349253          1.875055905
        46      -5729.782607898      -5729.906421118      -5729.991739650      -5730.020574992      -5730.012110859      -5729.981014146      -5729.772184595          2.128523971          2.248543671          2.183752858          2.202943166          1.943563183          1.878390069
        47      -5729.782607898      -5729.860289961      -5729.993285582      -5730.027606729      -5730.025601805      -5729.959695480      -5729.772184595          3.492977077          2.737024592          2.423945957          2.560466770          2.256339783          1.958298684
        48      -5729.782607899      -5729.862207757      -5729.994203104      -5730.031467557      -5730.026189419      -5729.967114534      -5729.772184595          3.593816233          2.793853427          2.449151404          2.536516360          2.245873399          2.006931851
        49      -5729.782607898      -5729.859012500      -5729.994398263      -5730.034588941      -5730.026736991      -5729.985718086      -5729.772184594          3.691122573          2.848339201          2.475767621          2.564937295          2.232384450          2.031474986
        50      -5729.782607899      -5729.840384125      -5729.993353414      -5730.029962650      -5730.028453547      -5729.979630420      -5729.772184594          4.000573246          3.027782315          2.546664560          2.548127350          2.257211568          2.073791480
        51      -5729.782607898      -5729.831524721      -5729.993618015      -5730.036979734      -5730.029386904      -5729.989101813      -5729.772184595          4.171088202          3.128641210          2.588499816          2.594097903          2.261377480          2.098226498
        52      -5729.782607899      -5729.697688593      -5729.985142327      -5730.017319961      -5730.036768054      -5729.956483409      -5729.772184594          5.799137661          4.132030692          3.005163240          2.709891707          2.434251431          2.261655223
        53      -5729.782607899      -5729.689801576      -5729.983608845      -5730.015211806      -5730.037379111      -5729.992664663      -5729.772184595          5.953466676          4.201665457          3.072562857          2.719263638          2.396836545          2.289763458
        54      -5729.782607899      -5729.681008731      -5729.981891120      -5730.038925954      -5730.037928305      -5729.995805011      -5729.772184595          6.116916279          4.276262457          3.125898147          2.791359399          2.404330470          2.299047512
        55      -5729.782607899      -5729.669883606      -5729.980235240      -5730.041624570      -5730.038532413      -5729.996376173      -5729.772184595          6.267383457          4.344675600          3.170753301          2.779921275          2.415552244          2.309978794
        56      -5729.782607899      -5729.539939437      -5729.959871622      -5730.003267950      -5730.042889051      -5729.962963619      -5729.772184594          7.804982364          5.083138585          3.569578577          2.744558724          2.574269023          2.396443931
        57      -5729.782607899      -5729.526794684      -5729.956813270      -5730.028720732      -5730.043473854      -5729.998437235      -5729.772184595          7.999593764          5.161917747          3.631525045          3.036977495          2.539297402          2.427923663
        58      -5729.782607898      -5729.518525625      -5729.954595704      -5730.037117140      -5730.044350532      -5730.000396369      -5729.772184595          8.150454485          5.224520642          3.677035403          3.009213135          2.549552541          2.438776150
        59      -5729.782607898      -5729.421569777      -5729.930470664      -5729.765670922      -5730.047518733      -5729.947863232      -5729.772184595          9.516932949          5.815959311          4.075977541          2.839922902          2.732145991          2.514139928
        60      -5729.782607898      -5729.416702266      -5729.928121704      -5729.851515970      -5730.048393927      -5729.991729335      -5729.772184594          9.682955367          5.881237434          4.701376732          3.871911249          2.690832922          2.567936909
        61      -5729.782607899      -5729.405730218      -5729.926202631      -5729.891966310      -5730.045837531      -5729.999040451      -5729.772184595          9.934564087          6.032617973          4.701222227          3.663037890          2.686599261          2.589796147
        62      -5729.782607899      -5729.400763504      -5729.924952208      -5729.906433418      -5730.045151089      -5730.004985565      -5729.772184594         10.073241111          6.105442421          4.793665937          3.670173646          2.685619063          2.604344301
        63      -5729.782607899      -5729.360773106      -5729.914838744      -5729.696463595      -5730.031860816      -5729.980538859      -5729.772184595         11.060552379          6.655021658          4.907445276          2.788015304          2.783843559          2.644238723
        64      -5729.782607898      -5729.359080182      -5729.913809952      -5729.539188199      -5730.037669407      -5730.005619537      -5729.772184595         11.177740274          6.702456822          5.048540062          2.969434154          2.773226851          2.662047286
        65      -5729.782607898      -5729.358519873      -5729.913526556      -5729.942146946      -5730.040008289      -5730.006847635      -5729.772184595         11.209061636          6.718311252          5.068330539          3.086703957          2.765419718          2.658761832
        66      -5729.782607899      -5729.350144034      -5729.907775206      -5729.989863039      -5730.040230267      -5730.003959187      -5729.772184595         11.612823094          6.890354252          5.037731594          2.959507127          2.799645823          2.676992838
        67      -5729.782607899      -5729.347095579      -5729.903648705      -5730.025346675      -5730.040236571      -5730.001624702      -5729.772184595         11.853061550          6.974880061          5.013830214          2.984106244          2.836783495          2.694094479
        68      -5729.782607899      -5729.344920256      -5729.898835975      -5730.025653053      -5730.038124627      -5730.000142647      -5729.772184594         12.089660960          7.044673159          4.994742949          3.066773786          2.850757136          2.715565661
        69      -5729.782607899      -5729.338802519      -5729.892058952      -5730.028034702      -5730.045368187      -5730.009925506      -5729.772184595         12.565913737          7.195213808          4.989133405          3.288277150          2.895549064          2.753421934
        70      -5729.782607899      -5729.328869794      -5729.880246655      -5730.018285525      -5730.047568500      -5730.011472359      -5729.772184594         13.237458049          7.398274115          5.022106295          3.592584996          2.957411326          2.801021154
        71      -5729.782607899      -5729.329809024      -5729.877615183      -5730.024994849      -5730.048396804      -5730.011890973      -5729.772184595         13.365340202          7.411200313          5.057782197          3.604976418          2.968386563          2.808928353
        72      -5729.782607899      -5729.333964749      -5729.856238257      -5729.707985194      -5730.046247655      -5730.012106281      -5729.772184595         14.422523960          7.528101916          5.378700781          4.119262590          3.162653564          2.875097026
        73      -5729.782607899      -5729.336182210      -5729.855003444      -5729.730348064      -5730.047540327      -5730.013900461      -5729.772184595         14.535877015          7.541463513          5.634000597          4.272115534          3.115799267          2.889831739
        74      -5729.782607899      -5729.340648184      -5729.853482368      -5729.821140956      -5730.043212056      -5730.014100371      -5729.772184594         14.754484593          7.588248038          5.702849960          4.232089315          3.045048848          2.911582715
        75      -5729.782607899      -5729.345254707      -5729.852231924      -5729.902338712      -5730.042147646      -5730.013811304      -5729.772184595         14.950861685          7.628054159          5.744868306          4.036079987          2.968509922          2.924113777
        76      -5729.782607898      -5729.350491187      -5729.850968174      -5729.972942072      -5730.032191297      -5730.012763902      -5729.772184595         15.154208167          7.665896199          5.777570108          3.973228361          2.940614191          2.930065471
        77      -5729.782607899      -5729.352315706      -5729.850815465      -5729.998358293      -5730.043213613      -5730.015274651      -5729.772184595         15.197727356          7.670617260          5.757217264          3.946933571          2.934774769          2.927970486
        78      -5729.782607899      -5729.356994979      -5729.849818511      -5730.014363410      -5730.041596105      -5730.015334490      -5729.772184594         15.357467597          7.694096070          5.759630522          3.933599776          2.951812326          2.928505039
        79      -5729.782607899      -5729.359405363      -5729.849303864      -5730.014318626      -5730.041651422      -5730.015295614      -5729.772184594         15.436343660          7.703813195          5.766408931          3.955610989          2.977292970          2.931067340
        80      -5729.782607899      -5729.384516842      -5729.842908862      -5729.855823136      -5730.004755816      -5729.998661934      -5729.772184595         16.371955128          7.819366634          5.803028546          4.265343440          3.270431726          2.955760086
        81      -5729.782607898      -5729.387451119      -5729.842513546      -5729.939102357      -5730.036443129      -5730.015328385      -5729.772184595         16.444188901          7.818243503          5.863781565          4.259635971          3.218507014          2.973915293
        82      -5729.782607899      -5729.393064175      -5729.841835642      -5730.000105843      -5730.033740202      -5730.016312253      -5729.772184595         16.582122273          7.818817409          5.899901200          4.292190305          3.185984122          2.992701465
        83      -5729.782607899      -5729.401089193      -5729.841029075      -5729.996785502      -5730.023167272      -5730.014915467      -5729.772184595         16.775854488          7.819225118          5.928409282          4.252680207          3.201268381          3.014420258
        84      -5729.782607898      -5729.405057742      -5729.840728608      -5730.006396388      -5730.025458709      -5730.017771163      -5729.772184595         16.866237312          7.817929206          5.936772247          4.277896758          3.186625102          3.024850243
        85      -5729.782607899      -5729.411078949      -5729.840319317      -5730.005358580      -5730.019918808      -5730.018085191      -5729.772184595         17.001620469          7.814946575          5.947418214          4.293548171          3.192679654          3.037273263
        86      -5729.782607899      -5729.421405525      -5729.839080995      -5730.003475290      -5730.030959563      -5730.018880436      -5729.772184594         17.278282875          7.815728584          5.996630426          4.317714260          3.183496965          3.068083402
        87      -5729.782607899      -5729.446082777      -5729.835926298      -5729.996908137      -5730.025079685      -5730.020042683      -5729.772184595         17.997018317          7.816688725          6.087888452          4.419417648          3.234737899          3.134214423
        88      -5729.782607899      -5729.449800245      -5729.836020029      -5729.997722482      -5730.025281322      -5730.020751595      -5729.772184595         18.075188548          7.810871248          6.087465410          4.413489023          3.237541157          3.139559120
        89      -5729.782607899      -5729.482794122      -5729.835884690      -5729.981057426      -5729.932950862      -5730.000507397      -5729.772184595         18.872850448          7.752016273          6.092723693          4.455990376          3.356810016          3.194449444
        90      -5729.782607899      -5729.485439045      -5729.836022828      -5729.990010807      -5730.005963158      -5730.019791035      -5729.772184595         18.926509144          7.741300495          6.093203883          4.521426714          3.447920275          3.200395949
        91      -5729.782607899      -5729.489680521      -5729.836210764      -5729.990378921      -5730.010604885      -5730.022197978      -5729.772184595         19.013364264          7.723795492          6.095327732          4.544292962          3.425802878          3.217479746
        92      -5729.782607899      -5729.494091765      -5729.836434308      -5729.990180597      -5730.012283657      -5730.022719020      -5729.772184595         19.104006047          7.705532749          6.097648704          4.554906944          3.442412989          3.232073919
        93      -5729.782607898      -5729.498049705      -5729.836655240      -5729.989995943      -5730.008461413      -5730.023352464      -5729.772184595         19.185646379          7.689111280          6.099030856          4.568373057          3.445236241          3.245416616
        94      -5729.782607898      -5729.499911005      -5729.836768522      -5729.990003724      -5730.019345698      -5730.023690839      -5729.772184595         19.223874724          7.681349555          6.099464016          4.571047098          3.458729747          3.251309537
        95      -5729.782607898      -5729.531159292      -5729.837944315      -5729.986136435      -5729.938847055      -5730.025069500      -5729.772184595         19.961412692          7.545215537          6.118659753          4.643768647          3.702739580          3.367324007
        96      -5729.782607898      -5729.534451882      -5729.838371590      -5729.986560995      -5729.842827611      -5730.026479642      -5729.772184595         20.032608165          7.532983768          6.114561013          4.726013845          3.784989131          3.388279165
        97      -5729.782607898      -5729.536759220      -5729.838666835      -5729.986734476      -5729.980146500      -5730.027273734      -5729.772184594         20.082314763          7.523752136          6.115185236          4.820703319          3.921514070          3.405429520
        98      -5729.782607899      -5729.542443501      -5729.839390319      -5729.986852698      -5730.013587675      -5730.028427525      -5729.772184594         20.206464830          7.501004549          6.123518847          4.824693902          3.851549386          3.460647084
        99      -5729.782607899      -5729.543370325      -5729.839531119      -5729.986865358      -5730.011761703      -5730.028549188      -5729.772184595         20.226043475          7.497641984          6.123003456          4.836543388          3.878597279          3.464709000
       100      -5729.782607898      -5729.547382622      -5729.840113900      -5729.986918744      -5730.017410530      -5730.029230074      -5729.772184595         20.312719959          7.482161034          6.127483896          4.842256649          3.889031293          3.496025890
       101      -5729.782607898      -5729.552319089      -5729.840837815      -5729.987007255      -5730.018210472      -5730.030057311      -5729.772184595         20.421014778          7.463604110          6.131605641          4.855573233          3.926901428          3.532715067
       102      -5729.782607898      -5729.581925991      -5729.844933396      -5729.987291306      -5729.857052240      -5730.035178069      -5729.772184595         21.137387586          7.356737186          6.160469376          4.933338011          4.367584086          3.779057596
       103      -5729.782607898      -5729.585215942      -5729.845589703      -5729.987705314      -5729.659166853      -5730.035987486      -5729.772184595         21.210690730          7.350127788          6.166812274          5.152140354          4.531075366          3.820230597
       104      -5729.782607899      -5729.586881649      -5729.845928927      -5729.988028759      -5729.840095178      -5730.036415364      -5729.772184595         21.247298192          7.346779160          6.173253017          5.232796499          4.615163176          3.842609619