 # Version information for this restart file 
 # current date 2024-01-12 22:17:54.257
 # current working dir /gpfs/home/cahart/transport/melamine/au_from-h2/ci-neb/ts2-fixed/dft_leads-sz_tip-dzvp_surf-dzvp_kpoints-2-4-20_replicas-7
 # Program compiled at                              Thu 21 Sep 19:20:17 BST 2023
 # Program compiled on                                           hx1-c12-login-1
 # Program compiled for                                                    local
 # Source code revision number                                       git:5518aa6
 &GLOBAL
   EXTENDED_FFT_LENGTHS  T
   PRINT_LEVEL  MEDIUM
   PROJECT_NAME 2_dft_wfn-r-0
   OUTPUT_FILE_NAME 2_dft_wfn-r-0.out
   RUN_TYPE  BAND
 &END GLOBAL
 &MOTION
   &BAND
     NPROC_REP  64
     BAND_TYPE  CI-NEB
     NUMBER_OF_REPLICA  7
     K_SPRING     5.0000000000000003E-02
     &CI_NEB
       NSTEPS_IT  5
     &END CI_NEB
     &OPTIMIZE_BAND
       OPT_TYPE  DIIS
       &DIIS
         MAX_STEPS  1000
       &END DIIS
     &END OPTIMIZE_BAND
     &REPLICA
       &COORD
             0.0000000000000000E+00    0.0000000000000000E+00    0.0000000000000000E+00
             0.0000000000000000E+00    2.9549999999999930E+00    0.0000000000000000E+00
             0.0000000000000000E+00    5.9109999999999783E+00    0.0000000000000000E+00
             2.9559999999999920E+00    0.0000000000000000E+00    0.0000000000000000E+00
             2.9559999999999920E+00    2.9549999999999930E+00    0.0000000000000000E+00
             2.9559999999999920E+00    5.9109999999999783E+00    0.0000000000000000E+00
             5.9119999999999839E+00    0.0000000000000000E+00    0.0000000000000000E+00
             5.9119999999999839E+00    2.9549999999999930E+00    0.0000000000000000E+00
             5.9119999999999839E+00    5.9109999999999783E+00    0.0000000000000000E+00
             8.6699999999999786E+00    0.0000000000000000E+00    0.0000000000000000E+00
             8.6699999999999786E+00    2.9549999999999930E+00    0.0000000000000000E+00
             8.6699999999999786E+00    5.9109999999999783E+00    0.0000000000000000E+00
             1.1625999999999964E+01    0.0000000000000000E+00    0.0000000000000000E+00
             1.1625999999999964E+01    2.9549999999999930E+00    0.0000000000000000E+00
             1.1625999999999964E+01    5.9109999999999783E+00    0.0000000000000000E+00
             1.4779999999999960E+00    1.4779999999999960E+00    2.0899999999999941E+00
             1.4779999999999960E+00    4.4329999999999874E+00    2.0899999999999941E+00
             1.4779999999999960E+00    7.3889999999999816E+00    2.0899999999999941E+00
             4.4339999999999913E+00    1.4779999999999960E+00    2.0899999999999941E+00
             4.4339999999999913E+00    4.4329999999999874E+00    2.0899999999999941E+00
             4.4339999999999913E+00    7.3889999999999816E+00    2.0899999999999941E+00
             7.1919999999999762E+00    1.4779999999999960E+00    2.0899999999999941E+00
             7.1919999999999762E+00    4.4329999999999874E+00    2.0899999999999941E+00
             7.1919999999999762E+00    7.3889999999999816E+00    2.0899999999999941E+00
             1.0147999999999966E+01    1.4779999999999960E+00    2.0899999999999941E+00
             1.0147999999999966E+01    4.4329999999999874E+00    2.0899999999999941E+00
             1.0147999999999966E+01    7.3889999999999816E+00    2.0899999999999941E+00
             1.3103999999999965E+01    1.4779999999999960E+00    2.0899999999999941E+00
             1.3103999999999965E+01    4.4329999999999874E+00    2.0899999999999941E+00
             1.3103999999999965E+01    7.3889999999999816E+00    2.0899999999999941E+00
             0.0000000000000000E+00    0.0000000000000000E+00    4.1799999999999882E+00
             0.0000000000000000E+00    2.9549999999999930E+00    4.1799999999999882E+00
             0.0000000000000000E+00    5.9109999999999783E+00    4.1799999999999882E+00
             2.9559999999999920E+00    0.0000000000000000E+00    4.1799999999999882E+00
             2.9559999999999920E+00    2.9549999999999930E+00    4.1799999999999882E+00
             2.9559999999999920E+00    5.9109999999999783E+00    4.1799999999999882E+00
             5.9119999999999839E+00    0.0000000000000000E+00    4.1799999999999882E+00
             5.9119999999999839E+00    2.9549999999999930E+00    4.1799999999999882E+00
             5.9119999999999839E+00    5.9109999999999783E+00    4.1799999999999882E+00
             8.6699999999999786E+00    0.0000000000000000E+00    4.1799999999999882E+00
             8.6699999999999786E+00    2.9549999999999930E+00    4.1799999999999882E+00
             8.6699999999999786E+00    5.9109999999999783E+00    4.1799999999999882E+00
             1.1625999999999964E+01    0.0000000000000000E+00    4.1799999999999882E+00
             1.1625999999999964E+01    2.9549999999999930E+00    4.1799999999999882E+00
             1.1625999999999964E+01    5.9109999999999783E+00    4.1799999999999882E+00
             1.4779999999999960E+00    1.4779999999999960E+00    6.2699999999999809E+00
             1.4779999999999960E+00    4.4329999999999874E+00    6.2699999999999809E+00
             1.4779999999999960E+00    7.3889999999999816E+00    6.2699999999999809E+00
             4.4339999999999913E+00    1.4779999999999960E+00    6.2699999999999809E+00
             4.4339999999999913E+00    4.4329999999999874E+00    6.2699999999999809E+00
             4.4339999999999913E+00    7.3889999999999816E+00    6.2699999999999809E+00
             7.1919999999999762E+00    1.4779999999999960E+00    6.2699999999999809E+00
             7.1919999999999762E+00    4.4329999999999874E+00    6.2699999999999809E+00
             7.1919999999999762E+00    7.3889999999999816E+00    6.2699999999999809E+00
             1.0147999999999966E+01    1.4779999999999960E+00    6.2699999999999809E+00
             1.0147999999999966E+01    4.4329999999999874E+00    6.2699999999999809E+00
             1.0147999999999966E+01    7.3889999999999816E+00    6.2699999999999809E+00
             1.3103999999999965E+01    1.4779999999999960E+00    6.2699999999999809E+00
             1.3103999999999965E+01    4.4329999999999874E+00    6.2699999999999809E+00
             1.3103999999999965E+01    7.3889999999999816E+00    6.2699999999999809E+00
             0.0000000000000000E+00    0.0000000000000000E+00    8.3599999999999763E+00
             0.0000000000000000E+00    2.9549999999999930E+00    8.3599999999999763E+00
             0.0000000000000000E+00    5.9109999999999783E+00    8.3599999999999763E+00
             2.9559999999999920E+00    0.0000000000000000E+00    8.3599999999999763E+00
             2.9559999999999920E+00    2.9549999999999930E+00    8.3599999999999763E+00
             2.9559999999999920E+00    5.9109999999999783E+00    8.3599999999999763E+00
             5.9119999999999839E+00    0.0000000000000000E+00    8.3599999999999763E+00
             5.9119999999999839E+00    2.9549999999999930E+00    8.3599999999999763E+00
             5.9119999999999839E+00    5.9109999999999783E+00    8.3599999999999763E+00
             8.6699999999999786E+00    0.0000000000000000E+00    8.3599999999999763E+00
             8.6699999999999786E+00    2.9549999999999930E+00    8.3599999999999763E+00
             8.6699999999999786E+00    5.9109999999999783E+00    8.3599999999999763E+00
             1.1625999999999964E+01    0.0000000000000000E+00    8.3599999999999763E+00
             1.1625999999999964E+01    2.9549999999999930E+00    8.3599999999999763E+00
             1.1625999999999964E+01    5.9109999999999783E+00    8.3599999999999763E+00
             1.4779999999999960E+00    1.4779999999999960E+00    1.0449999999999958E+01
             1.4779999999999960E+00    4.4329999999999874E+00    1.0449999999999958E+01
             1.4779999999999960E+00    7.3889999999999816E+00    1.0449999999999958E+01
             4.4339999999999913E+00    1.4779999999999960E+00    1.0449999999999958E+01
             4.4339999999999913E+00    4.4329999999999874E+00    1.0449999999999958E+01
             4.4339999999999913E+00    7.3889999999999816E+00    1.0449999999999958E+01
             7.1919999999999762E+00    1.4779999999999960E+00    1.0449999999999958E+01
             7.1919999999999762E+00    4.4329999999999874E+00    1.0449999999999958E+01
             7.1919999999999762E+00    7.3889999999999816E+00    1.0449999999999958E+01
             1.0147999999999966E+01    1.4779999999999960E+00    1.0449999999999958E+01
             1.0147999999999966E+01    4.4329999999999874E+00    1.0449999999999958E+01
             1.0147999999999966E+01    7.3889999999999816E+00    1.0449999999999958E+01
             1.3103999999999965E+01    1.4779999999999960E+00    1.0449999999999958E+01
             1.3103999999999965E+01    4.4329999999999874E+00    1.0449999999999958E+01
             1.3103999999999965E+01    7.3889999999999816E+00    1.0449999999999958E+01
             4.8553999999999879E+00    5.9118999999999868E+00    1.2031799999999960E+01
             9.5279999999999774E+00    5.9136999999999880E+00    1.2033999999999969E+01
             7.1919999999999762E+00    5.9339999999999868E+00    1.2039999999999967E+01
             4.0673339927999894E+00    5.9059993219999836E+00    1.2687741368899967E+01
             1.0318905404799963E+01    5.9087793825999873E+00    1.2685747073199961E+01
             5.9989554221999821E+00    5.9152564165999832E+00    1.2792642411199967E+01
             8.3738707292999841E+00    5.9179777706999834E+00    1.2731457252199961E+01
             8.3227525761999832E+00    5.9051536094999859E+00    1.4080497642099955E+01
             5.9344285048999836E+00    5.8981604864999797E+00    1.4101749969599959E+01
             7.1039653576999777E+00    5.8899410688999811E+00    1.4828703219099960E+01
             7.2416021046999868E+00    5.8657702091999786E+00    1.6106466757299955E+01
             6.3118250322999812E+00    5.8547577070999814E+00    1.6539601306199962E+01
             9.1743570612999719E+00    5.8876302391999840E+00    1.4641017735299949E+01
             7.3119999999999807E+00    5.9339999999999868E+00    2.1042999999999942E+01
             5.8129999999999820E+00    7.4339999999999771E+00    2.2991999999999933E+01
             8.8129999999999722E+00    4.4339999999999913E+00    2.2991999999999933E+01
             5.8129999999999820E+00    4.4329999999999874E+00    2.2991999999999933E+01
             8.8129999999999722E+00    7.4339999999999771E+00    2.2991999999999933E+01
             1.4779999999999960E+00    1.4779999999999960E+00    2.5081999999999923E+01
             1.4779999999999960E+00    4.4329999999999874E+00    2.5081999999999923E+01
             1.4779999999999960E+00    7.3889999999999816E+00    2.5081999999999923E+01
             4.4339999999999913E+00    1.4779999999999960E+00    2.5081999999999923E+01
             4.4339999999999913E+00    4.4329999999999874E+00    2.5081999999999923E+01
             4.4339999999999913E+00    7.3889999999999816E+00    2.5081999999999923E+01
             7.1919999999999762E+00    1.4779999999999960E+00    2.5081999999999923E+01
             7.1919999999999762E+00    4.4329999999999874E+00    2.5081999999999923E+01
             7.1919999999999762E+00    7.3889999999999816E+00    2.5081999999999923E+01
             1.0147999999999966E+01    1.4779999999999960E+00    2.5081999999999923E+01
             1.0147999999999966E+01    4.4329999999999874E+00    2.5081999999999923E+01
             1.0147999999999966E+01    7.3889999999999816E+00    2.5081999999999923E+01
             1.3103999999999965E+01    1.4779999999999960E+00    2.5081999999999923E+01
             1.3103999999999965E+01    4.4329999999999874E+00    2.5081999999999923E+01
             1.3103999999999965E+01    7.3889999999999816E+00    2.5081999999999923E+01
             0.0000000000000000E+00    0.0000000000000000E+00    2.7171999999999958E+01
             0.0000000000000000E+00    2.9549999999999930E+00    2.7171999999999958E+01
             0.0000000000000000E+00    5.9109999999999783E+00    2.7171999999999958E+01
             2.9559999999999920E+00    0.0000000000000000E+00    2.7171999999999958E+01
             2.9559999999999920E+00    2.9549999999999930E+00    2.7171999999999958E+01
             2.9559999999999920E+00    5.9109999999999783E+00    2.7171999999999958E+01
             5.9119999999999839E+00    0.0000000000000000E+00    2.7171999999999958E+01
             5.9119999999999839E+00    2.9549999999999930E+00    2.7171999999999958E+01
             5.9119999999999839E+00    5.9109999999999783E+00    2.7171999999999958E+01
             8.6699999999999786E+00    0.0000000000000000E+00    2.7171999999999958E+01
             8.6699999999999786E+00    2.9549999999999930E+00    2.7171999999999958E+01
             8.6699999999999786E+00    5.9109999999999783E+00    2.7171999999999958E+01
             1.1625999999999964E+01    0.0000000000000000E+00    2.7171999999999958E+01
             1.1625999999999964E+01    2.9549999999999930E+00    2.7171999999999958E+01
             1.1625999999999964E+01    5.9109999999999783E+00    2.7171999999999958E+01
             1.4779999999999960E+00    1.4779999999999960E+00    2.9261999999999926E+01
             1.4779999999999960E+00    4.4329999999999874E+00    2.9261999999999926E+01
             1.4779999999999960E+00    7.3889999999999816E+00    2.9261999999999926E+01
             4.4339999999999913E+00    1.4779999999999960E+00    2.9261999999999926E+01
             4.4339999999999913E+00    4.4329999999999874E+00    2.9261999999999926E+01
             4.4339999999999913E+00    7.3889999999999816E+00    2.9261999999999926E+01
             7.1919999999999762E+00    1.4779999999999960E+00    2.9261999999999926E+01
             7.1919999999999762E+00    4.4329999999999874E+00    2.9261999999999926E+01
             7.1919999999999762E+00    7.3889999999999816E+00    2.9261999999999926E+01
             1.0147999999999966E+01    1.4779999999999960E+00    2.9261999999999926E+01
             1.0147999999999966E+01    4.4329999999999874E+00    2.9261999999999926E+01
             1.0147999999999966E+01    7.3889999999999816E+00    2.9261999999999926E+01
             1.3103999999999965E+01    1.4779999999999960E+00    2.9261999999999926E+01
             1.3103999999999965E+01    4.4329999999999874E+00    2.9261999999999926E+01
             1.3103999999999965E+01    7.3889999999999816E+00    2.9261999999999926E+01
             0.0000000000000000E+00    0.0000000000000000E+00    3.1351999999999911E+01
             0.0000000000000000E+00    2.9549999999999930E+00    3.1351999999999911E+01
             0.0000000000000000E+00    5.9109999999999783E+00    3.1351999999999911E+01
             2.9559999999999920E+00    0.0000000000000000E+00    3.1351999999999911E+01
             2.9559999999999920E+00    2.9549999999999930E+00    3.1351999999999911E+01
             2.9559999999999920E+00    5.9109999999999783E+00    3.1351999999999911E+01
             5.9119999999999839E+00    0.0000000000000000E+00    3.1351999999999911E+01
             5.9119999999999839E+00    2.9549999999999930E+00    3.1351999999999911E+01
             5.9119999999999839E+00    5.9109999999999783E+00    3.1351999999999911E+01
             8.6699999999999786E+00    0.0000000000000000E+00    3.1351999999999911E+01
             8.6699999999999786E+00    2.9549999999999930E+00    3.1351999999999911E+01
             8.6699999999999786E+00    5.9109999999999783E+00    3.1351999999999911E+01
             1.1625999999999964E+01    0.0000000000000000E+00    3.1351999999999911E+01
             1.1625999999999964E+01    2.9549999999999930E+00    3.1351999999999911E+01
             1.1625999999999964E+01    5.9109999999999783E+00    3.1351999999999911E+01
             1.4779999999999960E+00    1.4779999999999960E+00    3.3441999999999886E+01
             1.4779999999999960E+00    4.4329999999999874E+00    3.3441999999999886E+01
             1.4779999999999960E+00    7.3889999999999816E+00    3.3441999999999886E+01
             4.4339999999999913E+00    1.4779999999999960E+00    3.3441999999999886E+01
             4.4339999999999913E+00    4.4329999999999874E+00    3.3441999999999886E+01
             4.4339999999999913E+00    7.3889999999999816E+00    3.3441999999999886E+01
             7.1919999999999762E+00    1.4779999999999960E+00    3.3441999999999886E+01
             7.1919999999999762E+00    4.4329999999999874E+00    3.3441999999999886E+01
             7.1919999999999762E+00    7.3889999999999816E+00    3.3441999999999886E+01
             1.0147999999999966E+01    1.4779999999999960E+00    3.3441999999999886E+01
             1.0147999999999966E+01    4.4329999999999874E+00    3.3441999999999886E+01
             1.0147999999999966E+01    7.3889999999999816E+00    3.3441999999999886E+01
             1.3103999999999965E+01    1.4779999999999960E+00    3.3441999999999886E+01
             1.3103999999999965E+01    4.4329999999999874E+00    3.3441999999999886E+01
             1.3103999999999965E+01    7.3889999999999816E+00    3.3441999999999886E+01
       &END COORD
       &VELOCITY
             0.0000000000000000E+00    0.0000000000000000E+00    0.0000000000000000E+00
             0.0000000000000000E+00    0.0000000000000000E+00    0.0000000000000000E+00
             0.0000000000000000E+00    0.0000000000000000E+00    0.0000000000000000E+00
             0.0000000000000000E+00    0.0000000000000000E+00    0.0000000000000000E+00
             0.0000000000000000E+00    0.0000000000000000E+00    0.0000000000000000E+00
             0.0000000000000000E+00    0.0000000000000000E+00    0.0000000000000000E+00
             0.0000000000000000E+00    0.0000000000000000E+00    0.0000000000000000E+00
             0.0000000000000000E+00    0.0000000000000000E+00    0.0000000000000000E+00
             0.0000000000000000E+00    0.0000000000000000E+00    0.0000000000000000E+00
             0.0000000000000000E+00    0.0000000000000000E+00    0.0000000000000000E+00
             0.0000000000000000E+00    0.0000000000000000E+00    0.0000000000000000E+00
             0.0000000000000000E+00    0.0000000000000000E+00    0.0000000000000000E+00
             0.0000000000000000E+00    0.0000000000000000E+00    0.0000000000000000E+00
             0.0000000000000000E+00    0.0000000000000000E+00    0.0000000000000000E+00
             0.0000000000000000E+00    0.0000000000000000E+00    0.0000000000000000E+00
             0.0000000000000000E+00    0.0000000000000000E+00    0.0000000000000000E+00
             0.0000000000000000E+00    0.0000000000000000E+00    0.0000000000000000E+00
             0.0000000000000000E+00    0.0000000000000000E+00    0.0000000000000000E+00
             0.0000000000000000E+00    0.0000000000000000E+00    0.0000000000000000E+00
             0.0000000000000000E+00    0.0000000000000000E+00    0.0000000000000000E+00
             0.0000000000000000E+00    0.0000000000000000E+00    0.0000000000000000E+00
             0.0000000000000000E+00    0.0000000000000000E+00    0.0000000000000000E+00
             0.0000000000000000E+00    0.0000000000000000E+00    0.0000000000000000E+00
             0.0000000000000000E+00    0.0000000000000000E+00    0.0000000000000000E+00
             0.0000000000000000E+00    0.0000000000000000E+00    0.0000000000000000E+00
             0.0000000000000000E+00    0.0000000000000000E+00    0.0000000000000000E+00
             0.0000000000000000E+00    0.0000000000000000E+00    0.0000000000000000E+00
             0.0000000000000000E+00    0.0000000000000000E+00    0.0000000000000000E+00
             0.0000000000000000E+00    0.0000000000000000E+00    0.0000000000000000E+00
             0.0000000000000000E+00    0.0000000000000000E+00    0.0000000000000000E+00
             0.0000000000000000E+00    0.0000000000000000E+00    0.0000000000000000E+00
             0.0000000000000000E+00    0.0000000000000000E+00    0.0000000000000000E+00
             0.0000000000000000E+00    0.0000000000000000E+00    0.0000000000000000E+00
             0.0000000000000000E+00    0.0000000000000000E+00    0.0000000000000000E+00
             0.0000000000000000E+00    0.0000000000000000E+00    0.0000000000000000E+00
             0.0000000000000000E+00    0.0000000000000000E+00    0.0000000000000000E+00
             0.0000000000000000E+00    0.0000000000000000E+00    0.0000000000000000E+00
             0.0000000000000000E+00    0.0000000000000000E+00    0.0000000000000000E+00
             0.0000000000000000E+00    0.0000000000000000E+00    0.0000000000000000E+00
             0.0000000000000000E+00    0.0000000000000000E+00    0.0000000000000000E+00
             0.0000000000000000E+00    0.0000000000000000E+00    0.0000000000000000E+00
             0.0000000000000000E+00    0.0000000000000000E+00    0.0000000000000000E+00
             0.0000000000000000E+00    0.0000000000000000E+00    0.0000000000000000E+00
             0.0000000000000000E+00    0.0000000000000000E+00    0.0000000000000000E+00
             0.0000000000000000E+00    0.0000000000000000E+00    0.0000000000000000E+00
             0.0000000000000000E+00    0.0000000000000000E+00    0.0000000000000000E+00
             0.0000000000000000E+00    0.0000000000000000E+00    0.0000000000000000E+00
             0.0000000000000000E+00    0.0000000000000000E+00    0.0000000000000000E+00
             0.0000000000000000E+00    0.0000000000000000E+00    0.0000000000000000E+00
             0.0000000000000000E+00    0.0000000000000000E+00    0.0000000000000000E+00
             0.0000000000000000E+00    0.0000000000000000E+00    0.0000000000000000E+00
             0.0000000000000000E+00    0.0000000000000000E+00    0.0000000000000000E+00
             0.0000000000000000E+00    0.0000000000000000E+00    0.0000000000000000E+00
             0.0000000000000000E+00    0.0000000000000000E+00    0.0000000000000000E+00
             0.0000000000000000E+00    0.0000000000000000E+00    0.0000000000000000E+00
             0.0000000000000000E+00    0.0000000000000000E+00    0.0000000000000000E+00
             0.0000000000000000E+00    0.0000000000000000E+00    0.0000000000000000E+00
             0.0000000000000000E+00    0.0000000000000000E+00    0.0000000000000000E+00
             0.0000000000000000E+00    0.0000000000000000E+00    0.0000000000000000E+00
             0.0000000000000000E+00    0.0000000000000000E+00    0.0000000000000000E+00
             0.0000000000000000E+00    0.0000000000000000E+00    0.0000000000000000E+00
             0.0000000000000000E+00    0.0000000000000000E+00    0.0000000000000000E+00
             0.0000000000000000E+00    0.0000000000000000E+00    0.0000000000000000E+00
             0.0000000000000000E+00    0.0000000000000000E+00    0.0000000000000000E+00
             0.0000000000000000E+00    0.0000000000000000E+00    0.0000000000000000E+00
             0.0000000000000000E+00    0.0000000000000000E+00    0.0000000000000000E+00
             0.0000000000000000E+00    0.0000000000000000E+00    0.0000000000000000E+00
             0.0000000000000000E+00    0.0000000000000000E+00    0.0000000000000000E+00
             0.0000000000000000E+00    0.0000000000000000E+00    0.0000000000000000E+00
             0.0000000000000000E+00    0.0000000000000000E+00    0.0000000000000000E+00
             0.0000000000000000E+00    0.0000000000000000E+00    0.0000000000000000E+00
             0.0000000000000000E+00    0.0000000000000000E+00    0.0000000000000000E+00
             0.0000000000000000E+00    0.0000000000000000E+00    0.0000000000000000E+00
             0.0000000000000000E+00    0.0000000000000000E+00    0.0000000000000000E+00
             0.0000000000000000E+00    0.0000000000000000E+00    0.0000000000000000E+00
             0.0000000000000000E+00    0.0000000000000000E+00    0.0000000000000000E+00
             0.0000000000000000E+00    0.0000000000000000E+00    0.0000000000000000E+00
             0.0000000000000000E+00    0.0000000000000000E+00    0.0000000000000000E+00
             0.0000000000000000E+00    0.0000000000000000E+00    0.0000000000000000E+00
             0.0000000000000000E+00    0.0000000000000000E+00    0.0000000000000000E+00
             0.0000000000000000E+00    0.0000000000000000E+00    0.0000000000000000E+00
             0.0000000000000000E+00    0.0000000000000000E+00    0.0000000000000000E+00
             0.0000000000000000E+00    0.0000000000000000E+00    0.0000000000000000E+00
             0.0000000000000000E+00    0.0000000000000000E+00    0.0000000000000000E+00
             0.0000000000000000E+00    0.0000000000000000E+00    0.0000000000000000E+00
             0.0000000000000000E+00    0.0000000000000000E+00    0.0000000000000000E+00
             0.0000000000000000E+00    0.0000000000000000E+00    0.0000000000000000E+00
             0.0000000000000000E+00    0.0000000000000000E+00    0.0000000000000000E+00
             0.0000000000000000E+00    0.0000000000000000E+00    0.0000000000000000E+00
             0.0000000000000000E+00    0.0000000000000000E+00    0.0000000000000000E+00
             0.0000000000000000E+00    0.0000000000000000E+00    0.0000000000000000E+00
             0.0000000000000000E+00    0.0000000000000000E+00    0.0000000000000000E+00
             0.0000000000000000E+00    0.0000000000000000E+00    0.0000000000000000E+00
             0.0000000000000000E+00    0.0000000000000000E+00    0.0000000000000000E+00
             0.0000000000000000E+00    0.0000000000000000E+00    0.0000000000000000E+00
             0.0000000000000000E+00    0.0000000000000000E+00    0.0000000000000000E+00
             0.0000000000000000E+00    0.0000000000000000E+00    0.0000000000000000E+00
             0.0000000000000000E+00    0.0000000000000000E+00    0.0000000000000000E+00
             0.0000000000000000E+00    0.0000000000000000E+00    0.0000000000000000E+00
             0.0000000000000000E+00    0.0000000000000000E+00    0.0000000000000000E+00
             0.0000000000000000E+00    0.0000000000000000E+00    0.0000000000000000E+00
             0.0000000000000000E+00    0.0000000000000000E+00    0.0000000000000000E+00
             0.0000000000000000E+00    0.0000000000000000E+00    0.0000000000000000E+00
             0.0000000000000000E+00    0.0000000000000000E+00    0.0000000000000000E+00
             0.0000000000000000E+00    0.0000000000000000E+00    0.0000000000000000E+00
             0.0000000000000000E+00    0.0000000000000000E+00    0.0000000000000000E+00
             0.0000000000000000E+00    0.0000000000000000E+00    0.0000000000000000E+00
             0.0000000000000000E+00    0.0000000000000000E+00    0.0000000000000000E+00
             0.0000000000000000E+00    0.0000000000000000E+00    0.0000000000000000E+00
             0.0000000000000000E+00    0.0000000000000000E+00    0.0000000000000000E+00
             0.0000000000000000E+00    0.0000000000000000E+00    0.0000000000000000E+00
             0.0000000000000000E+00    0.0000000000000000E+00    0.0000000000000000E+00
             0.0000000000000000E+00    0.0000000000000000E+00    0.0000000000000000E+00
             0.0000000000000000E+00    0.0000000000000000E+00    0.0000000000000000E+00
             0.0000000000000000E+00    0.0000000000000000E+00    0.0000000000000000E+00
             0.0000000000000000E+00    0.0000000000000000E+00    0.0000000000000000E+00
             0.0000000000000000E+00    0.0000000000000000E+00    0.0000000000000000E+00
             0.0000000000000000E+00    0.0000000000000000E+00    0.0000000000000000E+00
             0.0000000000000000E+00    0.0000000000000000E+00    0.0000000000000000E+00
             0.0000000000000000E+00    0.0000000000000000E+00    0.0000000000000000E+00
             0.0000000000000000E+00    0.0000000000000000E+00    0.0000000000000000E+00
             0.0000000000000000E+00    0.0000000000000000E+00    0.0000000000000000E+00
             0.0000000000000000E+00    0.0000000000000000E+00    0.0000000000000000E+00
             0.0000000000000000E+00    0.0000000000000000E+00    0.0000000000000000E+00
             0.0000000000000000E+00    0.0000000000000000E+00    0.0000000000000000E+00
             0.0000000000000000E+00    0.0000000000000000E+00    0.0000000000000000E+00
             0.0000000000000000E+00    0.0000000000000000E+00    0.0000000000000000E+00
             0.0000000000000000E+00    0.0000000000000000E+00    0.0000000000000000E+00
             0.0000000000000000E+00    0.0000000000000000E+00    0.0000000000000000E+00
             0.0000000000000000E+00    0.0000000000000000E+00    0.0000000000000000E+00
             0.0000000000000000E+00    0.0000000000000000E+00    0.0000000000000000E+00
             0.0000000000000000E+00    0.0000000000000000E+00    0.0000000000000000E+00
             0.0000000000000000E+00    0.0000000000000000E+00    0.0000000000000000E+00
             0.0000000000000000E+00    0.0000000000000000E+00    0.0000000000000000E+00
             0.0000000000000000E+00    0.0000000000000000E+00    0.0000000000000000E+00
             0.0000000000000000E+00    0.0000000000000000E+00    0.0000000000000000E+00
             0.0000000000000000E+00    0.0000000000000000E+00    0.0000000000000000E+00
             0.0000000000000000E+00    0.0000000000000000E+00    0.0000000000000000E+00
             0.0000000000000000E+00    0.0000000000000000E+00    0.0000000000000000E+00
             0.0000000000000000E+00    0.0000000000000000E+00    0.0000000000000000E+00
             0.0000000000000000E+00    0.0000000000000000E+00    0.0000000000000000E+00
             0.0000000000000000E+00    0.0000000000000000E+00    0.0000000000000000E+00
             0.0000000000000000E+00    0.0000000000000000E+00    0.0000000000000000E+00
             0.0000000000000000E+00    0.0000000000000000E+00    0.0000000000000000E+00
             0.0000000000000000E+00    0.0000000000000000E+00    0.0000000000000000E+00