 # Version information for this restart file 
 # current date 2024-01-12 23:42:09.239
 # current working dir /gpfs/home/cahart/transport/melamine/au_from-h2/ci-neb/ts2-fixed/dft_leads-sz_tip-dzvp_surf-dzvp_kpoints-2-4-20_replicas-7
 # Program compiled at                              Thu 21 Sep 19:20:17 BST 2023
 # Program compiled on                                           hx1-c12-login-1
 # Program compiled for                                                    local
 # Source code revision number                                       git:5518aa6
 &GLOBAL
   EXTENDED_FFT_LENGTHS  T
   PRINT_LEVEL  MEDIUM
   PROJECT_NAME 2_dft_wfn-r-0
   OUTPUT_FILE_NAME 2_dft_wfn-r-0.out
   RUN_TYPE  BAND
 &END GLOBAL
 &MOTION
   &BAND
     NPROC_REP  64
     BAND_TYPE  CI-NEB
     NUMBER_OF_REPLICA  7
     K_SPRING     5.0000000000000003E-02
     &CI_NEB
       NSTEPS_IT  5
     &END CI_NEB
     &OPTIMIZE_BAND
       OPT_TYPE  DIIS
       &DIIS
         MAX_STEPS  1000
       &END DIIS
     &END OPTIMIZE_BAND
     &REPLICA
       &COORD
             0.0000000000000000E+00    0.0000000000000000E+00    0.0000000000000000E+00
             0.0000000000000000E+00    2.9549999999999916E+00    0.0000000000000000E+00
             0.0000000000000000E+00    5.9109999999999721E+00    0.0000000000000000E+00
             2.9559999999999880E+00    0.0000000000000000E+00    0.0000000000000000E+00
             2.9559999999999880E+00    2.9549999999999916E+00    0.0000000000000000E+00
             2.9559999999999880E+00    5.9109999999999721E+00    0.0000000000000000E+00
             5.9119999999999759E+00    0.0000000000000000E+00    0.0000000000000000E+00
             5.9119999999999759E+00    2.9549999999999916E+00    0.0000000000000000E+00
             5.9119999999999759E+00    5.9109999999999721E+00    0.0000000000000000E+00
             8.6699999999999644E+00    0.0000000000000000E+00    0.0000000000000000E+00
             8.6699999999999644E+00    2.9549999999999916E+00    0.0000000000000000E+00
             8.6699999999999644E+00    5.9109999999999721E+00    0.0000000000000000E+00
             1.1625999999999951E+01    0.0000000000000000E+00    0.0000000000000000E+00
             1.1625999999999951E+01    2.9549999999999916E+00    0.0000000000000000E+00
             1.1625999999999951E+01    5.9109999999999721E+00    0.0000000000000000E+00
             1.4779999999999940E+00    1.4779999999999940E+00    2.0899999999999901E+00
             1.4779999999999940E+00    4.4329999999999812E+00    2.0899999999999901E+00
             1.4779999999999940E+00    7.3889999999999754E+00    2.0899999999999901E+00
             4.4339999999999860E+00    1.4779999999999940E+00    2.0899999999999901E+00
             4.4339999999999860E+00    4.4329999999999812E+00    2.0899999999999901E+00
             4.4339999999999860E+00    7.3889999999999754E+00    2.0899999999999901E+00
             7.1919999999999682E+00    1.4779999999999940E+00    2.0899999999999901E+00
             7.1919999999999682E+00    4.4329999999999812E+00    2.0899999999999901E+00
             7.1919999999999682E+00    7.3889999999999754E+00    2.0899999999999901E+00
             1.0147999999999955E+01    1.4779999999999940E+00    2.0899999999999901E+00
             1.0147999999999955E+01    4.4329999999999812E+00    2.0899999999999901E+00
             1.0147999999999955E+01    7.3889999999999754E+00    2.0899999999999901E+00
             1.3103999999999946E+01    1.4779999999999940E+00    2.0899999999999901E+00
             1.3103999999999946E+01    4.4329999999999812E+00    2.0899999999999901E+00
             1.3103999999999946E+01    7.3889999999999754E+00    2.0899999999999901E+00
             0.0000000000000000E+00    0.0000000000000000E+00    4.1799999999999802E+00
             0.0000000000000000E+00    2.9549999999999916E+00    4.1799999999999802E+00
             0.0000000000000000E+00    5.9109999999999721E+00    4.1799999999999802E+00
             2.9559999999999880E+00    0.0000000000000000E+00    4.1799999999999802E+00
             2.9559999999999880E+00    2.9549999999999916E+00    4.1799999999999802E+00
             2.9559999999999880E+00    5.9109999999999721E+00    4.1799999999999802E+00
             5.9119999999999759E+00    0.0000000000000000E+00    4.1799999999999802E+00
             5.9119999999999759E+00    2.9549999999999916E+00    4.1799999999999802E+00
             5.9119999999999759E+00    5.9109999999999721E+00    4.1799999999999802E+00
             8.6699999999999644E+00    0.0000000000000000E+00    4.1799999999999802E+00
             8.6699999999999644E+00    2.9549999999999916E+00    4.1799999999999802E+00
             8.6699999999999644E+00    5.9109999999999721E+00    4.1799999999999802E+00
             1.1625999999999951E+01    0.0000000000000000E+00    4.1799999999999802E+00
             1.1625999999999951E+01    2.9549999999999916E+00    4.1799999999999802E+00
             1.1625999999999951E+01    5.9109999999999721E+00    4.1799999999999802E+00
             1.4779999999999940E+00    1.4779999999999940E+00    6.2699999999999791E+00
             1.4779999999999940E+00    4.4329999999999812E+00    6.2699999999999791E+00
             1.4779999999999940E+00    7.3889999999999754E+00    6.2699999999999791E+00
             4.4339999999999860E+00    1.4779999999999940E+00    6.2699999999999791E+00
             4.4339999999999860E+00    4.4329999999999812E+00    6.2699999999999791E+00
             4.4339999999999860E+00    7.3889999999999754E+00    6.2699999999999791E+00
             7.1919999999999682E+00    1.4779999999999940E+00    6.2699999999999791E+00
             7.1919999999999682E+00    4.4329999999999812E+00    6.2699999999999791E+00
             7.1919999999999682E+00    7.3889999999999754E+00    6.2699999999999791E+00
             1.0147999999999955E+01    1.4779999999999940E+00    6.2699999999999791E+00
             1.0147999999999955E+01    4.4329999999999812E+00    6.2699999999999791E+00
             1.0147999999999955E+01    7.3889999999999754E+00    6.2699999999999791E+00
             1.3103999999999946E+01    1.4779999999999940E+00    6.2699999999999791E+00
             1.3103999999999946E+01    4.4329999999999812E+00    6.2699999999999791E+00
             1.3103999999999946E+01    7.3889999999999754E+00    6.2699999999999791E+00
             0.0000000000000000E+00    0.0000000000000000E+00    8.3599999999999604E+00
             0.0000000000000000E+00    2.9549999999999916E+00    8.3599999999999604E+00
             0.0000000000000000E+00    5.9109999999999721E+00    8.3599999999999604E+00
             2.9559999999999880E+00    0.0000000000000000E+00    8.3599999999999604E+00
             2.9559999999999880E+00    2.9549999999999916E+00    8.3599999999999604E+00
             2.9559999999999880E+00    5.9109999999999721E+00    8.3599999999999604E+00
             5.9119999999999759E+00    0.0000000000000000E+00    8.3599999999999604E+00
             5.9119999999999759E+00    2.9549999999999916E+00    8.3599999999999604E+00
             5.9119999999999759E+00    5.9109999999999721E+00    8.3599999999999604E+00
             8.6699999999999644E+00    0.0000000000000000E+00    8.3599999999999604E+00
             8.6699999999999644E+00    2.9549999999999916E+00    8.3599999999999604E+00
             8.6699999999999644E+00    5.9109999999999721E+00    8.3599999999999604E+00
             1.1625999999999951E+01    0.0000000000000000E+00    8.3599999999999604E+00
             1.1625999999999951E+01    2.9549999999999916E+00    8.3599999999999604E+00
             1.1625999999999951E+01    5.9109999999999721E+00    8.3599999999999604E+00
             1.4779999999999940E+00    1.4779999999999940E+00    1.0449999999999942E+01
             1.4779999999999940E+00    4.4329999999999812E+00    1.0449999999999942E+01
             1.4779999999999940E+00    7.3889999999999754E+00    1.0449999999999942E+01
             4.4339999999999860E+00    1.4779999999999940E+00    1.0449999999999942E+01
             4.4339999999999860E+00    4.4329999999999812E+00    1.0449999999999942E+01
             4.4339999999999860E+00    7.3889999999999754E+00    1.0449999999999942E+01
             7.1919999999999682E+00    1.4779999999999940E+00    1.0449999999999942E+01
             7.1919999999999682E+00    4.4329999999999812E+00    1.0449999999999942E+01
             7.1919999999999682E+00    7.3889999999999754E+00    1.0449999999999942E+01
             1.0147999999999955E+01    1.4779999999999940E+00    1.0449999999999942E+01
             1.0147999999999955E+01    4.4329999999999812E+00    1.0449999999999942E+01
             1.0147999999999955E+01    7.3889999999999754E+00    1.0449999999999942E+01
             1.3103999999999946E+01    1.4779999999999940E+00    1.0449999999999942E+01
             1.3103999999999946E+01    4.4329999999999812E+00    1.0449999999999942E+01
             1.3103999999999946E+01    7.3889999999999754E+00    1.0449999999999942E+01
             4.8553999999999826E+00    5.9118999999999780E+00    1.2031799999999947E+01
             9.5279999999999685E+00    5.9136999999999817E+00    1.2033999999999960E+01
             7.1919999999999682E+00    5.9339999999999833E+00    1.2039999999999955E+01
             4.0673339927999850E+00    5.9059993219999747E+00    1.2687741368899955E+01
             1.0318905404799949E+01    5.9087793825999855E+00    1.2685747073199938E+01
             5.9989554221999750E+00    5.9152564165999726E+00    1.2792642411199953E+01
             8.3738707292999734E+00    5.9179777706999790E+00    1.2731457252199945E+01
             8.3227525761999779E+00    5.9051536094999832E+00    1.4080497642099939E+01
             5.9344285048999783E+00    5.8981604864999726E+00    1.4101749969599943E+01
             7.1039653576999662E+00    5.8899410688999740E+00    1.4828703219099946E+01
             7.2416021046999850E+00    5.8657702091999715E+00    1.6106466757299923E+01
             6.3118250322999749E+00    5.8547577070999788E+00    1.6539601306199941E+01
             9.1743570612999683E+00    5.8876302391999760E+00    1.4641017735299927E+01
             7.3119999999999701E+00    5.9339999999999833E+00    2.1042999999999928E+01
             5.8129999999999757E+00    7.4339999999999673E+00    2.2991999999999909E+01
             8.8129999999999651E+00    4.4339999999999860E+00    2.2991999999999909E+01
             5.8129999999999757E+00    4.4329999999999812E+00    2.2991999999999909E+01
             8.8129999999999651E+00    7.4339999999999673E+00    2.2991999999999909E+01
             1.4779999999999940E+00    1.4779999999999940E+00    2.5081999999999894E+01
             1.4779999999999940E+00    4.4329999999999812E+00    2.5081999999999894E+01
             1.4779999999999940E+00    7.3889999999999754E+00    2.5081999999999894E+01
             4.4339999999999860E+00    1.4779999999999940E+00    2.5081999999999894E+01
             4.4339999999999860E+00    4.4329999999999812E+00    2.5081999999999894E+01
             4.4339999999999860E+00    7.3889999999999754E+00    2.5081999999999894E+01
             7.1919999999999682E+00    1.4779999999999940E+00    2.5081999999999894E+01
             7.1919999999999682E+00    4.4329999999999812E+00    2.5081999999999894E+01
             7.1919999999999682E+00    7.3889999999999754E+00    2.5081999999999894E+01
             1.0147999999999955E+01    1.4779999999999940E+00    2.5081999999999894E+01
             1.0147999999999955E+01    4.4329999999999812E+00    2.5081999999999894E+01
             1.0147999999999955E+01    7.3889999999999754E+00    2.5081999999999894E+01
             1.3103999999999946E+01    1.4779999999999940E+00    2.5081999999999894E+01
             1.3103999999999946E+01    4.4329999999999812E+00    2.5081999999999894E+01
             1.3103999999999946E+01    7.3889999999999754E+00    2.5081999999999894E+01
             0.0000000000000000E+00    0.0000000000000000E+00    2.7171999999999933E+01
             0.0000000000000000E+00    2.9549999999999916E+00    2.7171999999999933E+01
             0.0000000000000000E+00    5.9109999999999721E+00    2.7171999999999933E+01
             2.9559999999999880E+00    0.0000000000000000E+00    2.7171999999999933E+01
             2.9559999999999880E+00    2.9549999999999916E+00    2.7171999999999933E+01
             2.9559999999999880E+00    5.9109999999999721E+00    2.7171999999999933E+01
             5.9119999999999759E+00    0.0000000000000000E+00    2.7171999999999933E+01
             5.9119999999999759E+00    2.9549999999999916E+00    2.7171999999999933E+01
             5.9119999999999759E+00    5.9109999999999721E+00    2.7171999999999933E+01
             8.6699999999999644E+00    0.0000000000000000E+00    2.7171999999999933E+01
             8.6699999999999644E+00    2.9549999999999916E+00    2.7171999999999933E+01
             8.6699999999999644E+00    5.9109999999999721E+00    2.7171999999999933E+01
             1.1625999999999951E+01    0.0000000000000000E+00    2.7171999999999933E+01
             1.1625999999999951E+01    2.9549999999999916E+00    2.7171999999999933E+01
             1.1625999999999951E+01    5.9109999999999721E+00    2.7171999999999933E+01
             1.4779999999999940E+00    1.4779999999999940E+00    2.9261999999999894E+01
             1.4779999999999940E+00    4.4329999999999812E+00    2.9261999999999894E+01
             1.4779999999999940E+00    7.3889999999999754E+00    2.9261999999999894E+01
             4.4339999999999860E+00    1.4779999999999940E+00    2.9261999999999894E+01
             4.4339999999999860E+00    4.4329999999999812E+00    2.9261999999999894E+01
             4.4339999999999860E+00    7.3889999999999754E+00    2.9261999999999894E+01
             7.1919999999999682E+00    1.4779999999999940E+00    2.9261999999999894E+01
             7.1919999999999682E+00    4.4329999999999812E+00    2.9261999999999894E+01
             7.1919999999999682E+00    7.3889999999999754E+00    2.9261999999999894E+01
             1.0147999999999955E+01    1.4779999999999940E+00    2.9261999999999894E+01
             1.0147999999999955E+01    4.4329999999999812E+00    2.9261999999999894E+01
             1.0147999999999955E+01    7.3889999999999754E+00    2.9261999999999894E+01
             1.3103999999999946E+01    1.4779999999999940E+00    2.9261999999999894E+01
             1.3103999999999946E+01    4.4329999999999812E+00    2.9261999999999894E+01
             1.3103999999999946E+01    7.3889999999999754E+00    2.9261999999999894E+01
             0.0000000000000000E+00    0.0000000000000000E+00    3.1351999999999876E+01
             0.0000000000000000E+00    2.9549999999999916E+00    3.1351999999999876E+01
             0.0000000000000000E+00    5.9109999999999721E+00    3.1351999999999876E+01
             2.9559999999999880E+00    0.0000000000000000E+00    3.1351999999999876E+01
             2.9559999999999880E+00    2.9549999999999916E+00    3.1351999999999876E+01
             2.9559999999999880E+00    5.9109999999999721E+00    3.1351999999999876E+01
             5.9119999999999759E+00    0.0000000000000000E+00    3.1351999999999876E+01
             5.9119999999999759E+00    2.9549999999999916E+00    3.1351999999999876E+01
             5.9119999999999759E+00    5.9109999999999721E+00    3.1351999999999876E+01
             8.6699999999999644E+00    0.0000000000000000E+00    3.1351999999999876E+01
             8.6699999999999644E+00    2.9549999999999916E+00    3.1351999999999876E+01
             8.6699999999999644E+00    5.9109999999999721E+00    3.1351999999999876E+01
             1.1625999999999951E+01    0.0000000000000000E+00    3.1351999999999876E+01
             1.1625999999999951E+01    2.9549999999999916E+00    3.1351999999999876E+01
             1.1625999999999951E+01    5.9109999999999721E+00    3.1351999999999876E+01
             1.4779999999999940E+00    1.4779999999999940E+00    3.3441999999999872E+01
             1.4779999999999940E+00    4.4329999999999812E+00    3.3441999999999872E+01
             1.4779999999999940E+00    7.3889999999999754E+00    3.3441999999999872E+01
             4.4339999999999860E+00    1.4779999999999940E+00    3.3441999999999872E+01
             4.4339999999999860E+00    4.4329999999999812E+00    3.3441999999999872E+01
             4.4339999999999860E+00    7.3889999999999754E+00    3.3441999999999872E+01
             7.1919999999999682E+00    1.4779999999999940E+00    3.3441999999999872E+01
             7.1919999999999682E+00    4.4329999999999812E+00    3.3441999999999872E+01
             7.1919999999999682E+00    7.3889999999999754E+00    3.3441999999999872E+01
             1.0147999999999955E+01    1.4779999999999940E+00    3.3441999999999872E+01
             1.0147999999999955E+01    4.4329999999999812E+00    3.3441999999999872E+01
             1.0147999999999955E+01    7.3889999999999754E+00    3.3441999999999872E+01
             1.3103999999999946E+01    1.4779999999999940E+00    3.3441999999999872E+01
             1.3103999999999946E+01    4.4329999999999812E+00    3.3441999999999872E+01
             1.3103999999999946E+01    7.3889999999999754E+00    3.3441999999999872E+01
       &END COORD
       &VELOCITY
             0.0000000000000000E+00    0.0000000000000000E+00    0.0000000000000000E+00
             0.0000000000000000E+00    0.0000000000000000E+00    0.0000000000000000E+00
             0.0000000000000000E+00    0.0000000000000000E+00    0.0000000000000000E+00
             0.0000000000000000E+00    0.0000000000000000E+00    0.0000000000000000E+00
             0.0000000000000000E+00    0.0000000000000000E+00    0.0000000000000000E+00
             0.0000000000000000E+00    0.0000000000000000E+00    0.0000000000000000E+00
             0.0000000000000000E+00    0.0000000000000000E+00    0.0000000000000000E+00
             0.0000000000000000E+00    0.0000000000000000E+00    0.0000000000000000E+00
             0.0000000000000000E+00    0.0000000000000000E+00    0.0000000000000000E+00
             0.0000000000000000E+00    0.0000000000000000E+00    0.0000000000000000E+00
             0.0000000000000000E+00    0.0000000000000000E+00    0.0000000000000000E+00
             0.0000000000000000E+00    0.0000000000000000E+00    0.0000000000000000E+00
             0.0000000000000000E+00    0.0000000000000000E+00    0.0000000000000000E+00
             0.0000000000000000E+00    0.0000000000000000E+00    0.0000000000000000E+00
             0.0000000000000000E+00    0.0000000000000000E+00    0.0000000000000000E+00
             0.0000000000000000E+00    0.0000000000000000E+00    0.0000000000000000E+00
             0.0000000000000000E+00    0.0000000000000000E+00    0.0000000000000000E+00
             0.0000000000000000E+00    0.0000000000000000E+00    0.0000000000000000E+00
             0.0000000000000000E+00    0.0000000000000000E+00    0.0000000000000000E+00
             0.0000000000000000E+00    0.0000000000000000E+00    0.0000000000000000E+00
             0.0000000000000000E+00    0.0000000000000000E+00    0.0000000000000000E+00
             0.0000000000000000E+00    0.0000000000000000E+00    0.0000000000000000E+00
             0.0000000000000000E+00    0.0000000000000000E+00    0.0000000000000000E+00
             0.0000000000000000E+00    0.0000000000000000E+00    0.0000000000000000E+00
             0.0000000000000000E+00    0.0000000000000000E+00    0.0000000000000000E+00
             0.0000000000000000E+00    0.0000000000000000E+00    0.0000000000000000E+00
             0.0000000000000000E+00    0.0000000000000000E+00    0.0000000000000000E+00
             0.0000000000000000E+00    0.0000000000000000E+00    0.0000000000000000E+00
             0.0000000000000000E+00    0.0000000000000000E+00    0.0000000000000000E+00
             0.0000000000000000E+00    0.0000000000000000E+00    0.0000000000000000E+00
             0.0000000000000000E+00    0.0000000000000000E+00    0.0000000000000000E+00
             0.0000000000000000E+00    0.0000000000000000E+00    0.0000000000000000E+00
             0.0000000000000000E+00    0.0000000000000000E+00    0.0000000000000000E+00
             0.0000000000000000E+00    0.0000000000000000E+00    0.0000000000000000E+00
             0.0000000000000000E+00    0.0000000000000000E+00    0.0000000000000000E+00
             0.0000000000000000E+00    0.0000000000000000E+00    0.0000000000000000E+00
             0.0000000000000000E+00    0.0000000000000000E+00    0.0000000000000000E+00
             0.0000000000000000E+00    0.0000000000000000E+00    0.0000000000000000E+00
             0.0000000000000000E+00    0.0000000000000000E+00    0.0000000000000000E+00
             0.0000000000000000E+00    0.0000000000000000E+00    0.0000000000000000E+00
             0.0000000000000000E+00    0.0000000000000000E+00    0.0000000000000000E+00
             0.0000000000000000E+00    0.0000000000000000E+00    0.0000000000000000E+00
             0.0000000000000000E+00    0.0000000000000000E+00    0.0000000000000000E+00
             0.0000000000000000E+00    0.0000000000000000E+00    0.0000000000000000E+00
             0.0000000000000000E+00    0.0000000000000000E+00    0.0000000000000000E+00
             0.0000000000000000E+00    0.0000000000000000E+00    0.0000000000000000E+00
             0.0000000000000000E+00    0.0000000000000000E+00    0.0000000000000000E+00
             0.0000000000000000E+00    0.0000000000000000E+00    0.0000000000000000E+00
             0.0000000000000000E+00    0.0000000000000000E+00    0.0000000000000000E+00
             0.0000000000000000E+00    0.0000000000000000E+00    0.0000000000000000E+00
             0.0000000000000000E+00    0.0000000000000000E+00    0.0000000000000000E+00
             0.0000000000000000E+00    0.0000000000000000E+00    0.0000000000000000E+00
             0.0000000000000000E+00    0.0000000000000000E+00    0.0000000000000000E+00
             0.0000000000000000E+00    0.0000000000000000E+00    0.0000000000000000E+00
             0.0000000000000000E+00    0.0000000000000000E+00    0.0000000000000000E+00
             0.0000000000000000E+00    0.0000000000000000E+00    0.0000000000000000E+00
             0.0000000000000000E+00    0.0000000000000000E+00    0.0000000000000000E+00
             0.0000000000000000E+00    0.0000000000000000E+00    0.0000000000000000E+00
             0.0000000000000000E+00    0.0000000000000000E+00    0.0000000000000000E+00
             0.0000000000000000E+00    0.0000000000000000E+00    0.0000000000000000E+00
             0.0000000000000000E+00    0.0000000000000000E+00    0.0000000000000000E+00
             0.0000000000000000E+00    0.0000000000000000E+00    0.0000000000000000E+00
             0.0000000000000000E+00    0.0000000000000000E+00    0.0000000000000000E+00
             0.0000000000000000E+00    0.0000000000000000E+00    0.0000000000000000E+00
             0.0000000000000000E+00    0.0000000000000000E+00    0.0000000000000000E+00
             0.0000000000000000E+00    0.0000000000000000E+00    0.0000000000000000E+00
             0.0000000000000000E+00    0.0000000000000000E+00    0.0000000000000000E+00
             0.0000000000000000E+00    0.0000000000000000E+00    0.0000000000000000E+00
             0.0000000000000000E+00    0.0000000000000000E+00    0.0000000000000000E+00
             0.0000000000000000E+00    0.0000000000000000E+00    0.0000000000000000E+00
             0.0000000000000000E+00    0.0000000000000000E+00    0.0000000000000000E+00
             0.0000000000000000E+00    0.0000000000000000E+00    0.0000000000000000E+00
             0.0000000000000000E+00    0.0000000000000000E+00    0.0000000000000000E+00
             0.0000000000000000E+00    0.0000000000000000E+00    0.0000000000000000E+00
             0.0000000000000000E+00    0.0000000000000000E+00    0.0000000000000000E+00
             0.0000000000000000E+00    0.0000000000000000E+00    0.0000000000000000E+00
             0.0000000000000000E+00    0.0000000000000000E+00    0.0000000000000000E+00
             0.0000000000000000E+00    0.0000000000000000E+00    0.0000000000000000E+00
             0.0000000000000000E+00    0.0000000000000000E+00    0.0000000000000000E+00
             0.0000000000000000E+00    0.0000000000000000E+00    0.0000000000000000E+00
             0.0000000000000000E+00    0.0000000000000000E+00    0.0000000000000000E+00
             0.0000000000000000E+00    0.0000000000000000E+00    0.0000000000000000E+00
             0.0000000000000000E+00    0.0000000000000000E+00    0.0000000000000000E+00
             0.0000000000000000E+00    0.0000000000000000E+00    0.0000000000000000E+00
             0.0000000000000000E+00    0.0000000000000000E+00    0.0000000000000000E+00
             0.0000000000000000E+00    0.0000000000000000E+00    0.0000000000000000E+00
             0.0000000000000000E+00    0.0000000000000000E+00    0.0000000000000000E+00
             0.0000000000000000E+00    0.0000000000000000E+00    0.0000000000000000E+00
             0.0000000000000000E+00    0.0000000000000000E+00    0.0000000000000000E+00
             0.0000000000000000E+00    0.0000000000000000E+00    0.0000000000000000E+00
             0.0000000000000000E+00    0.0000000000000000E+00    0.0000000000000000E+00
             0.0000000000000000E+00    0.0000000000000000E+00    0.0000000000000000E+00
             0.0000000000000000E+00    0.0000000000000000E+00    0.0000000000000000E+00
             0.0000000000000000E+00    0.0000000000000000E+00    0.0000000000000000E+00
             0.0000000000000000E+00    0.0000000000000000E+00    0.0000000000000000E+00
             0.0000000000000000E+00    0.0000000000000000E+00    0.0000000000000000E+00
             0.0000000000000000E+00    0.0000000000000000E+00    0.0000000000000000E+00
             0.0000000000000000E+00    0.0000000000000000E+00    0.0000000000000000E+00
             0.0000000000000000E+00    0.0000000000000000E+00    0.0000000000000000E+00
             0.0000000000000000E+00    0.0000000000000000E+00    0.0000000000000000E+00
             0.0000000000000000E+00    0.0000000000000000E+00    0.0000000000000000E+00
             0.0000000000000000E+00    0.0000000000000000E+00    0.0000000000000000E+00
             0.0000000000000000E+00    0.0000000000000000E+00    0.0000000000000000E+00
             0.0000000000000000E+00    0.0000000000000000E+00    0.0000000000000000E+00
             0.0000000000000000E+00    0.0000000000000000E+00    0.0000000000000000E+00
             0.0000000000000000E+00    0.0000000000000000E+00    0.0000000000000000E+00
             0.0000000000000000E+00    0.0000000000000000E+00    0.0000000000000000E+00
             0.0000000000000000E+00    0.0000000000000000E+00    0.0000000000000000E+00
             0.0000000000000000E+00    0.0000000000000000E+00    0.0000000000000000E+00
             0.0000000000000000E+00    0.0000000000000000E+00    0.0000000000000000E+00
             0.0000000000000000E+00    0.0000000000000000E+00    0.0000000000000000E+00
             0.0000000000000000E+00    0.0000000000000000E+00    0.0000000000000000E+00
             0.0000000000000000E+00    0.0000000000000000E+00    0.0000000000000000E+00
             0.0000000000000000E+00    0.0000000000000000E+00    0.0000000000000000E+00
             0.0000000000000000E+00    0.0000000000000000E+00    0.0000000000000000E+00
             0.0000000000000000E+00    0.0000000000000000E+00    0.0000000000000000E+00
             0.0000000000000000E+00    0.0000000000000000E+00    0.0000000000000000E+00
             0.0000000000000000E+00    0.0000000000000000E+00    0.0000000000000000E+00
             0.0000000000000000E+00    0.0000000000000000E+00    0.0000000000000000E+00
             0.0000000000000000E+00    0.0000000000000000E+00    0.0000000000000000E+00
             0.0000000000000000E+00    0.0000000000000000E+00    0.0000000000000000E+00
             0.0000000000000000E+00    0.0000000000000000E+00    0.0000000000000000E+00
             0.0000000000000000E+00    0.0000000000000000E+00    0.0000000000000000E+00
             0.0000000000000000E+00    0.0000000000000000E+00    0.0000000000000000E+00
             0.0000000000000000E+00    0.0000000000000000E+00    0.0000000000000000E+00
             0.0000000000000000E+00    0.0000000000000000E+00    0.0000000000000000E+00
             0.0000000000000000E+00    0.0000000000000000E+00    0.0000000000000000E+00
             0.0000000000000000E+00    0.0000000000000000E+00    0.0000000000000000E+00
             0.0000000000000000E+00    0.0000000000000000E+00    0.0000000000000000E+00
             0.0000000000000000E+00    0.0000000000000000E+00    0.0000000000000000E+00
             0.0000000000000000E+00    0.0000000000000000E+00    0.0000000000000000E+00
             0.0000000000000000E+00    0.0000000000000000E+00    0.0000000000000000E+00
             0.0000000000000000E+00    0.0000000000000000E+00    0.0000000000000000E+00
             0.0000000000000000E+00    0.0000000000000000E+00    0.0000000000000000E+00
             0.0000000000000000E+00    0.0000000000000000E+00    0.0000000000000000E+00
             0.0000000000000000E+00    0.0000000000000000E+00    0.0000000000000000E+00
             0.0000000000000000E+00    0.0000000000000000E+00    0.0000000000000000E+00
             0.0000000000000000E+00    0.0000000000000000E+00    0.0000000000000000E+00
             0.0000000000000000E+00    0.0000000000000000E+00    0.0000000000000000E+00
             0.0000000000000000E+00    0.0000000000000000E+00    0.0000000000000000E+00
             0.0000000000000000E+00    0.0000000000000000E+00    0.0000000000000000E+00
             0.0000000000000000E+00    0.0000000000000000E+00    0.0000000000000000E+00
             0.0000000000000000E+00    0.0000000000000000E+00    0.0000000000000000E+00
             0.0000000000000000E+00    0.0000000000000000E+00    0.0000000000000000E+00
             0.0000000000000000E+00    0.0000000000000000E+00    0.0000000000000000E+00