 # Version information for this restart file 
 # current date 2024-01-12 22:32:24.476
 # current working dir /gpfs/home/cahart/transport/melamine/au_from-h2/ci-neb/ts2-fixed/dft_leads-sz_tip-dzvp_surf-dzvp_kpoints-2-4-20_replicas-7
 # Program compiled at                              Thu 21 Sep 19:20:17 BST 2023
 # Program compiled on                                           hx1-c12-login-1
 # Program compiled for                                                    local
 # Source code revision number                                       git:5518aa6
 &GLOBAL
   EXTENDED_FFT_LENGTHS  T
   PRINT_LEVEL  MEDIUM
   PROJECT_NAME 2_dft_wfn-r-0
   OUTPUT_FILE_NAME 2_dft_wfn-r-0.out
   RUN_TYPE  BAND
 &END GLOBAL
 &MOTION
   &BAND
     NPROC_REP  64
     BAND_TYPE  CI-NEB
     NUMBER_OF_REPLICA  7
     K_SPRING     5.0000000000000003E-02
     &CI_NEB
       NSTEPS_IT  5
     &END CI_NEB
     &OPTIMIZE_BAND
       OPT_TYPE  DIIS
       &DIIS
         MAX_STEPS  1000
       &END DIIS
     &END OPTIMIZE_BAND
     &REPLICA
       &COORD
             0.0000000000000000E+00    0.0000000000000000E+00    0.0000000000000000E+00
             0.0000000000000000E+00    2.9549999999999921E+00    0.0000000000000000E+00
             0.0000000000000000E+00    5.9109999999999765E+00    0.0000000000000000E+00
             2.9559999999999915E+00    0.0000000000000000E+00    0.0000000000000000E+00
             2.9559999999999915E+00    2.9549999999999921E+00    0.0000000000000000E+00
             2.9559999999999915E+00    5.9109999999999765E+00    0.0000000000000000E+00
             5.9119999999999830E+00    0.0000000000000000E+00    0.0000000000000000E+00
             5.9119999999999830E+00    2.9549999999999921E+00    0.0000000000000000E+00
             5.9119999999999830E+00    5.9109999999999765E+00    0.0000000000000000E+00
             8.6699999999999768E+00    0.0000000000000000E+00    0.0000000000000000E+00
             8.6699999999999768E+00    2.9549999999999921E+00    0.0000000000000000E+00
             8.6699999999999768E+00    5.9109999999999765E+00    0.0000000000000000E+00
             1.1625999999999962E+01    0.0000000000000000E+00    0.0000000000000000E+00
             1.1625999999999962E+01    2.9549999999999921E+00    0.0000000000000000E+00
             1.1625999999999962E+01    5.9109999999999765E+00    0.0000000000000000E+00
             1.4779999999999958E+00    1.4779999999999958E+00    2.0899999999999928E+00
             1.4779999999999958E+00    4.4329999999999856E+00    2.0899999999999928E+00
             1.4779999999999958E+00    7.3889999999999798E+00    2.0899999999999928E+00
             4.4339999999999913E+00    1.4779999999999958E+00    2.0899999999999928E+00
             4.4339999999999913E+00    4.4329999999999856E+00    2.0899999999999928E+00
             4.4339999999999913E+00    7.3889999999999798E+00    2.0899999999999928E+00
             7.1919999999999744E+00    1.4779999999999958E+00    2.0899999999999928E+00
             7.1919999999999744E+00    4.4329999999999856E+00    2.0899999999999928E+00
             7.1919999999999744E+00    7.3889999999999798E+00    2.0899999999999928E+00
             1.0147999999999962E+01    1.4779999999999958E+00    2.0899999999999928E+00
             1.0147999999999962E+01    4.4329999999999856E+00    2.0899999999999928E+00
             1.0147999999999962E+01    7.3889999999999798E+00    2.0899999999999928E+00
             1.3103999999999962E+01    1.4779999999999958E+00    2.0899999999999928E+00
             1.3103999999999962E+01    4.4329999999999856E+00    2.0899999999999928E+00
             1.3103999999999962E+01    7.3889999999999798E+00    2.0899999999999928E+00
             0.0000000000000000E+00    0.0000000000000000E+00    4.1799999999999855E+00
             0.0000000000000000E+00    2.9549999999999921E+00    4.1799999999999855E+00
             0.0000000000000000E+00    5.9109999999999765E+00    4.1799999999999855E+00
             2.9559999999999915E+00    0.0000000000000000E+00    4.1799999999999855E+00
             2.9559999999999915E+00    2.9549999999999921E+00    4.1799999999999855E+00
             2.9559999999999915E+00    5.9109999999999765E+00    4.1799999999999855E+00
             5.9119999999999830E+00    0.0000000000000000E+00    4.1799999999999855E+00
             5.9119999999999830E+00    2.9549999999999921E+00    4.1799999999999855E+00
             5.9119999999999830E+00    5.9109999999999765E+00    4.1799999999999855E+00
             8.6699999999999768E+00    0.0000000000000000E+00    4.1799999999999855E+00
             8.6699999999999768E+00    2.9549999999999921E+00    4.1799999999999855E+00
             8.6699999999999768E+00    5.9109999999999765E+00    4.1799999999999855E+00
             1.1625999999999962E+01    0.0000000000000000E+00    4.1799999999999855E+00
             1.1625999999999962E+01    2.9549999999999921E+00    4.1799999999999855E+00
             1.1625999999999962E+01    5.9109999999999765E+00    4.1799999999999855E+00
             1.4779999999999958E+00    1.4779999999999958E+00    6.2699999999999809E+00
             1.4779999999999958E+00    4.4329999999999856E+00    6.2699999999999809E+00
             1.4779999999999958E+00    7.3889999999999798E+00    6.2699999999999809E+00
             4.4339999999999913E+00    1.4779999999999958E+00    6.2699999999999809E+00
             4.4339999999999913E+00    4.4329999999999856E+00    6.2699999999999809E+00
             4.4339999999999913E+00    7.3889999999999798E+00    6.2699999999999809E+00
             7.1919999999999744E+00    1.4779999999999958E+00    6.2699999999999809E+00
             7.1919999999999744E+00    4.4329999999999856E+00    6.2699999999999809E+00
             7.1919999999999744E+00    7.3889999999999798E+00    6.2699999999999809E+00
             1.0147999999999962E+01    1.4779999999999958E+00    6.2699999999999809E+00
             1.0147999999999962E+01    4.4329999999999856E+00    6.2699999999999809E+00
             1.0147999999999962E+01    7.3889999999999798E+00    6.2699999999999809E+00
             1.3103999999999962E+01    1.4779999999999958E+00    6.2699999999999809E+00
             1.3103999999999962E+01    4.4329999999999856E+00    6.2699999999999809E+00
             1.3103999999999962E+01    7.3889999999999798E+00    6.2699999999999809E+00
             0.0000000000000000E+00    0.0000000000000000E+00    8.3599999999999710E+00
             0.0000000000000000E+00    2.9549999999999921E+00    8.3599999999999710E+00
             0.0000000000000000E+00    5.9109999999999765E+00    8.3599999999999710E+00
             2.9559999999999915E+00    0.0000000000000000E+00    8.3599999999999710E+00
             2.9559999999999915E+00    2.9549999999999921E+00    8.3599999999999710E+00
             2.9559999999999915E+00    5.9109999999999765E+00    8.3599999999999710E+00
             5.9119999999999830E+00    0.0000000000000000E+00    8.3599999999999710E+00
             5.9119999999999830E+00    2.9549999999999921E+00    8.3599999999999710E+00
             5.9119999999999830E+00    5.9109999999999765E+00    8.3599999999999710E+00
             8.6699999999999768E+00    0.0000000000000000E+00    8.3599999999999710E+00
             8.6699999999999768E+00    2.9549999999999921E+00    8.3599999999999710E+00
             8.6699999999999768E+00    5.9109999999999765E+00    8.3599999999999710E+00
             1.1625999999999962E+01    0.0000000000000000E+00    8.3599999999999710E+00
             1.1625999999999962E+01    2.9549999999999921E+00    8.3599999999999710E+00
             1.1625999999999962E+01    5.9109999999999765E+00    8.3599999999999710E+00
             1.4779999999999958E+00    1.4779999999999958E+00    1.0449999999999955E+01
             1.4779999999999958E+00    4.4329999999999856E+00    1.0449999999999955E+01
             1.4779999999999958E+00    7.3889999999999798E+00    1.0449999999999955E+01
             4.4339999999999913E+00    1.4779999999999958E+00    1.0449999999999955E+01
             4.4339999999999913E+00    4.4329999999999856E+00    1.0449999999999955E+01
             4.4339999999999913E+00    7.3889999999999798E+00    1.0449999999999955E+01
             7.1919999999999744E+00    1.4779999999999958E+00    1.0449999999999955E+01
             7.1919999999999744E+00    4.4329999999999856E+00    1.0449999999999955E+01
             7.1919999999999744E+00    7.3889999999999798E+00    1.0449999999999955E+01
             1.0147999999999962E+01    1.4779999999999958E+00    1.0449999999999955E+01
             1.0147999999999962E+01    4.4329999999999856E+00    1.0449999999999955E+01
             1.0147999999999962E+01    7.3889999999999798E+00    1.0449999999999955E+01
             1.3103999999999962E+01    1.4779999999999958E+00    1.0449999999999955E+01
             1.3103999999999962E+01    4.4329999999999856E+00    1.0449999999999955E+01
             1.3103999999999962E+01    7.3889999999999798E+00    1.0449999999999955E+01
             4.8553999999999871E+00    5.9118999999999842E+00    1.2031799999999956E+01
             9.5279999999999720E+00    5.9136999999999853E+00    1.2033999999999965E+01
             7.1919999999999744E+00    5.9339999999999860E+00    1.2039999999999962E+01
             4.0673339927999885E+00    5.9059993219999818E+00    1.2687741368899966E+01
             1.0318905404799958E+01    5.9087793825999864E+00    1.2685747073199954E+01
             5.9989554221999803E+00    5.9152564165999815E+00    1.2792642411199964E+01
             8.3738707292999788E+00    5.9179777706999808E+00    1.2731457252199959E+01
             8.3227525761999814E+00    5.9051536094999841E+00    1.4080497642099951E+01
             5.9344285048999819E+00    5.8981604864999779E+00    1.4101749969599954E+01
             7.1039653576999751E+00    5.8899410688999803E+00    1.4828703219099955E+01
             7.2416021046999850E+00    5.8657702091999768E+00    1.6106466757299952E+01
             6.3118250322999794E+00    5.8547577070999806E+00    1.6539601306199959E+01
             9.1743570612999701E+00    5.8876302391999831E+00    1.4641017735299945E+01
             7.3119999999999781E+00    5.9339999999999860E+00    2.1042999999999939E+01
             5.8129999999999811E+00    7.4339999999999753E+00    2.2991999999999933E+01
             8.8129999999999704E+00    4.4339999999999913E+00    2.2991999999999933E+01
             5.8129999999999811E+00    4.4329999999999856E+00    2.2991999999999933E+01
             8.8129999999999704E+00    7.4339999999999753E+00    2.2991999999999933E+01
             1.4779999999999958E+00    1.4779999999999958E+00    2.5081999999999912E+01
             1.4779999999999958E+00    4.4329999999999856E+00    2.5081999999999912E+01
             1.4779999999999958E+00    7.3889999999999798E+00    2.5081999999999912E+01
             4.4339999999999913E+00    1.4779999999999958E+00    2.5081999999999912E+01
             4.4339999999999913E+00    4.4329999999999856E+00    2.5081999999999912E+01
             4.4339999999999913E+00    7.3889999999999798E+00    2.5081999999999912E+01
             7.1919999999999744E+00    1.4779999999999958E+00    2.5081999999999912E+01
             7.1919999999999744E+00    4.4329999999999856E+00    2.5081999999999912E+01
             7.1919999999999744E+00    7.3889999999999798E+00    2.5081999999999912E+01
             1.0147999999999962E+01    1.4779999999999958E+00    2.5081999999999912E+01
             1.0147999999999962E+01    4.4329999999999856E+00    2.5081999999999912E+01
             1.0147999999999962E+01    7.3889999999999798E+00    2.5081999999999912E+01
             1.3103999999999962E+01    1.4779999999999958E+00    2.5081999999999912E+01
             1.3103999999999962E+01    4.4329999999999856E+00    2.5081999999999912E+01
             1.3103999999999962E+01    7.3889999999999798E+00    2.5081999999999912E+01
             0.0000000000000000E+00    0.0000000000000000E+00    2.7171999999999954E+01
             0.0000000000000000E+00    2.9549999999999921E+00    2.7171999999999954E+01
             0.0000000000000000E+00    5.9109999999999765E+00    2.7171999999999954E+01
             2.9559999999999915E+00    0.0000000000000000E+00    2.7171999999999954E+01
             2.9559999999999915E+00    2.9549999999999921E+00    2.7171999999999954E+01
             2.9559999999999915E+00    5.9109999999999765E+00    2.7171999999999954E+01
             5.9119999999999830E+00    0.0000000000000000E+00    2.7171999999999954E+01
             5.9119999999999830E+00    2.9549999999999921E+00    2.7171999999999954E+01
             5.9119999999999830E+00    5.9109999999999765E+00    2.7171999999999954E+01
             8.6699999999999768E+00    0.0000000000000000E+00    2.7171999999999954E+01
             8.6699999999999768E+00    2.9549999999999921E+00    2.7171999999999954E+01
             8.6699999999999768E+00    5.9109999999999765E+00    2.7171999999999954E+01
             1.1625999999999962E+01    0.0000000000000000E+00    2.7171999999999954E+01
             1.1625999999999962E+01    2.9549999999999921E+00    2.7171999999999954E+01
             1.1625999999999962E+01    5.9109999999999765E+00    2.7171999999999954E+01
             1.4779999999999958E+00    1.4779999999999958E+00    2.9261999999999915E+01
             1.4779999999999958E+00    4.4329999999999856E+00    2.9261999999999915E+01
             1.4779999999999958E+00    7.3889999999999798E+00    2.9261999999999915E+01
             4.4339999999999913E+00    1.4779999999999958E+00    2.9261999999999915E+01
             4.4339999999999913E+00    4.4329999999999856E+00    2.9261999999999915E+01
             4.4339999999999913E+00    7.3889999999999798E+00    2.9261999999999915E+01
             7.1919999999999744E+00    1.4779999999999958E+00    2.9261999999999915E+01
             7.1919999999999744E+00    4.4329999999999856E+00    2.9261999999999915E+01
             7.1919999999999744E+00    7.3889999999999798E+00    2.9261999999999915E+01
             1.0147999999999962E+01    1.4779999999999958E+00    2.9261999999999915E+01
             1.0147999999999962E+01    4.4329999999999856E+00    2.9261999999999915E+01
             1.0147999999999962E+01    7.3889999999999798E+00    2.9261999999999915E+01
             1.3103999999999962E+01    1.4779999999999958E+00    2.9261999999999915E+01
             1.3103999999999962E+01    4.4329999999999856E+00    2.9261999999999915E+01
             1.3103999999999962E+01    7.3889999999999798E+00    2.9261999999999915E+01
             0.0000000000000000E+00    0.0000000000000000E+00    3.1351999999999904E+01
             0.0000000000000000E+00    2.9549999999999921E+00    3.1351999999999904E+01
             0.0000000000000000E+00    5.9109999999999765E+00    3.1351999999999904E+01
             2.9559999999999915E+00    0.0000000000000000E+00    3.1351999999999904E+01
             2.9559999999999915E+00    2.9549999999999921E+00    3.1351999999999904E+01
             2.9559999999999915E+00    5.9109999999999765E+00    3.1351999999999904E+01
             5.9119999999999830E+00    0.0000000000000000E+00    3.1351999999999904E+01
             5.9119999999999830E+00    2.9549999999999921E+00    3.1351999999999904E+01
             5.9119999999999830E+00    5.9109999999999765E+00    3.1351999999999904E+01
             8.6699999999999768E+00    0.0000000000000000E+00    3.1351999999999904E+01
             8.6699999999999768E+00    2.9549999999999921E+00    3.1351999999999904E+01
             8.6699999999999768E+00    5.9109999999999765E+00    3.1351999999999904E+01
             1.1625999999999962E+01    0.0000000000000000E+00    3.1351999999999904E+01
             1.1625999999999962E+01    2.9549999999999921E+00    3.1351999999999904E+01
             1.1625999999999962E+01    5.9109999999999765E+00    3.1351999999999904E+01
             1.4779999999999958E+00    1.4779999999999958E+00    3.3441999999999872E+01
             1.4779999999999958E+00    4.4329999999999856E+00    3.3441999999999872E+01
             1.4779999999999958E+00    7.3889999999999798E+00    3.3441999999999872E+01
             4.4339999999999913E+00    1.4779999999999958E+00    3.3441999999999872E+01
             4.4339999999999913E+00    4.4329999999999856E+00    3.3441999999999872E+01
             4.4339999999999913E+00    7.3889999999999798E+00    3.3441999999999872E+01
             7.1919999999999744E+00    1.4779999999999958E+00    3.3441999999999872E+01
             7.1919999999999744E+00    4.4329999999999856E+00    3.3441999999999872E+01
             7.1919999999999744E+00    7.3889999999999798E+00    3.3441999999999872E+01
             1.0147999999999962E+01    1.4779999999999958E+00    3.3441999999999872E+01
             1.0147999999999962E+01    4.4329999999999856E+00    3.3441999999999872E+01
             1.0147999999999962E+01    7.3889999999999798E+00    3.3441999999999872E+01
             1.3103999999999962E+01    1.4779999999999958E+00    3.3441999999999872E+01
             1.3103999999999962E+01    4.4329999999999856E+00    3.3441999999999872E+01
             1.3103999999999962E+01    7.3889999999999798E+00    3.3441999999999872E+01
       &END COORD
       &VELOCITY
             0.0000000000000000E+00    0.0000000000000000E+00    0.0000000000000000E+00
             0.0000000000000000E+00    0.0000000000000000E+00    0.0000000000000000E+00
             0.0000000000000000E+00    0.0000000000000000E+00    0.0000000000000000E+00
             0.0000000000000000E+00    0.0000000000000000E+00    0.0000000000000000E+00
             0.0000000000000000E+00    0.0000000000000000E+00    0.0000000000000000E+00
             0.0000000000000000E+00    0.0000000000000000E+00    0.0000000000000000E+00
             0.0000000000000000E+00    0.0000000000000000E+00    0.0000000000000000E+00
             0.0000000000000000E+00    0.0000000000000000E+00    0.0000000000000000E+00
             0.0000000000000000E+00    0.0000000000000000E+00    0.0000000000000000E+00
             0.0000000000000000E+00    0.0000000000000000E+00    0.0000000000000000E+00
             0.0000000000000000E+00    0.0000000000000000E+00    0.0000000000000000E+00
             0.0000000000000000E+00    0.0000000000000000E+00    0.0000000000000000E+00
             0.0000000000000000E+00    0.0000000000000000E+00    0.0000000000000000E+00
             0.0000000000000000E+00    0.0000000000000000E+00    0.0000000000000000E+00
             0.0000000000000000E+00    0.0000000000000000E+00    0.0000000000000000E+00
             0.0000000000000000E+00    0.0000000000000000E+00    0.0000000000000000E+00
             0.0000000000000000E+00    0.0000000000000000E+00    0.0000000000000000E+00
             0.0000000000000000E+00    0.0000000000000000E+00    0.0000000000000000E+00
             0.0000000000000000E+00    0.0000000000000000E+00    0.0000000000000000E+00
             0.0000000000000000E+00    0.0000000000000000E+00    0.0000000000000000E+00
             0.0000000000000000E+00    0.0000000000000000E+00    0.0000000000000000E+00
             0.0000000000000000E+00    0.0000000000000000E+00    0.0000000000000000E+00
             0.0000000000000000E+00    0.0000000000000000E+00    0.0000000000000000E+00
             0.0000000000000000E+00    0.0000000000000000E+00    0.0000000000000000E+00
             0.0000000000000000E+00    0.0000000000000000E+00    0.0000000000000000E+00
             0.0000000000000000E+00    0.0000000000000000E+00    0.0000000000000000E+00
             0.0000000000000000E+00    0.0000000000000000E+00    0.0000000000000000E+00
             0.0000000000000000E+00    0.0000000000000000E+00    0.0000000000000000E+00
             0.0000000000000000E+00    0.0000000000000000E+00    0.0000000000000000E+00
             0.0000000000000000E+00    0.0000000000000000E+00    0.0000000000000000E+00
             0.0000000000000000E+00    0.0000000000000000E+00    0.0000000000000000E+00
             0.0000000000000000E+00    0.0000000000000000E+00    0.0000000000000000E+00
             0.0000000000000000E+00    0.0000000000000000E+00    0.0000000000000000E+00
             0.0000000000000000E+00    0.0000000000000000E+00    0.0000000000000000E+00
             0.0000000000000000E+00    0.0000000000000000E+00    0.0000000000000000E+00
             0.0000000000000000E+00    0.0000000000000000E+00    0.0000000000000000E+00
             0.0000000000000000E+00    0.0000000000000000E+00    0.0000000000000000E+00
             0.0000000000000000E+00    0.0000000000000000E+00    0.0000000000000000E+00
             0.0000000000000000E+00    0.0000000000000000E+00    0.0000000000000000E+00
             0.0000000000000000E+00    0.0000000000000000E+00    0.0000000000000000E+00
             0.0000000000000000E+00    0.0000000000000000E+00    0.0000000000000000E+00
             0.0000000000000000E+00    0.0000000000000000E+00    0.0000000000000000E+00
             0.0000000000000000E+00    0.0000000000000000E+00    0.0000000000000000E+00
             0.0000000000000000E+00    0.0000000000000000E+00    0.0000000000000000E+00
             0.0000000000000000E+00    0.0000000000000000E+00    0.0000000000000000E+00
             0.0000000000000000E+00    0.0000000000000000E+00    0.0000000000000000E+00
             0.0000000000000000E+00    0.0000000000000000E+00    0.0000000000000000E+00
             0.0000000000000000E+00    0.0000000000000000E+00    0.0000000000000000E+00
             0.0000000000000000E+00    0.0000000000000000E+00    0.0000000000000000E+00
             0.0000000000000000E+00    0.0000000000000000E+00    0.0000000000000000E+00
             0.0000000000000000E+00    0.0000000000000000E+00    0.0000000000000000E+00
             0.0000000000000000E+00    0.0000000000000000E+00    0.0000000000000000E+00
             0.0000000000000000E+00    0.0000000000000000E+00    0.0000000000000000E+00
             0.0000000000000000E+00    0.0000000000000000E+00    0.0000000000000000E+00
             0.0000000000000000E+00    0.0000000000000000E+00    0.0000000000000000E+00
             0.0000000000000000E+00    0.0000000000000000E+00    0.0000000000000000E+00
             0.0000000000000000E+00    0.0000000000000000E+00    0.0000000000000000E+00
             0.0000000000000000E+00    0.0000000000000000E+00    0.0000000000000000E+00
             0.0000000000000000E+00    0.0000000000000000E+00    0.0000000000000000E+00
             0.0000000000000000E+00    0.0000000000000000E+00    0.0000000000000000E+00
             0.0000000000000000E+00    0.0000000000000000E+00    0.0000000000000000E+00
             0.0000000000000000E+00    0.0000000000000000E+00    0.0000000000000000E+00
             0.0000000000000000E+00    0.0000000000000000E+00    0.0000000000000000E+00
             0.0000000000000000E+00    0.0000000000000000E+00    0.0000000000000000E+00
             0.0000000000000000E+00    0.0000000000000000E+00    0.0000000000000000E+00
             0.0000000000000000E+00    0.0000000000000000E+00    0.0000000000000000E+00
             0.0000000000000000E+00    0.0000000000000000E+00    0.0000000000000000E+00
             0.0000000000000000E+00    0.0000000000000000E+00    0.0000000000000000E+00
             0.0000000000000000E+00    0.0000000000000000E+00    0.0000000000000000E+00
             0.0000000000000000E+00    0.0000000000000000E+00    0.0000000000000000E+00
             0.0000000000000000E+00    0.0000000000000000E+00    0.0000000000000000E+00
             0.0000000000000000E+00    0.0000000000000000E+00    0.0000000000000000E+00
             0.0000000000000000E+00    0.0000000000000000E+00    0.0000000000000000E+00
             0.0000000000000000E+00    0.0000000000000000E+00    0.0000000000000000E+00
             0.0000000000000000E+00    0.0000000000000000E+00    0.0000000000000000E+00
             0.0000000000000000E+00    0.0000000000000000E+00    0.0000000000000000E+00
             0.0000000000000000E+00    0.0000000000000000E+00    0.0000000000000000E+00
             0.0000000000000000E+00    0.0000000000000000E+00    0.0000000000000000E+00
             0.0000000000000000E+00    0.0000000000000000E+00    0.0000000000000000E+00
             0.0000000000000000E+00    0.0000000000000000E+00    0.0000000000000000E+00
             0.0000000000000000E+00    0.0000000000000000E+00    0.0000000000000000E+00
             0.0000000000000000E+00    0.0000000000000000E+00    0.0000000000000000E+00
             0.0000000000000000E+00    0.0000000000000000E+00    0.0000000000000000E+00
             0.0000000000000000E+00    0.0000000000000000E+00    0.0000000000000000E+00
             0.0000000000000000E+00    0.0000000000000000E+00    0.0000000000000000E+00
             0.0000000000000000E+00    0.0000000000000000E+00    0.0000000000000000E+00
             0.0000000000000000E+00    0.0000000000000000E+00    0.0000000000000000E+00
             0.0000000000000000E+00    0.0000000000000000E+00    0.0000000000000000E+00
             0.0000000000000000E+00    0.0000000000000000E+00    0.0000000000000000E+00
             0.0000000000000000E+00    0.0000000000000000E+00    0.0000000000000000E+00
             0.0000000000000000E+00    0.0000000000000000E+00    0.0000000000000000E+00
             0.0000000000000000E+00    0.0000000000000000E+00    0.0000000000000000E+00
             0.0000000000000000E+00    0.0000000000000000E+00    0.0000000000000000E+00
             0.0000000000000000E+00    0.0000000000000000E+00    0.0000000000000000E+00
             0.0000000000000000E+00    0.0000000000000000E+00    0.0000000000000000E+00
             0.0000000000000000E+00    0.0000000000000000E+00    0.0000000000000000E+00
             0.0000000000000000E+00    0.0000000000000000E+00    0.0000000000000000E+00
             0.0000000000000000E+00    0.0000000000000000E+00    0.0000000000000000E+00
             0.0000000000000000E+00    0.0000000000000000E+00    0.0000000000000000E+00
             0.0000000000000000E+00    0.0000000000000000E+00    0.0000000000000000E+00
             0.0000000000000000E+00    0.0000000000000000E+00    0.0000000000000000E+00
             0.0000000000000000E+00    0.0000000000000000E+00    0.0000000000000000E+00
             0.0000000000000000E+00    0.0000000000000000E+00    0.0000000000000000E+00
             0.0000000000000000E+00    0.0000000000000000E+00    0.0000000000000000E+00
             0.0000000000000000E+00    0.0000000000000000E+00    0.0000000000000000E+00
             0.0000000000000000E+00    0.0000000000000000E+00    0.0000000000000000E+00
             0.0000000000000000E+00    0.0000000000000000E+00    0.0000000000000000E+00
             0.0000000000000000E+00    0.0000000000000000E+00    0.0000000000000000E+00
             0.0000000000000000E+00    0.0000000000000000E+00    0.0000000000000000E+00
             0.0000000000000000E+00    0.0000000000000000E+00    0.0000000000000000E+00
             0.0000000000000000E+00    0.0000000000000000E+00    0.0000000000000000E+00
             0.0000000000000000E+00    0.0000000000000000E+00    0.0000000000000000E+00
             0.0000000000000000E+00    0.0000000000000000E+00    0.0000000000000000E+00
             0.0000000000000000E+00    0.0000000000000000E+00    0.0000000000000000E+00
             0.0000000000000000E+00    0.0000000000000000E+00    0.0000000000000000E+00
             0.0000000000000000E+00    0.0000000000000000E+00    0.0000000000000000E+00
             0.0000000000000000E+00    0.0000000000000000E+00    0.0000000000000000E+00
             0.0000000000000000E+00    0.0000000000000000E+00    0.0000000000000000E+00
             0.0000000000000000E+00    0.0000000000000000E+00    0.0000000000000000E+00
             0.0000000000000000E+00    0.0000000000000000E+00    0.0000000000000000E+00
             0.0000000000000000E+00    0.0000000000000000E+00    0.0000000000000000E+00
             0.0000000000000000E+00    0.0000000000000000E+00    0.0000000000000000E+00
             0.0000000000000000E+00    0.0000000000000000E+00    0.0000000000000000E+00
             0.0000000000000000E+00    0.0000000000000000E+00    0.0000000000000000E+00
             0.0000000000000000E+00    0.0000000000000000E+00    0.0000000000000000E+00
             0.0000000000000000E+00    0.0000000000000000E+00    0.0000000000000000E+00
             0.0000000000000000E+00    0.0000000000000000E+00    0.0000000000000000E+00
             0.0000000000000000E+00    0.0000000000000000E+00    0.0000000000000000E+00
             0.0000000000000000E+00    0.0000000000000000E+00    0.0000000000000000E+00
             0.0000000000000000E+00    0.0000000000000000E+00    0.0000000000000000E+00
             0.0000000000000000E+00    0.0000000000000000E+00    0.0000000000000000E+00
             0.0000000000000000E+00    0.0000000000000000E+00    0.0000000000000000E+00
             0.0000000000000000E+00    0.0000000000000000E+00    0.0000000000000000E+00
             0.0000000000000000E+00    0.0000000000000000E+00    0.0000000000000000E+00
             0.0000000000000000E+00    0.0000000000000000E+00    0.0000000000000000E+00
             0.0000000000000000E+00    0.0000000000000000E+00    0.0000000000000000E+00
             0.0000000000000000E+00    0.0000000000000000E+00    0.0000000000000000E+00
             0.0000000000000000E+00    0.0000000000000000E+00    0.0000000000000000E+00
             0.0000000000000000E+00    0.0000000000000000E+00    0.0000000000000000E+00
             0.0000000000000000E+00    0.0000000000000000E+00    0.0000000000000000E+00
             0.0000000000000000E+00    0.0000000000000000E+00    0.0000000000000000E+00
             0.0000000000000000E+00    0.0000000000000000E+00    0.0000000000000000E+00
             0.0000000000000000E+00    0.0000000000000000E+00    0.0000000000000000E+00
             0.0000000000000000E+00    0.0000000000000000E+00    0.0000000000000000E+00
             0.0000000000000000E+00    0.0000000000000000E+00    0.0000000000000000E+00