 # Version information for this restart file 
 # current date 2024-01-13 13:53:24.178
 # current working dir /gpfs/home/cahart/transport/melamine/au_from-h2/ci-neb/ts2-fixed/dft_leads-sz_tip-dzvp_surf-dzvp_kpoints-2-4-20_replicas-7
 # Program compiled at                              Thu 21 Sep 19:20:17 BST 2023
 # Program compiled on                                           hx1-c12-login-1
 # Program compiled for                                                    local
 # Source code revision number                                       git:5518aa6
 &GLOBAL
   EXTENDED_FFT_LENGTHS  T
   PRINT_LEVEL  MEDIUM
   PROJECT_NAME 2_dft_wfn-r-0
   OUTPUT_FILE_NAME 2_dft_wfn-r-0.out
   RUN_TYPE  BAND
 &END GLOBAL
 &MOTION
   &BAND
     NPROC_REP  64
     BAND_TYPE  CI-NEB
     NUMBER_OF_REPLICA  7
     K_SPRING     5.0000000000000003E-02
     &CI_NEB
       NSTEPS_IT  5
     &END CI_NEB
     &OPTIMIZE_BAND
       OPT_TYPE  DIIS
       &DIIS
         MAX_STEPS  1000
       &END DIIS
     &END OPTIMIZE_BAND
     &REPLICA
       &COORD
             0.0000000000000000E+00    0.0000000000000000E+00    0.0000000000000000E+00
             0.0000000000000000E+00    2.9550000000000134E+00    0.0000000000000000E+00
             0.0000000000000000E+00    5.9110000000000174E+00    0.0000000000000000E+00
             2.9560000000000075E+00    0.0000000000000000E+00    0.0000000000000000E+00
             2.9560000000000075E+00    2.9550000000000134E+00    0.0000000000000000E+00
             2.9560000000000075E+00    5.9110000000000174E+00    0.0000000000000000E+00
             5.9120000000000150E+00    0.0000000000000000E+00    0.0000000000000000E+00
             5.9120000000000150E+00    2.9550000000000134E+00    0.0000000000000000E+00
             5.9120000000000150E+00    5.9110000000000174E+00    0.0000000000000000E+00
             8.6700000000000195E+00    0.0000000000000000E+00    0.0000000000000000E+00
             8.6700000000000195E+00    2.9550000000000134E+00    0.0000000000000000E+00
             8.6700000000000195E+00    5.9110000000000174E+00    0.0000000000000000E+00
             1.1626000000000014E+01    0.0000000000000000E+00    0.0000000000000000E+00
             1.1626000000000014E+01    2.9550000000000134E+00    0.0000000000000000E+00
             1.1626000000000014E+01    5.9110000000000174E+00    0.0000000000000000E+00
             1.4780000000000038E+00    1.4780000000000038E+00    2.0900000000000012E+00
             1.4780000000000038E+00    4.4330000000000132E+00    2.0900000000000012E+00
             1.4780000000000038E+00    7.3890000000000216E+00    2.0900000000000012E+00
             4.4340000000000162E+00    1.4780000000000038E+00    2.0900000000000012E+00
             4.4340000000000162E+00    4.4330000000000132E+00    2.0900000000000012E+00
             4.4340000000000162E+00    7.3890000000000216E+00    2.0900000000000012E+00
             7.1920000000000215E+00    1.4780000000000038E+00    2.0900000000000012E+00
             7.1920000000000215E+00    4.4330000000000132E+00    2.0900000000000012E+00
             7.1920000000000215E+00    7.3890000000000216E+00    2.0900000000000012E+00
             1.0148000000000028E+01    1.4780000000000038E+00    2.0900000000000012E+00
             1.0148000000000028E+01    4.4330000000000132E+00    2.0900000000000012E+00
             1.0148000000000028E+01    7.3890000000000216E+00    2.0900000000000012E+00
             1.3104000000000015E+01    1.4780000000000038E+00    2.0900000000000012E+00
             1.3104000000000015E+01    4.4330000000000132E+00    2.0900000000000012E+00
             1.3104000000000015E+01    7.3890000000000216E+00    2.0900000000000012E+00
             0.0000000000000000E+00    0.0000000000000000E+00    4.1800000000000024E+00
             0.0000000000000000E+00    2.9550000000000134E+00    4.1800000000000024E+00
             0.0000000000000000E+00    5.9110000000000174E+00    4.1800000000000024E+00
             2.9560000000000075E+00    0.0000000000000000E+00    4.1800000000000024E+00
             2.9560000000000075E+00    2.9550000000000134E+00    4.1800000000000024E+00
             2.9560000000000075E+00    5.9110000000000174E+00    4.1800000000000024E+00
             5.9120000000000150E+00    0.0000000000000000E+00    4.1800000000000024E+00
             5.9120000000000150E+00    2.9550000000000134E+00    4.1800000000000024E+00
             5.9120000000000150E+00    5.9110000000000174E+00    4.1800000000000024E+00
             8.6700000000000195E+00    0.0000000000000000E+00    4.1800000000000024E+00
             8.6700000000000195E+00    2.9550000000000134E+00    4.1800000000000024E+00
             8.6700000000000195E+00    5.9110000000000174E+00    4.1800000000000024E+00
             1.1626000000000014E+01    0.0000000000000000E+00    4.1800000000000024E+00
             1.1626000000000014E+01    2.9550000000000134E+00    4.1800000000000024E+00
             1.1626000000000014E+01    5.9110000000000174E+00    4.1800000000000024E+00
             1.4780000000000038E+00    1.4780000000000038E+00    6.2700000000000271E+00
             1.4780000000000038E+00    4.4330000000000132E+00    6.2700000000000271E+00
             1.4780000000000038E+00    7.3890000000000216E+00    6.2700000000000271E+00
             4.4340000000000162E+00    1.4780000000000038E+00    6.2700000000000271E+00
             4.4340000000000162E+00    4.4330000000000132E+00    6.2700000000000271E+00
             4.4340000000000162E+00    7.3890000000000216E+00    6.2700000000000271E+00
             7.1920000000000215E+00    1.4780000000000038E+00    6.2700000000000271E+00
             7.1920000000000215E+00    4.4330000000000132E+00    6.2700000000000271E+00
             7.1920000000000215E+00    7.3890000000000216E+00    6.2700000000000271E+00
             1.0148000000000028E+01    1.4780000000000038E+00    6.2700000000000271E+00
             1.0148000000000028E+01    4.4330000000000132E+00    6.2700000000000271E+00
             1.0148000000000028E+01    7.3890000000000216E+00    6.2700000000000271E+00
             1.3104000000000015E+01    1.4780000000000038E+00    6.2700000000000271E+00
             1.3104000000000015E+01    4.4330000000000132E+00    6.2700000000000271E+00
             1.3104000000000015E+01    7.3890000000000216E+00    6.2700000000000271E+00
             0.0000000000000000E+00    0.0000000000000000E+00    8.3600000000000048E+00
             0.0000000000000000E+00    2.9550000000000134E+00    8.3600000000000048E+00
             0.0000000000000000E+00    5.9110000000000174E+00    8.3600000000000048E+00
             2.9560000000000075E+00    0.0000000000000000E+00    8.3600000000000048E+00
             2.9560000000000075E+00    2.9550000000000134E+00    8.3600000000000048E+00
             2.9560000000000075E+00    5.9110000000000174E+00    8.3600000000000048E+00
             5.9120000000000150E+00    0.0000000000000000E+00    8.3600000000000048E+00
             5.9120000000000150E+00    2.9550000000000134E+00    8.3600000000000048E+00
             5.9120000000000150E+00    5.9110000000000174E+00    8.3600000000000048E+00
             8.6700000000000195E+00    0.0000000000000000E+00    8.3600000000000048E+00
             8.6700000000000195E+00    2.9550000000000134E+00    8.3600000000000048E+00
             8.6700000000000195E+00    5.9110000000000174E+00    8.3600000000000048E+00
             1.1626000000000014E+01    0.0000000000000000E+00    8.3600000000000048E+00
             1.1626000000000014E+01    2.9550000000000134E+00    8.3600000000000048E+00
             1.1626000000000014E+01    5.9110000000000174E+00    8.3600000000000048E+00
             1.4780000000000038E+00    1.4780000000000038E+00    1.0450000000000014E+01
             1.4780000000000038E+00    4.4330000000000132E+00    1.0450000000000014E+01
             1.4780000000000038E+00    7.3890000000000216E+00    1.0450000000000014E+01
             4.4340000000000162E+00    1.4780000000000038E+00    1.0450000000000014E+01
             4.4340000000000162E+00    4.4330000000000132E+00    1.0450000000000014E+01
             4.4340000000000162E+00    7.3890000000000216E+00    1.0450000000000014E+01
             7.1920000000000215E+00    1.4780000000000038E+00    1.0450000000000014E+01
             7.1920000000000215E+00    4.4330000000000132E+00    1.0450000000000014E+01
             7.1920000000000215E+00    7.3890000000000216E+00    1.0450000000000014E+01
             1.0148000000000028E+01    1.4780000000000038E+00    1.0450000000000014E+01
             1.0148000000000028E+01    4.4330000000000132E+00    1.0450000000000014E+01
             1.0148000000000028E+01    7.3890000000000216E+00    1.0450000000000014E+01
             1.3104000000000015E+01    1.4780000000000038E+00    1.0450000000000014E+01
             1.3104000000000015E+01    4.4330000000000132E+00    1.0450000000000014E+01
             1.3104000000000015E+01    7.3890000000000216E+00    1.0450000000000014E+01
             4.8554000000000199E+00    5.9119000000000090E+00    1.2031800000000018E+01
             9.5280000000000200E+00    5.9137000000000217E+00    1.2034000000000045E+01
             7.1920000000000215E+00    5.9340000000000233E+00    1.2040000000000024E+01
             4.0673339928000116E+00    5.9059993220000084E+00    1.2687741368900044E+01
             1.0318905404800029E+01    5.9087793826000272E+00    1.2685747073200005E+01
             5.9989554222000097E+00    5.9152564166000152E+00    1.2792642411200047E+01
             8.3738707293000267E+00    5.9179777707000065E+00    1.2731457252200014E+01
             8.3227525762000347E+00    5.9051536095000259E+00    1.4080497642100019E+01
             5.9344285049000209E+00    5.8981604865000135E+00    1.4101749969600023E+01
             7.1039653577000017E+00    5.8899410689000078E+00    1.4828703219100033E+01
             7.2416021047000321E+00    5.8657702092000141E+00    1.6106466757300034E+01
             6.3118250323000220E+00    5.8547577071000170E+00    1.6539601306200051E+01
             9.1743570613000074E+00    5.8876302392000159E+00    1.4641017735300014E+01
             7.3120000000000287E+00    5.9340000000000233E+00    2.1043000000000067E+01
             5.8130000000000068E+00    7.4340000000000162E+00    2.2992000000000061E+01
             8.8130000000000273E+00    4.4340000000000162E+00    2.2992000000000061E+01
             5.8130000000000068E+00    4.4330000000000132E+00    2.2992000000000061E+01
             8.8130000000000273E+00    7.4340000000000162E+00    2.2992000000000061E+01
             1.4780000000000038E+00    1.4780000000000038E+00    2.5082000000000072E+01
             1.4780000000000038E+00    4.4330000000000132E+00    2.5082000000000072E+01
             1.4780000000000038E+00    7.3890000000000216E+00    2.5082000000000072E+01
             4.4340000000000162E+00    1.4780000000000038E+00    2.5082000000000072E+01
             4.4340000000000162E+00    4.4330000000000132E+00    2.5082000000000072E+01
             4.4340000000000162E+00    7.3890000000000216E+00    2.5082000000000072E+01
             7.1920000000000215E+00    1.4780000000000038E+00    2.5082000000000072E+01
             7.1920000000000215E+00    4.4330000000000132E+00    2.5082000000000072E+01
             7.1920000000000215E+00    7.3890000000000216E+00    2.5082000000000072E+01
             1.0148000000000028E+01    1.4780000000000038E+00    2.5082000000000072E+01
             1.0148000000000028E+01    4.4330000000000132E+00    2.5082000000000072E+01
             1.0148000000000028E+01    7.3890000000000216E+00    2.5082000000000072E+01
             1.3104000000000015E+01    1.4780000000000038E+00    2.5082000000000072E+01
             1.3104000000000015E+01    4.4330000000000132E+00    2.5082000000000072E+01
             1.3104000000000015E+01    7.3890000000000216E+00    2.5082000000000072E+01
             0.0000000000000000E+00    0.0000000000000000E+00    2.7172000000000136E+01
             0.0000000000000000E+00    2.9550000000000134E+00    2.7172000000000136E+01
             0.0000000000000000E+00    5.9110000000000174E+00    2.7172000000000136E+01
             2.9560000000000075E+00    0.0000000000000000E+00    2.7172000000000136E+01
             2.9560000000000075E+00    2.9550000000000134E+00    2.7172000000000136E+01
             2.9560000000000075E+00    5.9110000000000174E+00    2.7172000000000136E+01
             5.9120000000000150E+00    0.0000000000000000E+00    2.7172000000000136E+01
             5.9120000000000150E+00    2.9550000000000134E+00    2.7172000000000136E+01
             5.9120000000000150E+00    5.9110000000000174E+00    2.7172000000000136E+01
             8.6700000000000195E+00    0.0000000000000000E+00    2.7172000000000136E+01
             8.6700000000000195E+00    2.9550000000000134E+00    2.7172000000000136E+01
             8.6700000000000195E+00    5.9110000000000174E+00    2.7172000000000136E+01
             1.1626000000000014E+01    0.0000000000000000E+00    2.7172000000000136E+01
             1.1626000000000014E+01    2.9550000000000134E+00    2.7172000000000136E+01
             1.1626000000000014E+01    5.9110000000000174E+00    2.7172000000000136E+01
             1.4780000000000038E+00    1.4780000000000038E+00    2.9262000000000061E+01
             1.4780000000000038E+00    4.4330000000000132E+00    2.9262000000000061E+01
             1.4780000000000038E+00    7.3890000000000216E+00    2.9262000000000061E+01
             4.4340000000000162E+00    1.4780000000000038E+00    2.9262000000000061E+01
             4.4340000000000162E+00    4.4330000000000132E+00    2.9262000000000061E+01
             4.4340000000000162E+00    7.3890000000000216E+00    2.9262000000000061E+01
             7.1920000000000215E+00    1.4780000000000038E+00    2.9262000000000061E+01
             7.1920000000000215E+00    4.4330000000000132E+00    2.9262000000000061E+01
             7.1920000000000215E+00    7.3890000000000216E+00    2.9262000000000061E+01
             1.0148000000000028E+01    1.4780000000000038E+00    2.9262000000000061E+01
             1.0148000000000028E+01    4.4330000000000132E+00    2.9262000000000061E+01
             1.0148000000000028E+01    7.3890000000000216E+00    2.9262000000000061E+01
             1.3104000000000015E+01    1.4780000000000038E+00    2.9262000000000061E+01
             1.3104000000000015E+01    4.4330000000000132E+00    2.9262000000000061E+01
             1.3104000000000015E+01    7.3890000000000216E+00    2.9262000000000061E+01
             0.0000000000000000E+00    0.0000000000000000E+00    3.1352000000000068E+01
             0.0000000000000000E+00    2.9550000000000134E+00    3.1352000000000068E+01
             0.0000000000000000E+00    5.9110000000000174E+00    3.1352000000000068E+01
             2.9560000000000075E+00    0.0000000000000000E+00    3.1352000000000068E+01
             2.9560000000000075E+00    2.9550000000000134E+00    3.1352000000000068E+01
             2.9560000000000075E+00    5.9110000000000174E+00    3.1352000000000068E+01
             5.9120000000000150E+00    0.0000000000000000E+00    3.1352000000000068E+01
             5.9120000000000150E+00    2.9550000000000134E+00    3.1352000000000068E+01
             5.9120000000000150E+00    5.9110000000000174E+00    3.1352000000000068E+01
             8.6700000000000195E+00    0.0000000000000000E+00    3.1352000000000068E+01
             8.6700000000000195E+00    2.9550000000000134E+00    3.1352000000000068E+01
             8.6700000000000195E+00    5.9110000000000174E+00    3.1352000000000068E+01
             1.1626000000000014E+01    0.0000000000000000E+00    3.1352000000000068E+01
             1.1626000000000014E+01    2.9550000000000134E+00    3.1352000000000068E+01
             1.1626000000000014E+01    5.9110000000000174E+00    3.1352000000000068E+01
             1.4780000000000038E+00    1.4780000000000038E+00    3.3442000000000085E+01
             1.4780000000000038E+00    4.4330000000000132E+00    3.3442000000000085E+01
             1.4780000000000038E+00    7.3890000000000216E+00    3.3442000000000085E+01
             4.4340000000000162E+00    1.4780000000000038E+00    3.3442000000000085E+01
             4.4340000000000162E+00    4.4330000000000132E+00    3.3442000000000085E+01
             4.4340000000000162E+00    7.3890000000000216E+00    3.3442000000000085E+01
             7.1920000000000215E+00    1.4780000000000038E+00    3.3442000000000085E+01
             7.1920000000000215E+00    4.4330000000000132E+00    3.3442000000000085E+01
             7.1920000000000215E+00    7.3890000000000216E+00    3.3442000000000085E+01
             1.0148000000000028E+01    1.4780000000000038E+00    3.3442000000000085E+01
             1.0148000000000028E+01    4.4330000000000132E+00    3.3442000000000085E+01
             1.0148000000000028E+01    7.3890000000000216E+00    3.3442000000000085E+01
             1.3104000000000015E+01    1.4780000000000038E+00    3.3442000000000085E+01
             1.3104000000000015E+01    4.4330000000000132E+00    3.3442000000000085E+01
             1.3104000000000015E+01    7.3890000000000216E+00    3.3442000000000085E+01
       &END COORD
       &VELOCITY
             0.0000000000000000E+00    0.0000000000000000E+00    0.0000000000000000E+00
             0.0000000000000000E+00    0.0000000000000000E+00    0.0000000000000000E+00
             0.0000000000000000E+00    0.0000000000000000E+00    0.0000000000000000E+00
             0.0000000000000000E+00    0.0000000000000000E+00    0.0000000000000000E+00
             0.0000000000000000E+00    0.0000000000000000E+00    0.0000000000000000E+00
             0.0000000000000000E+00    0.0000000000000000E+00    0.0000000000000000E+00
             0.0000000000000000E+00    0.0000000000000000E+00    0.0000000000000000E+00
             0.0000000000000000E+00    0.0000000000000000E+00    0.0000000000000000E+00
             0.0000000000000000E+00    0.0000000000000000E+00    0.0000000000000000E+00
             0.0000000000000000E+00    0.0000000000000000E+00    0.0000000000000000E+00
             0.0000000000000000E+00    0.0000000000000000E+00    0.0000000000000000E+00
             0.0000000000000000E+00    0.0000000000000000E+00    0.0000000000000000E+00
             0.0000000000000000E+00    0.0000000000000000E+00    0.0000000000000000E+00
             0.0000000000000000E+00    0.0000000000000000E+00    0.0000000000000000E+00
             0.0000000000000000E+00    0.0000000000000000E+00    0.0000000000000000E+00
             0.0000000000000000E+00    0.0000000000000000E+00    0.0000000000000000E+00
             0.0000000000000000E+00    0.0000000000000000E+00    0.0000000000000000E+00
             0.0000000000000000E+00    0.0000000000000000E+00    0.0000000000000000E+00
             0.0000000000000000E+00    0.0000000000000000E+00    0.0000000000000000E+00
             0.0000000000000000E+00    0.0000000000000000E+00    0.0000000000000000E+00
             0.0000000000000000E+00    0.0000000000000000E+00    0.0000000000000000E+00
             0.0000000000000000E+00    0.0000000000000000E+00    0.0000000000000000E+00
             0.0000000000000000E+00    0.0000000000000000E+00    0.0000000000000000E+00
             0.0000000000000000E+00    0.0000000000000000E+00    0.0000000000000000E+00
             0.0000000000000000E+00    0.0000000000000000E+00    0.0000000000000000E+00
             0.0000000000000000E+00    0.0000000000000000E+00    0.0000000000000000E+00
             0.0000000000000000E+00    0.0000000000000000E+00    0.0000000000000000E+00
             0.0000000000000000E+00    0.0000000000000000E+00    0.0000000000000000E+00
             0.0000000000000000E+00    0.0000000000000000E+00    0.0000000000000000E+00
             0.0000000000000000E+00    0.0000000000000000E+00    0.0000000000000000E+00
             0.0000000000000000E+00    0.0000000000000000E+00    0.0000000000000000E+00
             0.0000000000000000E+00    0.0000000000000000E+00    0.0000000000000000E+00
             0.0000000000000000E+00    0.0000000000000000E+00    0.0000000000000000E+00
             0.0000000000000000E+00    0.0000000000000000E+00    0.0000000000000000E+00
             0.0000000000000000E+00    0.0000000000000000E+00    0.0000000000000000E+00
             0.0000000000000000E+00    0.0000000000000000E+00    0.0000000000000000E+00
             0.0000000000000000E+00    0.0000000000000000E+00    0.0000000000000000E+00
             0.0000000000000000E+00    0.0000000000000000E+00    0.0000000000000000E+00
             0.0000000000000000E+00    0.0000000000000000E+00    0.0000000000000000E+00
             0.0000000000000000E+00    0.0000000000000000E+00    0.0000000000000000E+00
             0.0000000000000000E+00    0.0000000000000000E+00    0.0000000000000000E+00
             0.0000000000000000E+00    0.0000000000000000E+00    0.0000000000000000E+00
             0.0000000000000000E+00    0.0000000000000000E+00    0.0000000000000000E+00
             0.0000000000000000E+00    0.0000000000000000E+00    0.0000000000000000E+00
             0.0000000000000000E+00    0.0000000000000000E+00    0.0000000000000000E+00
             0.0000000000000000E+00    0.0000000000000000E+00    0.0000000000000000E+00
             0.0000000000000000E+00    0.0000000000000000E+00    0.0000000000000000E+00
             0.0000000000000000E+00    0.0000000000000000E+00    0.0000000000000000E+00
             0.0000000000000000E+00    0.0000000000000000E+00    0.0000000000000000E+00
             0.0000000000000000E+00    0.0000000000000000E+00    0.0000000000000000E+00
             0.0000000000000000E+00    0.0000000000000000E+00    0.0000000000000000E+00
             0.0000000000000000E+00    0.0000000000000000E+00    0.0000000000000000E+00
             0.0000000000000000E+00    0.0000000000000000E+00    0.0000000000000000E+00
             0.0000000000000000E+00    0.0000000000000000E+00    0.0000000000000000E+00
             0.0000000000000000E+00    0.0000000000000000E+00    0.0000000000000000E+00
             0.0000000000000000E+00    0.0000000000000000E+00    0.0000000000000000E+00
             0.0000000000000000E+00    0.0000000000000000E+00    0.0000000000000000E+00
             0.0000000000000000E+00    0.0000000000000000E+00    0.0000000000000000E+00
             0.0000000000000000E+00    0.0000000000000000E+00    0.0000000000000000E+00
             0.0000000000000000E+00    0.0000000000000000E+00    0.0000000000000000E+00
             0.0000000000000000E+00    0.0000000000000000E+00    0.0000000000000000E+00
             0.0000000000000000E+00    0.0000000000000000E+00    0.0000000000000000E+00
             0.0000000000000000E+00    0.0000000000000000E+00    0.0000000000000000E+00
             0.0000000000000000E+00    0.0000000000000000E+00    0.0000000000000000E+00
             0.0000000000000000E+00    0.0000000000000000E+00    0.0000000000000000E+00
             0.0000000000000000E+00    0.0000000000000000E+00    0.0000000000000000E+00
             0.0000000000000000E+00    0.0000000000000000E+00    0.0000000000000000E+00
             0.0000000000000000E+00    0.0000000000000000E+00    0.0000000000000000E+00
             0.0000000000000000E+00    0.0000000000000000E+00    0.0000000000000000E+00
             0.0000000000000000E+00    0.0000000000000000E+00    0.0000000000000000E+00
             0.0000000000000000E+00    0.0000000000000000E+00    0.0000000000000000E+00
             0.0000000000000000E+00    0.0000000000000000E+00    0.0000000000000000E+00
             0.0000000000000000E+00    0.0000000000000000E+00    0.0000000000000000E+00
             0.0000000000000000E+00    0.0000000000000000E+00    0.0000000000000000E+00
             0.0000000000000000E+00    0.0000000000000000E+00    0.0000000000000000E+00
             0.0000000000000000E+00    0.0000000000000000E+00    0.0000000000000000E+00
             0.0000000000000000E+00    0.0000000000000000E+00    0.0000000000000000E+00
             0.0000000000000000E+00    0.0000000000000000E+00    0.0000000000000000E+00
             0.0000000000000000E+00    0.0000000000000000E+00    0.0000000000000000E+00
             0.0000000000000000E+00    0.0000000000000000E+00    0.0000000000000000E+00
             0.0000000000000000E+00    0.0000000000000000E+00    0.0000000000000000E+00
             0.0000000000000000E+00    0.0000000000000000E+00    0.0000000000000000E+00
             0.0000000000000000E+00    0.0000000000000000E+00    0.0000000000000000E+00
             0.0000000000000000E+00    0.0000000000000000E+00    0.0000000000000000E+00
             0.0000000000000000E+00    0.0000000000000000E+00    0.0000000000000000E+00
             0.0000000000000000E+00    0.0000000000000000E+00    0.0000000000000000E+00
             0.0000000000000000E+00    0.0000000000000000E+00    0.0000000000000000E+00
             0.0000000000000000E+00    0.0000000000000000E+00    0.0000000000000000E+00
             0.0000000000000000E+00    0.0000000000000000E+00    0.0000000000000000E+00
             0.0000000000000000E+00    0.0000000000000000E+00    0.0000000000000000E+00
             0.0000000000000000E+00    0.0000000000000000E+00    0.0000000000000000E+00
             0.0000000000000000E+00    0.0000000000000000E+00    0.0000000000000000E+00
             0.0000000000000000E+00    0.0000000000000000E+00    0.0000000000000000E+00
             0.0000000000000000E+00    0.0000000000000000E+00    0.0000000000000000E+00
             0.0000000000000000E+00    0.0000000000000000E+00    0.0000000000000000E+00
             0.0000000000000000E+00    0.0000000000000000E+00    0.0000000000000000E+00
             0.0000000000000000E+00    0.0000000000000000E+00    0.0000000000000000E+00
             0.0000000000000000E+00    0.0000000000000000E+00    0.0000000000000000E+00
             0.0000000000000000E+00    0.0000000000000000E+00    0.0000000000000000E+00
             0.0000000000000000E+00    0.0000000000000000E+00    0.0000000000000000E+00
             0.0000000000000000E+00    0.0000000000000000E+00    0.0000000000000000E+00
             0.0000000000000000E+00    0.0000000000000000E+00    0.0000000000000000E+00
             0.0000000000000000E+00    0.0000000000000000E+00    0.0000000000000000E+00
             0.0000000000000000E+00    0.0000000000000000E+00    0.0000000000000000E+00
             0.0000000000000000E+00    0.0000000000000000E+00    0.0000000000000000E+00
             0.0000000000000000E+00    0.0000000000000000E+00    0.0000000000000000E+00
             0.0000000000000000E+00    0.0000000000000000E+00    0.0000000000000000E+00
             0.0000000000000000E+00    0.0000000000000000E+00    0.0000000000000000E+00
             0.0000000000000000E+00    0.0000000000000000E+00    0.0000000000000000E+00
             0.0000000000000000E+00    0.0000000000000000E+00    0.0000000000000000E+00
             0.0000000000000000E+00    0.0000000000000000E+00    0.0000000000000000E+00
             0.0000000000000000E+00    0.0000000000000000E+00    0.0000000000000000E+00
             0.0000000000000000E+00    0.0000000000000000E+00    0.0000000000000000E+00
             0.0000000000000000E+00    0.0000000000000000E+00    0.0000000000000000E+00
             0.0000000000000000E+00    0.0000000000000000E+00    0.0000000000000000E+00
             0.0000000000000000E+00    0.0000000000000000E+00    0.0000000000000000E+00
             0.0000000000000000E+00    0.0000000000000000E+00    0.0000000000000000E+00
             0.0000000000000000E+00    0.0000000000000000E+00    0.0000000000000000E+00
             0.0000000000000000E+00    0.0000000000000000E+00    0.0000000000000000E+00
             0.0000000000000000E+00    0.0000000000000000E+00    0.0000000000000000E+00
             0.0000000000000000E+00    0.0000000000000000E+00    0.0000000000000000E+00
             0.0000000000000000E+00    0.0000000000000000E+00    0.0000000000000000E+00
             0.0000000000000000E+00    0.0000000000000000E+00    0.0000000000000000E+00
             0.0000000000000000E+00    0.0000000000000000E+00    0.0000000000000000E+00
             0.0000000000000000E+00    0.0000000000000000E+00    0.0000000000000000E+00
             0.0000000000000000E+00    0.0000000000000000E+00    0.0000000000000000E+00
             0.0000000000000000E+00    0.0000000000000000E+00    0.0000000000000000E+00
             0.0000000000000000E+00    0.0000000000000000E+00    0.0000000000000000E+00
             0.0000000000000000E+00    0.0000000000000000E+00    0.0000000000000000E+00
             0.0000000000000000E+00    0.0000000000000000E+00    0.0000000000000000E+00
             0.0000000000000000E+00    0.0000000000000000E+00    0.0000000000000000E+00
             0.0000000000000000E+00    0.0000000000000000E+00    0.0000000000000000E+00
             0.0000000000000000E+00    0.0000000000000000E+00    0.0000000000000000E+00
             0.0000000000000000E+00    0.0000000000000000E+00    0.0000000000000000E+00
             0.0000000000000000E+00    0.0000000000000000E+00    0.0000000000000000E+00
             0.0000000000000000E+00    0.0000000000000000E+00    0.0000000000000000E+00
             0.0000000000000000E+00    0.0000000000000000E+00    0.0000000000000000E+00
             0.0000000000000000E+00    0.0000000000000000E+00    0.0000000000000000E+00
             0.0000000000000000E+00    0.0000000000000000E+00    0.0000000000000000E+00
             0.0000000000000000E+00    0.0000000000000000E+00    0.0000000000000000E+00
             0.0000000000000000E+00    0.0000000000000000E+00    0.0000000000000000E+00
             0.0000000000000000E+00    0.0000000000000000E+00    0.0000000000000000E+00
             0.0000000000000000E+00    0.0000000000000000E+00    0.0000000000000000E+00
             0.0000000000000000E+00    0.0000000000000000E+00    0.0000000000000000E+00
             0.0000000000000000E+00    0.0000000000000000E+00    0.0000000000000000E+00