 # Version information for this restart file 
 # current date 2024-01-13 03:49:46.529
 # current working dir /gpfs/home/cahart/transport/melamine/au_from-h2/ci-neb/ts2-fixed/dft_leads-sz_tip-dzvp_surf-dzvp_kpoints-2-4-20_replicas-7
 # Program compiled at                              Thu 21 Sep 19:20:17 BST 2023
 # Program compiled on                                           hx1-c12-login-1
 # Program compiled for                                                    local
 # Source code revision number                                       git:5518aa6
 &GLOBAL
   EXTENDED_FFT_LENGTHS  T
   PRINT_LEVEL  MEDIUM
   PROJECT_NAME 2_dft_wfn-r-0
   OUTPUT_FILE_NAME 2_dft_wfn-r-0.out
   RUN_TYPE  BAND
 &END GLOBAL
 &MOTION
   &BAND
     NPROC_REP  64
     BAND_TYPE  CI-NEB
     NUMBER_OF_REPLICA  7
     K_SPRING     5.0000000000000003E-02
     &CI_NEB
       NSTEPS_IT  5
     &END CI_NEB
     &OPTIMIZE_BAND
       OPT_TYPE  DIIS
       &DIIS
         MAX_STEPS  1000
       &END DIIS
     &END OPTIMIZE_BAND
     &REPLICA
       &COORD
             0.0000000000000000E+00    0.0000000000000000E+00    0.0000000000000000E+00
             0.0000000000000000E+00    2.9550000000000125E+00    0.0000000000000000E+00
             0.0000000000000000E+00    5.9110000000000129E+00    0.0000000000000000E+00
             2.9560000000000062E+00    0.0000000000000000E+00    0.0000000000000000E+00
             2.9560000000000062E+00    2.9550000000000125E+00    0.0000000000000000E+00
             2.9560000000000062E+00    5.9110000000000129E+00    0.0000000000000000E+00
             5.9120000000000124E+00    0.0000000000000000E+00    0.0000000000000000E+00
             5.9120000000000124E+00    2.9550000000000125E+00    0.0000000000000000E+00
             5.9120000000000124E+00    5.9110000000000129E+00    0.0000000000000000E+00
             8.6700000000000230E+00    0.0000000000000000E+00    0.0000000000000000E+00
             8.6700000000000230E+00    2.9550000000000125E+00    0.0000000000000000E+00
             8.6700000000000230E+00    5.9110000000000129E+00    0.0000000000000000E+00
             1.1626000000000028E+01    0.0000000000000000E+00    0.0000000000000000E+00
             1.1626000000000028E+01    2.9550000000000125E+00    0.0000000000000000E+00
             1.1626000000000028E+01    5.9110000000000129E+00    0.0000000000000000E+00
             1.4780000000000031E+00    1.4780000000000031E+00    2.0900000000000034E+00
             1.4780000000000031E+00    4.4330000000000132E+00    2.0900000000000034E+00
             1.4780000000000031E+00    7.3890000000000242E+00    2.0900000000000034E+00
             4.4340000000000170E+00    1.4780000000000031E+00    2.0900000000000034E+00
             4.4340000000000170E+00    4.4330000000000132E+00    2.0900000000000034E+00
             4.4340000000000170E+00    7.3890000000000242E+00    2.0900000000000034E+00
             7.1920000000000170E+00    1.4780000000000031E+00    2.0900000000000034E+00
             7.1920000000000170E+00    4.4330000000000132E+00    2.0900000000000034E+00
             7.1920000000000170E+00    7.3890000000000242E+00    2.0900000000000034E+00
             1.0148000000000028E+01    1.4780000000000031E+00    2.0900000000000034E+00
             1.0148000000000028E+01    4.4330000000000132E+00    2.0900000000000034E+00
             1.0148000000000028E+01    7.3890000000000242E+00    2.0900000000000034E+00
             1.3104000000000028E+01    1.4780000000000031E+00    2.0900000000000034E+00
             1.3104000000000028E+01    4.4330000000000132E+00    2.0900000000000034E+00
             1.3104000000000028E+01    7.3890000000000242E+00    2.0900000000000034E+00
             0.0000000000000000E+00    0.0000000000000000E+00    4.1800000000000068E+00
             0.0000000000000000E+00    2.9550000000000125E+00    4.1800000000000068E+00
             0.0000000000000000E+00    5.9110000000000129E+00    4.1800000000000068E+00
             2.9560000000000062E+00    0.0000000000000000E+00    4.1800000000000068E+00
             2.9560000000000062E+00    2.9550000000000125E+00    4.1800000000000068E+00
             2.9560000000000062E+00    5.9110000000000129E+00    4.1800000000000068E+00
             5.9120000000000124E+00    0.0000000000000000E+00    4.1800000000000068E+00
             5.9120000000000124E+00    2.9550000000000125E+00    4.1800000000000068E+00
             5.9120000000000124E+00    5.9110000000000129E+00    4.1800000000000068E+00
             8.6700000000000230E+00    0.0000000000000000E+00    4.1800000000000068E+00
             8.6700000000000230E+00    2.9550000000000125E+00    4.1800000000000068E+00
             8.6700000000000230E+00    5.9110000000000129E+00    4.1800000000000068E+00
             1.1626000000000028E+01    0.0000000000000000E+00    4.1800000000000068E+00
             1.1626000000000028E+01    2.9550000000000125E+00    4.1800000000000068E+00
             1.1626000000000028E+01    5.9110000000000129E+00    4.1800000000000068E+00
             1.4780000000000031E+00    1.4780000000000031E+00    6.2700000000000236E+00
             1.4780000000000031E+00    4.4330000000000132E+00    6.2700000000000236E+00
             1.4780000000000031E+00    7.3890000000000242E+00    6.2700000000000236E+00
             4.4340000000000170E+00    1.4780000000000031E+00    6.2700000000000236E+00
             4.4340000000000170E+00    4.4330000000000132E+00    6.2700000000000236E+00
             4.4340000000000170E+00    7.3890000000000242E+00    6.2700000000000236E+00
             7.1920000000000170E+00    1.4780000000000031E+00    6.2700000000000236E+00
             7.1920000000000170E+00    4.4330000000000132E+00    6.2700000000000236E+00
             7.1920000000000170E+00    7.3890000000000242E+00    6.2700000000000236E+00
             1.0148000000000028E+01    1.4780000000000031E+00    6.2700000000000236E+00
             1.0148000000000028E+01    4.4330000000000132E+00    6.2700000000000236E+00
             1.0148000000000028E+01    7.3890000000000242E+00    6.2700000000000236E+00
             1.3104000000000028E+01    1.4780000000000031E+00    6.2700000000000236E+00
             1.3104000000000028E+01    4.4330000000000132E+00    6.2700000000000236E+00
             1.3104000000000028E+01    7.3890000000000242E+00    6.2700000000000236E+00
             0.0000000000000000E+00    0.0000000000000000E+00    8.3600000000000136E+00
             0.0000000000000000E+00    2.9550000000000125E+00    8.3600000000000136E+00
             0.0000000000000000E+00    5.9110000000000129E+00    8.3600000000000136E+00
             2.9560000000000062E+00    0.0000000000000000E+00    8.3600000000000136E+00
             2.9560000000000062E+00    2.9550000000000125E+00    8.3600000000000136E+00
             2.9560000000000062E+00    5.9110000000000129E+00    8.3600000000000136E+00
             5.9120000000000124E+00    0.0000000000000000E+00    8.3600000000000136E+00
             5.9120000000000124E+00    2.9550000000000125E+00    8.3600000000000136E+00
             5.9120000000000124E+00    5.9110000000000129E+00    8.3600000000000136E+00
             8.6700000000000230E+00    0.0000000000000000E+00    8.3600000000000136E+00
             8.6700000000000230E+00    2.9550000000000125E+00    8.3600000000000136E+00
             8.6700000000000230E+00    5.9110000000000129E+00    8.3600000000000136E+00
             1.1626000000000028E+01    0.0000000000000000E+00    8.3600000000000136E+00
             1.1626000000000028E+01    2.9550000000000125E+00    8.3600000000000136E+00
             1.1626000000000028E+01    5.9110000000000129E+00    8.3600000000000136E+00
             1.4780000000000031E+00    1.4780000000000031E+00    1.0450000000000006E+01
             1.4780000000000031E+00    4.4330000000000132E+00    1.0450000000000006E+01
             1.4780000000000031E+00    7.3890000000000242E+00    1.0450000000000006E+01
             4.4340000000000170E+00    1.4780000000000031E+00    1.0450000000000006E+01
             4.4340000000000170E+00    4.4330000000000132E+00    1.0450000000000006E+01
             4.4340000000000170E+00    7.3890000000000242E+00    1.0450000000000006E+01
             7.1920000000000170E+00    1.4780000000000031E+00    1.0450000000000006E+01
             7.1920000000000170E+00    4.4330000000000132E+00    1.0450000000000006E+01
             7.1920000000000170E+00    7.3890000000000242E+00    1.0450000000000006E+01
             1.0148000000000028E+01    1.4780000000000031E+00    1.0450000000000006E+01
             1.0148000000000028E+01    4.4330000000000132E+00    1.0450000000000006E+01
             1.0148000000000028E+01    7.3890000000000242E+00    1.0450000000000006E+01
             1.3104000000000028E+01    1.4780000000000031E+00    1.0450000000000006E+01
             1.3104000000000028E+01    4.4330000000000132E+00    1.0450000000000006E+01
             1.3104000000000028E+01    7.3890000000000242E+00    1.0450000000000006E+01
             4.8554000000000181E+00    5.9119000000000179E+00    1.2031800000000038E+01
             9.5280000000000431E+00    5.9137000000000199E+00    1.2034000000000043E+01
             7.1920000000000170E+00    5.9340000000000286E+00    1.2040000000000033E+01
             4.0673339928000125E+00    5.9059993220000182E+00    1.2687741368900035E+01
             1.0318905404800029E+01    5.9087793826000290E+00    1.2685747073200023E+01
             5.9989554222000141E+00    5.9152564166000152E+00    1.2792642411200038E+01
             8.3738707293000285E+00    5.9179777707000163E+00    1.2731457252200038E+01
             8.3227525762000365E+00    5.9051536095000232E+00    1.4080497642100037E+01
             5.9344285049000147E+00    5.8981604865000108E+00    1.4101749969600034E+01
             7.1039653577000133E+00    5.8899410689000122E+00    1.4828703219100046E+01
             7.2416021047000383E+00    5.8657702092000106E+00    1.6106466757300037E+01
             6.3118250323000211E+00    5.8547577071000187E+00    1.6539601306200058E+01
             9.1743570613000269E+00    5.8876302392000168E+00    1.4641017735300021E+01
             7.3120000000000207E+00    5.9340000000000286E+00    2.1043000000000067E+01
             5.8130000000000139E+00    7.4340000000000170E+00    2.2992000000000072E+01
             8.8130000000000273E+00    4.4340000000000170E+00    2.2992000000000072E+01
             5.8130000000000139E+00    4.4330000000000132E+00    2.2992000000000072E+01
             8.8130000000000273E+00    7.4340000000000170E+00    2.2992000000000072E+01
             1.4780000000000031E+00    1.4780000000000031E+00    2.5082000000000058E+01
             1.4780000000000031E+00    4.4330000000000132E+00    2.5082000000000058E+01
             1.4780000000000031E+00    7.3890000000000242E+00    2.5082000000000058E+01
             4.4340000000000170E+00    1.4780000000000031E+00    2.5082000000000058E+01
             4.4340000000000170E+00    4.4330000000000132E+00    2.5082000000000058E+01
             4.4340000000000170E+00    7.3890000000000242E+00    2.5082000000000058E+01
             7.1920000000000170E+00    1.4780000000000031E+00    2.5082000000000058E+01
             7.1920000000000170E+00    4.4330000000000132E+00    2.5082000000000058E+01
             7.1920000000000170E+00    7.3890000000000242E+00    2.5082000000000058E+01
             1.0148000000000028E+01    1.4780000000000031E+00    2.5082000000000058E+01
             1.0148000000000028E+01    4.4330000000000132E+00    2.5082000000000058E+01
             1.0148000000000028E+01    7.3890000000000242E+00    2.5082000000000058E+01
             1.3104000000000028E+01    1.4780000000000031E+00    2.5082000000000058E+01
             1.3104000000000028E+01    4.4330000000000132E+00    2.5082000000000058E+01
             1.3104000000000028E+01    7.3890000000000242E+00    2.5082000000000058E+01
             0.0000000000000000E+00    0.0000000000000000E+00    2.7172000000000107E+01
             0.0000000000000000E+00    2.9550000000000125E+00    2.7172000000000107E+01
             0.0000000000000000E+00    5.9110000000000129E+00    2.7172000000000107E+01
             2.9560000000000062E+00    0.0000000000000000E+00    2.7172000000000107E+01
             2.9560000000000062E+00    2.9550000000000125E+00    2.7172000000000107E+01
             2.9560000000000062E+00    5.9110000000000129E+00    2.7172000000000107E+01
             5.9120000000000124E+00    0.0000000000000000E+00    2.7172000000000107E+01
             5.9120000000000124E+00    2.9550000000000125E+00    2.7172000000000107E+01
             5.9120000000000124E+00    5.9110000000000129E+00    2.7172000000000107E+01
             8.6700000000000230E+00    0.0000000000000000E+00    2.7172000000000107E+01
             8.6700000000000230E+00    2.9550000000000125E+00    2.7172000000000107E+01
             8.6700000000000230E+00    5.9110000000000129E+00    2.7172000000000107E+01
             1.1626000000000028E+01    0.0000000000000000E+00    2.7172000000000107E+01
             1.1626000000000028E+01    2.9550000000000125E+00    2.7172000000000107E+01
             1.1626000000000028E+01    5.9110000000000129E+00    2.7172000000000107E+01
             1.4780000000000031E+00    1.4780000000000031E+00    2.9262000000000082E+01
             1.4780000000000031E+00    4.4330000000000132E+00    2.9262000000000082E+01
             1.4780000000000031E+00    7.3890000000000242E+00    2.9262000000000082E+01
             4.4340000000000170E+00    1.4780000000000031E+00    2.9262000000000082E+01
             4.4340000000000170E+00    4.4330000000000132E+00    2.9262000000000082E+01
             4.4340000000000170E+00    7.3890000000000242E+00    2.9262000000000082E+01
             7.1920000000000170E+00    1.4780000000000031E+00    2.9262000000000082E+01
             7.1920000000000170E+00    4.4330000000000132E+00    2.9262000000000082E+01
             7.1920000000000170E+00    7.3890000000000242E+00    2.9262000000000082E+01
             1.0148000000000028E+01    1.4780000000000031E+00    2.9262000000000082E+01
             1.0148000000000028E+01    4.4330000000000132E+00    2.9262000000000082E+01
             1.0148000000000028E+01    7.3890000000000242E+00    2.9262000000000082E+01
             1.3104000000000028E+01    1.4780000000000031E+00    2.9262000000000082E+01
             1.3104000000000028E+01    4.4330000000000132E+00    2.9262000000000082E+01
             1.3104000000000028E+01    7.3890000000000242E+00    2.9262000000000082E+01
             0.0000000000000000E+00    0.0000000000000000E+00    3.1352000000000078E+01
             0.0000000000000000E+00    2.9550000000000125E+00    3.1352000000000078E+01
             0.0000000000000000E+00    5.9110000000000129E+00    3.1352000000000078E+01
             2.9560000000000062E+00    0.0000000000000000E+00    3.1352000000000078E+01
             2.9560000000000062E+00    2.9550000000000125E+00    3.1352000000000078E+01
             2.9560000000000062E+00    5.9110000000000129E+00    3.1352000000000078E+01
             5.9120000000000124E+00    0.0000000000000000E+00    3.1352000000000078E+01
             5.9120000000000124E+00    2.9550000000000125E+00    3.1352000000000078E+01
             5.9120000000000124E+00    5.9110000000000129E+00    3.1352000000000078E+01
             8.6700000000000230E+00    0.0000000000000000E+00    3.1352000000000078E+01
             8.6700000000000230E+00    2.9550000000000125E+00    3.1352000000000078E+01
             8.6700000000000230E+00    5.9110000000000129E+00    3.1352000000000078E+01
             1.1626000000000028E+01    0.0000000000000000E+00    3.1352000000000078E+01
             1.1626000000000028E+01    2.9550000000000125E+00    3.1352000000000078E+01
             1.1626000000000028E+01    5.9110000000000129E+00    3.1352000000000078E+01
             1.4780000000000031E+00    1.4780000000000031E+00    3.3442000000000093E+01
             1.4780000000000031E+00    4.4330000000000132E+00    3.3442000000000093E+01
             1.4780000000000031E+00    7.3890000000000242E+00    3.3442000000000093E+01
             4.4340000000000170E+00    1.4780000000000031E+00    3.3442000000000093E+01
             4.4340000000000170E+00    4.4330000000000132E+00    3.3442000000000093E+01
             4.4340000000000170E+00    7.3890000000000242E+00    3.3442000000000093E+01
             7.1920000000000170E+00    1.4780000000000031E+00    3.3442000000000093E+01
             7.1920000000000170E+00    4.4330000000000132E+00    3.3442000000000093E+01
             7.1920000000000170E+00    7.3890000000000242E+00    3.3442000000000093E+01
             1.0148000000000028E+01    1.4780000000000031E+00    3.3442000000000093E+01
             1.0148000000000028E+01    4.4330000000000132E+00    3.3442000000000093E+01
             1.0148000000000028E+01    7.3890000000000242E+00    3.3442000000000093E+01
             1.3104000000000028E+01    1.4780000000000031E+00    3.3442000000000093E+01
             1.3104000000000028E+01    4.4330000000000132E+00    3.3442000000000093E+01
             1.3104000000000028E+01    7.3890000000000242E+00    3.3442000000000093E+01
       &END COORD
       &VELOCITY
             0.0000000000000000E+00    0.0000000000000000E+00    0.0000000000000000E+00
             0.0000000000000000E+00    0.0000000000000000E+00    0.0000000000000000E+00
             0.0000000000000000E+00    0.0000000000000000E+00    0.0000000000000000E+00
             0.0000000000000000E+00    0.0000000000000000E+00    0.0000000000000000E+00
             0.0000000000000000E+00    0.0000000000000000E+00    0.0000000000000000E+00
             0.0000000000000000E+00    0.0000000000000000E+00    0.0000000000000000E+00
             0.0000000000000000E+00    0.0000000000000000E+00    0.0000000000000000E+00
             0.0000000000000000E+00    0.0000000000000000E+00    0.0000000000000000E+00
             0.0000000000000000E+00    0.0000000000000000E+00    0.0000000000000000E+00
             0.0000000000000000E+00    0.0000000000000000E+00    0.0000000000000000E+00
             0.0000000000000000E+00    0.0000000000000000E+00    0.0000000000000000E+00
             0.0000000000000000E+00    0.0000000000000000E+00    0.0000000000000000E+00
             0.0000000000000000E+00    0.0000000000000000E+00    0.0000000000000000E+00
             0.0000000000000000E+00    0.0000000000000000E+00    0.0000000000000000E+00
             0.0000000000000000E+00    0.0000000000000000E+00    0.0000000000000000E+00
             0.0000000000000000E+00    0.0000000000000000E+00    0.0000000000000000E+00
             0.0000000000000000E+00    0.0000000000000000E+00    0.0000000000000000E+00
             0.0000000000000000E+00    0.0000000000000000E+00    0.0000000000000000E+00
             0.0000000000000000E+00    0.0000000000000000E+00    0.0000000000000000E+00
             0.0000000000000000E+00    0.0000000000000000E+00    0.0000000000000000E+00
             0.0000000000000000E+00    0.0000000000000000E+00    0.0000000000000000E+00
             0.0000000000000000E+00    0.0000000000000000E+00    0.0000000000000000E+00
             0.0000000000000000E+00    0.0000000000000000E+00    0.0000000000000000E+00
             0.0000000000000000E+00    0.0000000000000000E+00    0.0000000000000000E+00
             0.0000000000000000E+00    0.0000000000000000E+00    0.0000000000000000E+00
             0.0000000000000000E+00    0.0000000000000000E+00    0.0000000000000000E+00
             0.0000000000000000E+00    0.0000000000000000E+00    0.0000000000000000E+00
             0.0000000000000000E+00    0.0000000000000000E+00    0.0000000000000000E+00
             0.0000000000000000E+00    0.0000000000000000E+00    0.0000000000000000E+00
             0.0000000000000000E+00    0.0000000000000000E+00    0.0000000000000000E+00
             0.0000000000000000E+00    0.0000000000000000E+00    0.0000000000000000E+00
             0.0000000000000000E+00    0.0000000000000000E+00    0.0000000000000000E+00
             0.0000000000000000E+00    0.0000000000000000E+00    0.0000000000000000E+00
             0.0000000000000000E+00    0.0000000000000000E+00    0.0000000000000000E+00
             0.0000000000000000E+00    0.0000000000000000E+00    0.0000000000000000E+00
             0.0000000000000000E+00    0.0000000000000000E+00    0.0000000000000000E+00
             0.0000000000000000E+00    0.0000000000000000E+00    0.0000000000000000E+00
             0.0000000000000000E+00    0.0000000000000000E+00    0.0000000000000000E+00
             0.0000000000000000E+00    0.0000000000000000E+00    0.0000000000000000E+00
             0.0000000000000000E+00    0.0000000000000000E+00    0.0000000000000000E+00
             0.0000000000000000E+00    0.0000000000000000E+00    0.0000000000000000E+00
             0.0000000000000000E+00    0.0000000000000000E+00    0.0000000000000000E+00
             0.0000000000000000E+00    0.0000000000000000E+00    0.0000000000000000E+00
             0.0000000000000000E+00    0.0000000000000000E+00    0.0000000000000000E+00
             0.0000000000000000E+00    0.0000000000000000E+00    0.0000000000000000E+00
             0.0000000000000000E+00    0.0000000000000000E+00    0.0000000000000000E+00
             0.0000000000000000E+00    0.0000000000000000E+00    0.0000000000000000E+00
             0.0000000000000000E+00    0.0000000000000000E+00    0.0000000000000000E+00
             0.0000000000000000E+00    0.0000000000000000E+00    0.0000000000000000E+00
             0.0000000000000000E+00    0.0000000000000000E+00    0.0000000000000000E+00
             0.0000000000000000E+00    0.0000000000000000E+00    0.0000000000000000E+00
             0.0000000000000000E+00    0.0000000000000000E+00    0.0000000000000000E+00
             0.0000000000000000E+00    0.0000000000000000E+00    0.0000000000000000E+00
             0.0000000000000000E+00    0.0000000000000000E+00    0.0000000000000000E+00
             0.0000000000000000E+00    0.0000000000000000E+00    0.0000000000000000E+00
             0.0000000000000000E+00    0.0000000000000000E+00    0.0000000000000000E+00
             0.0000000000000000E+00    0.0000000000000000E+00    0.0000000000000000E+00
             0.0000000000000000E+00    0.0000000000000000E+00    0.0000000000000000E+00
             0.0000000000000000E+00    0.0000000000000000E+00    0.0000000000000000E+00
             0.0000000000000000E+00    0.0000000000000000E+00    0.0000000000000000E+00
             0.0000000000000000E+00    0.0000000000000000E+00    0.0000000000000000E+00
             0.0000000000000000E+00    0.0000000000000000E+00    0.0000000000000000E+00
             0.0000000000000000E+00    0.0000000000000000E+00    0.0000000000000000E+00
             0.0000000000000000E+00    0.0000000000000000E+00    0.0000000000000000E+00
             0.0000000000000000E+00    0.0000000000000000E+00    0.0000000000000000E+00
             0.0000000000000000E+00    0.0000000000000000E+00    0.0000000000000000E+00
             0.0000000000000000E+00    0.0000000000000000E+00    0.0000000000000000E+00
             0.0000000000000000E+00    0.0000000000000000E+00    0.0000000000000000E+00
             0.0000000000000000E+00    0.0000000000000000E+00    0.0000000000000000E+00
             0.0000000000000000E+00    0.0000000000000000E+00    0.0000000000000000E+00
             0.0000000000000000E+00    0.0000000000000000E+00    0.0000000000000000E+00
             0.0000000000000000E+00    0.0000000000000000E+00    0.0000000000000000E+00
             0.0000000000000000E+00    0.0000000000000000E+00    0.0000000000000000E+00
             0.0000000000000000E+00    0.0000000000000000E+00    0.0000000000000000E+00
             0.0000000000000000E+00    0.0000000000000000E+00    0.0000000000000000E+00
             0.0000000000000000E+00    0.0000000000000000E+00    0.0000000000000000E+00
             0.0000000000000000E+00    0.0000000000000000E+00    0.0000000000000000E+00
             0.0000000000000000E+00    0.0000000000000000E+00    0.0000000000000000E+00
             0.0000000000000000E+00    0.0000000000000000E+00    0.0000000000000000E+00
             0.0000000000000000E+00    0.0000000000000000E+00    0.0000000000000000E+00
             0.0000000000000000E+00    0.0000000000000000E+00    0.0000000000000000E+00
             0.0000000000000000E+00    0.0000000000000000E+00    0.0000000000000000E+00
             0.0000000000000000E+00    0.0000000000000000E+00    0.0000000000000000E+00
             0.0000000000000000E+00    0.0000000000000000E+00    0.0000000000000000E+00
             0.0000000000000000E+00    0.0000000000000000E+00    0.0000000000000000E+00
             0.0000000000000000E+00    0.0000000000000000E+00    0.0000000000000000E+00
             0.0000000000000000E+00    0.0000000000000000E+00    0.0000000000000000E+00
             0.0000000000000000E+00    0.0000000000000000E+00    0.0000000000000000E+00
             0.0000000000000000E+00    0.0000000000000000E+00    0.0000000000000000E+00
             0.0000000000000000E+00    0.0000000000000000E+00    0.0000000000000000E+00
             0.0000000000000000E+00    0.0000000000000000E+00    0.0000000000000000E+00
             0.0000000000000000E+00    0.0000000000000000E+00    0.0000000000000000E+00
             0.0000000000000000E+00    0.0000000000000000E+00    0.0000000000000000E+00
             0.0000000000000000E+00    0.0000000000000000E+00    0.0000000000000000E+00
             0.0000000000000000E+00    0.0000000000000000E+00    0.0000000000000000E+00
             0.0000000000000000E+00    0.0000000000000000E+00    0.0000000000000000E+00
             0.0000000000000000E+00    0.0000000000000000E+00    0.0000000000000000E+00
             0.0000000000000000E+00    0.0000000000000000E+00    0.0000000000000000E+00
             0.0000000000000000E+00    0.0000000000000000E+00    0.0000000000000000E+00
             0.0000000000000000E+00    0.0000000000000000E+00    0.0000000000000000E+00
             0.0000000000000000E+00    0.0000000000000000E+00    0.0000000000000000E+00
             0.0000000000000000E+00    0.0000000000000000E+00    0.0000000000000000E+00
             0.0000000000000000E+00    0.0000000000000000E+00    0.0000000000000000E+00
             0.0000000000000000E+00    0.0000000000000000E+00    0.0000000000000000E+00
             0.0000000000000000E+00    0.0000000000000000E+00    0.0000000000000000E+00
             0.0000000000000000E+00    0.0000000000000000E+00    0.0000000000000000E+00
             0.0000000000000000E+00    0.0000000000000000E+00    0.0000000000000000E+00
             0.0000000000000000E+00    0.0000000000000000E+00    0.0000000000000000E+00
             0.0000000000000000E+00    0.0000000000000000E+00    0.0000000000000000E+00
             0.0000000000000000E+00    0.0000000000000000E+00    0.0000000000000000E+00
             0.0000000000000000E+00    0.0000000000000000E+00    0.0000000000000000E+00
             0.0000000000000000E+00    0.0000000000000000E+00    0.0000000000000000E+00
             0.0000000000000000E+00    0.0000000000000000E+00    0.0000000000000000E+00
             0.0000000000000000E+00    0.0000000000000000E+00    0.0000000000000000E+00
             0.0000000000000000E+00    0.0000000000000000E+00    0.0000000000000000E+00
             0.0000000000000000E+00    0.0000000000000000E+00    0.0000000000000000E+00
             0.0000000000000000E+00    0.0000000000000000E+00    0.0000000000000000E+00
             0.0000000000000000E+00    0.0000000000000000E+00    0.0000000000000000E+00
             0.0000000000000000E+00    0.0000000000000000E+00    0.0000000000000000E+00
             0.0000000000000000E+00    0.0000000000000000E+00    0.0000000000000000E+00
             0.0000000000000000E+00    0.0000000000000000E+00    0.0000000000000000E+00
             0.0000000000000000E+00    0.0000000000000000E+00    0.0000000000000000E+00
             0.0000000000000000E+00    0.0000000000000000E+00    0.0000000000000000E+00
             0.0000000000000000E+00    0.0000000000000000E+00    0.0000000000000000E+00
             0.0000000000000000E+00    0.0000000000000000E+00    0.0000000000000000E+00
             0.0000000000000000E+00    0.0000000000000000E+00    0.0000000000000000E+00
             0.0000000000000000E+00    0.0000000000000000E+00    0.0000000000000000E+00
             0.0000000000000000E+00    0.0000000000000000E+00    0.0000000000000000E+00
             0.0000000000000000E+00    0.0000000000000000E+00    0.0000000000000000E+00
             0.0000000000000000E+00    0.0000000000000000E+00    0.0000000000000000E+00
             0.0000000000000000E+00    0.0000000000000000E+00    0.0000000000000000E+00
             0.0000000000000000E+00    0.0000000000000000E+00    0.0000000000000000E+00
             0.0000000000000000E+00    0.0000000000000000E+00    0.0000000000000000E+00
             0.0000000000000000E+00    0.0000000000000000E+00    0.0000000000000000E+00
             0.0000000000000000E+00    0.0000000000000000E+00    0.0000000000000000E+00
             0.0000000000000000E+00    0.0000000000000000E+00    0.0000000000000000E+00
             0.0000000000000000E+00    0.0000000000000000E+00    0.0000000000000000E+00
             0.0000000000000000E+00    0.0000000000000000E+00    0.0000000000000000E+00
             0.0000000000000000E+00    0.0000000000000000E+00    0.0000000000000000E+00
             0.0000000000000000E+00    0.0000000000000000E+00    0.0000000000000000E+00
             0.0000000000000000E+00    0.0000000000000000E+00    0.0000000000000000E+00
             0.0000000000000000E+00    0.0000000000000000E+00    0.0000000000000000E+00
             0.0000000000000000E+00    0.0000000000000000E+00    0.0000000000000000E+00
             0.0000000000000000E+00    0.0000000000000000E+00    0.0000000000000000E+00
             0.0000000000000000E+00    0.0000000000000000E+00    0.0000000000000000E+00