 # Version information for this restart file 
 # current date 2024-01-13 04:20:15.754
 # current working dir /gpfs/home/cahart/transport/melamine/au_from-h2/ci-neb/ts2-fixed/dft_leads-sz_tip-dzvp_surf-dzvp_kpoints-2-4-20_replicas-7
 # Program compiled at                              Thu 21 Sep 19:20:17 BST 2023
 # Program compiled on                                           hx1-c12-login-1
 # Program compiled for                                                    local
 # Source code revision number                                       git:5518aa6
 &GLOBAL
   EXTENDED_FFT_LENGTHS  T
   PRINT_LEVEL  MEDIUM
   PROJECT_NAME 2_dft_wfn-r-0
   OUTPUT_FILE_NAME 2_dft_wfn-r-0.out
   RUN_TYPE  BAND
 &END GLOBAL
 &MOTION
   &BAND
     NPROC_REP  64
     BAND_TYPE  CI-NEB
     NUMBER_OF_REPLICA  7
     K_SPRING     5.0000000000000003E-02
     &CI_NEB
       NSTEPS_IT  5
     &END CI_NEB
     &OPTIMIZE_BAND
       OPT_TYPE  DIIS
       &DIIS
         MAX_STEPS  1000
       &END DIIS
     &END OPTIMIZE_BAND
     &REPLICA
       &COORD
             0.0000000000000000E+00    0.0000000000000000E+00    0.0000000000000000E+00
             0.0000000000000000E+00    2.9550000000000112E+00    0.0000000000000000E+00
             0.0000000000000000E+00    5.9110000000000102E+00    0.0000000000000000E+00
             2.9560000000000048E+00    0.0000000000000000E+00    0.0000000000000000E+00
             2.9560000000000048E+00    2.9550000000000112E+00    0.0000000000000000E+00
             2.9560000000000048E+00    5.9110000000000102E+00    0.0000000000000000E+00
             5.9120000000000097E+00    0.0000000000000000E+00    0.0000000000000000E+00
             5.9120000000000097E+00    2.9550000000000112E+00    0.0000000000000000E+00
             5.9120000000000097E+00    5.9110000000000102E+00    0.0000000000000000E+00
             8.6700000000000177E+00    0.0000000000000000E+00    0.0000000000000000E+00
             8.6700000000000177E+00    2.9550000000000112E+00    0.0000000000000000E+00
             8.6700000000000177E+00    5.9110000000000102E+00    0.0000000000000000E+00
             1.1626000000000023E+01    0.0000000000000000E+00    0.0000000000000000E+00
             1.1626000000000023E+01    2.9550000000000112E+00    0.0000000000000000E+00
             1.1626000000000023E+01    5.9110000000000102E+00    0.0000000000000000E+00
             1.4780000000000024E+00    1.4780000000000024E+00    2.0900000000000025E+00
             1.4780000000000024E+00    4.4330000000000114E+00    2.0900000000000025E+00
             1.4780000000000024E+00    7.3890000000000207E+00    2.0900000000000025E+00
             4.4340000000000162E+00    1.4780000000000024E+00    2.0900000000000025E+00
             4.4340000000000162E+00    4.4330000000000114E+00    2.0900000000000025E+00
             4.4340000000000162E+00    7.3890000000000207E+00    2.0900000000000025E+00
             7.1920000000000144E+00    1.4780000000000024E+00    2.0900000000000025E+00
             7.1920000000000144E+00    4.4330000000000114E+00    2.0900000000000025E+00
             7.1920000000000144E+00    7.3890000000000207E+00    2.0900000000000025E+00
             1.0148000000000025E+01    1.4780000000000024E+00    2.0900000000000025E+00
             1.0148000000000025E+01    4.4330000000000114E+00    2.0900000000000025E+00
             1.0148000000000025E+01    7.3890000000000207E+00    2.0900000000000025E+00
             1.3104000000000022E+01    1.4780000000000024E+00    2.0900000000000025E+00
             1.3104000000000022E+01    4.4330000000000114E+00    2.0900000000000025E+00
             1.3104000000000022E+01    7.3890000000000207E+00    2.0900000000000025E+00
             0.0000000000000000E+00    0.0000000000000000E+00    4.1800000000000050E+00
             0.0000000000000000E+00    2.9550000000000112E+00    4.1800000000000050E+00
             0.0000000000000000E+00    5.9110000000000102E+00    4.1800000000000050E+00
             2.9560000000000048E+00    0.0000000000000000E+00    4.1800000000000050E+00
             2.9560000000000048E+00    2.9550000000000112E+00    4.1800000000000050E+00
             2.9560000000000048E+00    5.9110000000000102E+00    4.1800000000000050E+00
             5.9120000000000097E+00    0.0000000000000000E+00    4.1800000000000050E+00
             5.9120000000000097E+00    2.9550000000000112E+00    4.1800000000000050E+00
             5.9120000000000097E+00    5.9110000000000102E+00    4.1800000000000050E+00
             8.6700000000000177E+00    0.0000000000000000E+00    4.1800000000000050E+00
             8.6700000000000177E+00    2.9550000000000112E+00    4.1800000000000050E+00
             8.6700000000000177E+00    5.9110000000000102E+00    4.1800000000000050E+00
             1.1626000000000023E+01    0.0000000000000000E+00    4.1800000000000050E+00
             1.1626000000000023E+01    2.9550000000000112E+00    4.1800000000000050E+00
             1.1626000000000023E+01    5.9110000000000102E+00    4.1800000000000050E+00
             1.4780000000000024E+00    1.4780000000000024E+00    6.2700000000000218E+00
             1.4780000000000024E+00    4.4330000000000114E+00    6.2700000000000218E+00
             1.4780000000000024E+00    7.3890000000000207E+00    6.2700000000000218E+00
             4.4340000000000162E+00    1.4780000000000024E+00    6.2700000000000218E+00
             4.4340000000000162E+00    4.4330000000000114E+00    6.2700000000000218E+00
             4.4340000000000162E+00    7.3890000000000207E+00    6.2700000000000218E+00
             7.1920000000000144E+00    1.4780000000000024E+00    6.2700000000000218E+00
             7.1920000000000144E+00    4.4330000000000114E+00    6.2700000000000218E+00
             7.1920000000000144E+00    7.3890000000000207E+00    6.2700000000000218E+00
             1.0148000000000025E+01    1.4780000000000024E+00    6.2700000000000218E+00
             1.0148000000000025E+01    4.4330000000000114E+00    6.2700000000000218E+00
             1.0148000000000025E+01    7.3890000000000207E+00    6.2700000000000218E+00
             1.3104000000000022E+01    1.4780000000000024E+00    6.2700000000000218E+00
             1.3104000000000022E+01    4.4330000000000114E+00    6.2700000000000218E+00
             1.3104000000000022E+01    7.3890000000000207E+00    6.2700000000000218E+00
             0.0000000000000000E+00    0.0000000000000000E+00    8.3600000000000101E+00
             0.0000000000000000E+00    2.9550000000000112E+00    8.3600000000000101E+00
             0.0000000000000000E+00    5.9110000000000102E+00    8.3600000000000101E+00
             2.9560000000000048E+00    0.0000000000000000E+00    8.3600000000000101E+00
             2.9560000000000048E+00    2.9550000000000112E+00    8.3600000000000101E+00
             2.9560000000000048E+00    5.9110000000000102E+00    8.3600000000000101E+00
             5.9120000000000097E+00    0.0000000000000000E+00    8.3600000000000101E+00
             5.9120000000000097E+00    2.9550000000000112E+00    8.3600000000000101E+00
             5.9120000000000097E+00    5.9110000000000102E+00    8.3600000000000101E+00
             8.6700000000000177E+00    0.0000000000000000E+00    8.3600000000000101E+00
             8.6700000000000177E+00    2.9550000000000112E+00    8.3600000000000101E+00
             8.6700000000000177E+00    5.9110000000000102E+00    8.3600000000000101E+00
             1.1626000000000023E+01    0.0000000000000000E+00    8.3600000000000101E+00
             1.1626000000000023E+01    2.9550000000000112E+00    8.3600000000000101E+00
             1.1626000000000023E+01    5.9110000000000102E+00    8.3600000000000101E+00
             1.4780000000000024E+00    1.4780000000000024E+00    1.0450000000000003E+01
             1.4780000000000024E+00    4.4330000000000114E+00    1.0450000000000003E+01
             1.4780000000000024E+00    7.3890000000000207E+00    1.0450000000000003E+01
             4.4340000000000162E+00    1.4780000000000024E+00    1.0450000000000003E+01
             4.4340000000000162E+00    4.4330000000000114E+00    1.0450000000000003E+01
             4.4340000000000162E+00    7.3890000000000207E+00    1.0450000000000003E+01
             7.1920000000000144E+00    1.4780000000000024E+00    1.0450000000000003E+01
             7.1920000000000144E+00    4.4330000000000114E+00    1.0450000000000003E+01
             7.1920000000000144E+00    7.3890000000000207E+00    1.0450000000000003E+01
             1.0148000000000025E+01    1.4780000000000024E+00    1.0450000000000003E+01
             1.0148000000000025E+01    4.4330000000000114E+00    1.0450000000000003E+01
             1.0148000000000025E+01    7.3890000000000207E+00    1.0450000000000003E+01
             1.3104000000000022E+01    1.4780000000000024E+00    1.0450000000000003E+01
             1.3104000000000022E+01    4.4330000000000114E+00    1.0450000000000003E+01
             1.3104000000000022E+01    7.3890000000000207E+00    1.0450000000000003E+01
             4.8554000000000164E+00    5.9119000000000153E+00    1.2031800000000034E+01
             9.5280000000000360E+00    5.9137000000000164E+00    1.2034000000000036E+01
             7.1920000000000144E+00    5.9340000000000259E+00    1.2040000000000028E+01
             4.0673339928000107E+00    5.9059993220000147E+00    1.2687741368900030E+01
             1.0318905404800022E+01    5.9087793826000254E+00    1.2685747073200019E+01
             5.9989554222000114E+00    5.9152564166000126E+00    1.2792642411200033E+01
             8.3738707293000250E+00    5.9179777707000136E+00    1.2731457252200029E+01
             8.3227525762000312E+00    5.9051536095000197E+00    1.4080497642100028E+01
             5.9344285049000129E+00    5.8981604865000090E+00    1.4101749969600027E+01
             7.1039653577000088E+00    5.8899410689000096E+00    1.4828703219100039E+01
             7.2416021047000356E+00    5.8657702092000070E+00    1.6106466757300030E+01
             6.3118250323000176E+00    5.8547577071000161E+00    1.6539601306200055E+01
             9.1743570613000234E+00    5.8876302392000142E+00    1.4641017735300016E+01
             7.3120000000000172E+00    5.9340000000000259E+00    2.1043000000000060E+01
             5.8130000000000113E+00    7.4340000000000135E+00    2.2992000000000061E+01
             8.8130000000000255E+00    4.4340000000000162E+00    2.2992000000000061E+01
             5.8130000000000113E+00    4.4330000000000114E+00    2.2992000000000061E+01
             8.8130000000000255E+00    7.4340000000000135E+00    2.2992000000000061E+01
             1.4780000000000024E+00    1.4780000000000024E+00    2.5082000000000040E+01
             1.4780000000000024E+00    4.4330000000000114E+00    2.5082000000000040E+01
             1.4780000000000024E+00    7.3890000000000207E+00    2.5082000000000040E+01
             4.4340000000000162E+00    1.4780000000000024E+00    2.5082000000000040E+01
             4.4340000000000162E+00    4.4330000000000114E+00    2.5082000000000040E+01
             4.4340000000000162E+00    7.3890000000000207E+00    2.5082000000000040E+01
             7.1920000000000144E+00    1.4780000000000024E+00    2.5082000000000040E+01
             7.1920000000000144E+00    4.4330000000000114E+00    2.5082000000000040E+01
             7.1920000000000144E+00    7.3890000000000207E+00    2.5082000000000040E+01
             1.0148000000000025E+01    1.4780000000000024E+00    2.5082000000000040E+01
             1.0148000000000025E+01    4.4330000000000114E+00    2.5082000000000040E+01
             1.0148000000000025E+01    7.3890000000000207E+00    2.5082000000000040E+01
             1.3104000000000022E+01    1.4780000000000024E+00    2.5082000000000040E+01
             1.3104000000000022E+01    4.4330000000000114E+00    2.5082000000000040E+01
             1.3104000000000022E+01    7.3890000000000207E+00    2.5082000000000040E+01
             0.0000000000000000E+00    0.0000000000000000E+00    2.7172000000000093E+01
             0.0000000000000000E+00    2.9550000000000112E+00    2.7172000000000093E+01
             0.0000000000000000E+00    5.9110000000000102E+00    2.7172000000000093E+01
             2.9560000000000048E+00    0.0000000000000000E+00    2.7172000000000093E+01
             2.9560000000000048E+00    2.9550000000000112E+00    2.7172000000000093E+01
             2.9560000000000048E+00    5.9110000000000102E+00    2.7172000000000093E+01
             5.9120000000000097E+00    0.0000000000000000E+00    2.7172000000000093E+01
             5.9120000000000097E+00    2.9550000000000112E+00    2.7172000000000093E+01
             5.9120000000000097E+00    5.9110000000000102E+00    2.7172000000000093E+01
             8.6700000000000177E+00    0.0000000000000000E+00    2.7172000000000093E+01
             8.6700000000000177E+00    2.9550000000000112E+00    2.7172000000000093E+01
             8.6700000000000177E+00    5.9110000000000102E+00    2.7172000000000093E+01
             1.1626000000000023E+01    0.0000000000000000E+00    2.7172000000000093E+01
             1.1626000000000023E+01    2.9550000000000112E+00    2.7172000000000093E+01
             1.1626000000000023E+01    5.9110000000000102E+00    2.7172000000000093E+01
             1.4780000000000024E+00    1.4780000000000024E+00    2.9262000000000072E+01
             1.4780000000000024E+00    4.4330000000000114E+00    2.9262000000000072E+01
             1.4780000000000024E+00    7.3890000000000207E+00    2.9262000000000072E+01
             4.4340000000000162E+00    1.4780000000000024E+00    2.9262000000000072E+01
             4.4340000000000162E+00    4.4330000000000114E+00    2.9262000000000072E+01
             4.4340000000000162E+00    7.3890000000000207E+00    2.9262000000000072E+01
             7.1920000000000144E+00    1.4780000000000024E+00    2.9262000000000072E+01
             7.1920000000000144E+00    4.4330000000000114E+00    2.9262000000000072E+01
             7.1920000000000144E+00    7.3890000000000207E+00    2.9262000000000072E+01
             1.0148000000000025E+01    1.4780000000000024E+00    2.9262000000000072E+01
             1.0148000000000025E+01    4.4330000000000114E+00    2.9262000000000072E+01
             1.0148000000000025E+01    7.3890000000000207E+00    2.9262000000000072E+01
             1.3104000000000022E+01    1.4780000000000024E+00    2.9262000000000072E+01
             1.3104000000000022E+01    4.4330000000000114E+00    2.9262000000000072E+01
             1.3104000000000022E+01    7.3890000000000207E+00    2.9262000000000072E+01
             0.0000000000000000E+00    0.0000000000000000E+00    3.1352000000000064E+01
             0.0000000000000000E+00    2.9550000000000112E+00    3.1352000000000064E+01
             0.0000000000000000E+00    5.9110000000000102E+00    3.1352000000000064E+01
             2.9560000000000048E+00    0.0000000000000000E+00    3.1352000000000064E+01
             2.9560000000000048E+00    2.9550000000000112E+00    3.1352000000000064E+01
             2.9560000000000048E+00    5.9110000000000102E+00    3.1352000000000064E+01
             5.9120000000000097E+00    0.0000000000000000E+00    3.1352000000000064E+01
             5.9120000000000097E+00    2.9550000000000112E+00    3.1352000000000064E+01
             5.9120000000000097E+00    5.9110000000000102E+00    3.1352000000000064E+01
             8.6700000000000177E+00    0.0000000000000000E+00    3.1352000000000064E+01
             8.6700000000000177E+00    2.9550000000000112E+00    3.1352000000000064E+01
             8.6700000000000177E+00    5.9110000000000102E+00    3.1352000000000064E+01
             1.1626000000000023E+01    0.0000000000000000E+00    3.1352000000000064E+01
             1.1626000000000023E+01    2.9550000000000112E+00    3.1352000000000064E+01
             1.1626000000000023E+01    5.9110000000000102E+00    3.1352000000000064E+01
             1.4780000000000024E+00    1.4780000000000024E+00    3.3442000000000071E+01
             1.4780000000000024E+00    4.4330000000000114E+00    3.3442000000000071E+01
             1.4780000000000024E+00    7.3890000000000207E+00    3.3442000000000071E+01
             4.4340000000000162E+00    1.4780000000000024E+00    3.3442000000000071E+01
             4.4340000000000162E+00    4.4330000000000114E+00    3.3442000000000071E+01
             4.4340000000000162E+00    7.3890000000000207E+00    3.3442000000000071E+01
             7.1920000000000144E+00    1.4780000000000024E+00    3.3442000000000071E+01
             7.1920000000000144E+00    4.4330000000000114E+00    3.3442000000000071E+01
             7.1920000000000144E+00    7.3890000000000207E+00    3.3442000000000071E+01
             1.0148000000000025E+01    1.4780000000000024E+00    3.3442000000000071E+01
             1.0148000000000025E+01    4.4330000000000114E+00    3.3442000000000071E+01
             1.0148000000000025E+01    7.3890000000000207E+00    3.3442000000000071E+01
             1.3104000000000022E+01    1.4780000000000024E+00    3.3442000000000071E+01
             1.3104000000000022E+01    4.4330000000000114E+00    3.3442000000000071E+01
             1.3104000000000022E+01    7.3890000000000207E+00    3.3442000000000071E+01
       &END COORD
       &VELOCITY
             0.0000000000000000E+00    0.0000000000000000E+00    0.0000000000000000E+00
             0.0000000000000000E+00    0.0000000000000000E+00    0.0000000000000000E+00
             0.0000000000000000E+00    0.0000000000000000E+00    0.0000000000000000E+00
             0.0000000000000000E+00    0.0000000000000000E+00    0.0000000000000000E+00
             0.0000000000000000E+00    0.0000000000000000E+00    0.0000000000000000E+00
             0.0000000000000000E+00    0.0000000000000000E+00    0.0000000000000000E+00
             0.0000000000000000E+00    0.0000000000000000E+00    0.0000000000000000E+00
             0.0000000000000000E+00    0.0000000000000000E+00    0.0000000000000000E+00
             0.0000000000000000E+00    0.0000000000000000E+00    0.0000000000000000E+00
             0.0000000000000000E+00    0.0000000000000000E+00    0.0000000000000000E+00
             0.0000000000000000E+00    0.0000000000000000E+00    0.0000000000000000E+00
             0.0000000000000000E+00    0.0000000000000000E+00    0.0000000000000000E+00
             0.0000000000000000E+00    0.0000000000000000E+00    0.0000000000000000E+00
             0.0000000000000000E+00    0.0000000000000000E+00    0.0000000000000000E+00
             0.0000000000000000E+00    0.0000000000000000E+00    0.0000000000000000E+00
             0.0000000000000000E+00    0.0000000000000000E+00    0.0000000000000000E+00
             0.0000000000000000E+00    0.0000000000000000E+00    0.0000000000000000E+00
             0.0000000000000000E+00    0.0000000000000000E+00    0.0000000000000000E+00
             0.0000000000000000E+00    0.0000000000000000E+00    0.0000000000000000E+00
             0.0000000000000000E+00    0.0000000000000000E+00    0.0000000000000000E+00
             0.0000000000000000E+00    0.0000000000000000E+00    0.0000000000000000E+00
             0.0000000000000000E+00    0.0000000000000000E+00    0.0000000000000000E+00
             0.0000000000000000E+00    0.0000000000000000E+00    0.0000000000000000E+00
             0.0000000000000000E+00    0.0000000000000000E+00    0.0000000000000000E+00
             0.0000000000000000E+00    0.0000000000000000E+00    0.0000000000000000E+00
             0.0000000000000000E+00    0.0000000000000000E+00    0.0000000000000000E+00
             0.0000000000000000E+00    0.0000000000000000E+00    0.0000000000000000E+00
             0.0000000000000000E+00    0.0000000000000000E+00    0.0000000000000000E+00
             0.0000000000000000E+00    0.0000000000000000E+00    0.0000000000000000E+00
             0.0000000000000000E+00    0.0000000000000000E+00    0.0000000000000000E+00
             0.0000000000000000E+00    0.0000000000000000E+00    0.0000000000000000E+00
             0.0000000000000000E+00    0.0000000000000000E+00    0.0000000000000000E+00
             0.0000000000000000E+00    0.0000000000000000E+00    0.0000000000000000E+00
             0.0000000000000000E+00    0.0000000000000000E+00    0.0000000000000000E+00
             0.0000000000000000E+00    0.0000000000000000E+00    0.0000000000000000E+00
             0.0000000000000000E+00    0.0000000000000000E+00    0.0000000000000000E+00
             0.0000000000000000E+00    0.0000000000000000E+00    0.0000000000000000E+00
             0.0000000000000000E+00    0.0000000000000000E+00    0.0000000000000000E+00
             0.0000000000000000E+00    0.0000000000000000E+00    0.0000000000000000E+00
             0.0000000000000000E+00    0.0000000000000000E+00    0.0000000000000000E+00
             0.0000000000000000E+00    0.0000000000000000E+00    0.0000000000000000E+00
             0.0000000000000000E+00    0.0000000000000000E+00    0.0000000000000000E+00
             0.0000000000000000E+00    0.0000000000000000E+00    0.0000000000000000E+00
             0.0000000000000000E+00    0.0000000000000000E+00    0.0000000000000000E+00
             0.0000000000000000E+00    0.0000000000000000E+00    0.0000000000000000E+00
             0.0000000000000000E+00    0.0000000000000000E+00    0.0000000000000000E+00
             0.0000000000000000E+00    0.0000000000000000E+00    0.0000000000000000E+00
             0.0000000000000000E+00    0.0000000000000000E+00    0.0000000000000000E+00
             0.0000000000000000E+00    0.0000000000000000E+00    0.0000000000000000E+00
             0.0000000000000000E+00    0.0000000000000000E+00    0.0000000000000000E+00
             0.0000000000000000E+00    0.0000000000000000E+00    0.0000000000000000E+00
             0.0000000000000000E+00    0.0000000000000000E+00    0.0000000000000000E+00
             0.0000000000000000E+00    0.0000000000000000E+00    0.0000000000000000E+00
             0.0000000000000000E+00    0.0000000000000000E+00    0.0000000000000000E+00
             0.0000000000000000E+00    0.0000000000000000E+00    0.0000000000000000E+00
             0.0000000000000000E+00    0.0000000000000000E+00    0.0000000000000000E+00
             0.0000000000000000E+00    0.0000000000000000E+00    0.0000000000000000E+00
             0.0000000000000000E+00    0.0000000000000000E+00    0.0000000000000000E+00
             0.0000000000000000E+00    0.0000000000000000E+00    0.0000000000000000E+00
             0.0000000000000000E+00    0.0000000000000000E+00    0.0000000000000000E+00
             0.0000000000000000E+00    0.0000000000000000E+00    0.0000000000000000E+00
             0.0000000000000000E+00    0.0000000000000000E+00    0.0000000000000000E+00
             0.0000000000000000E+00    0.0000000000000000E+00    0.0000000000000000E+00
             0.0000000000000000E+00    0.0000000000000000E+00    0.0000000000000000E+00
             0.0000000000000000E+00    0.0000000000000000E+00    0.0000000000000000E+00
             0.0000000000000000E+00    0.0000000000000000E+00    0.0000000000000000E+00
             0.0000000000000000E+00    0.0000000000000000E+00    0.0000000000000000E+00
             0.0000000000000000E+00    0.0000000000000000E+00    0.0000000000000000E+00
             0.0000000000000000E+00    0.0000000000000000E+00    0.0000000000000000E+00
             0.0000000000000000E+00    0.0000000000000000E+00    0.0000000000000000E+00
             0.0000000000000000E+00    0.0000000000000000E+00    0.0000000000000000E+00
             0.0000000000000000E+00    0.0000000000000000E+00    0.0000000000000000E+00
             0.0000000000000000E+00    0.0000000000000000E+00    0.0000000000000000E+00
             0.0000000000000000E+00    0.0000000000000000E+00    0.0000000000000000E+00
             0.0000000000000000E+00    0.0000000000000000E+00    0.0000000000000000E+00
             0.0000000000000000E+00    0.0000000000000000E+00    0.0000000000000000E+00
             0.0000000000000000E+00    0.0000000000000000E+00    0.0000000000000000E+00
             0.0000000000000000E+00    0.0000000000000000E+00    0.0000000000000000E+00
             0.0000000000000000E+00    0.0000000000000000E+00    0.0000000000000000E+00
             0.0000000000000000E+00    0.0000000000000000E+00    0.0000000000000000E+00
             0.0000000000000000E+00    0.0000000000000000E+00    0.0000000000000000E+00
             0.0000000000000000E+00    0.0000000000000000E+00    0.0000000000000000E+00
             0.0000000000000000E+00    0.0000000000000000E+00    0.0000000000000000E+00
             0.0000000000000000E+00    0.0000000000000000E+00    0.0000000000000000E+00
             0.0000000000000000E+00    0.0000000000000000E+00    0.0000000000000000E+00
             0.0000000000000000E+00    0.0000000000000000E+00    0.0000000000000000E+00
             0.0000000000000000E+00    0.0000000000000000E+00    0.0000000000000000E+00
             0.0000000000000000E+00    0.0000000000000000E+00    0.0000000000000000E+00
             0.0000000000000000E+00    0.0000000000000000E+00    0.0000000000000000E+00
             0.0000000000000000E+00    0.0000000000000000E+00    0.0000000000000000E+00
             0.0000000000000000E+00    0.0000000000000000E+00    0.0000000000000000E+00
             0.0000000000000000E+00    0.0000000000000000E+00    0.0000000000000000E+00
             0.0000000000000000E+00    0.0000000000000000E+00    0.0000000000000000E+00
             0.0000000000000000E+00    0.0000000000000000E+00    0.0000000000000000E+00
             0.0000000000000000E+00    0.0000000000000000E+00    0.0000000000000000E+00
             0.0000000000000000E+00    0.0000000000000000E+00    0.0000000000000000E+00
             0.0000000000000000E+00    0.0000000000000000E+00    0.0000000000000000E+00
             0.0000000000000000E+00    0.0000000000000000E+00    0.0000000000000000E+00
             0.0000000000000000E+00    0.0000000000000000E+00    0.0000000000000000E+00
             0.0000000000000000E+00    0.0000000000000000E+00    0.0000000000000000E+00
             0.0000000000000000E+00    0.0000000000000000E+00    0.0000000000000000E+00
             0.0000000000000000E+00    0.0000000000000000E+00    0.0000000000000000E+00
             0.0000000000000000E+00    0.0000000000000000E+00    0.0000000000000000E+00
             0.0000000000000000E+00    0.0000000000000000E+00    0.0000000000000000E+00
             0.0000000000000000E+00    0.0000000000000000E+00    0.0000000000000000E+00
             0.0000000000000000E+00    0.0000000000000000E+00    0.0000000000000000E+00
             0.0000000000000000E+00    0.0000000000000000E+00    0.0000000000000000E+00
             0.0000000000000000E+00    0.0000000000000000E+00    0.0000000000000000E+00
             0.0000000000000000E+00    0.0000000000000000E+00    0.0000000000000000E+00
             0.0000000000000000E+00    0.0000000000000000E+00    0.0000000000000000E+00
             0.0000000000000000E+00    0.0000000000000000E+00    0.0000000000000000E+00
             0.0000000000000000E+00    0.0000000000000000E+00    0.0000000000000000E+00
             0.0000000000000000E+00    0.0000000000000000E+00    0.0000000000000000E+00
             0.0000000000000000E+00    0.0000000000000000E+00    0.0000000000000000E+00
             0.0000000000000000E+00    0.0000000000000000E+00    0.0000000000000000E+00
             0.0000000000000000E+00    0.0000000000000000E+00    0.0000000000000000E+00
             0.0000000000000000E+00    0.0000000000000000E+00    0.0000000000000000E+00
             0.0000000000000000E+00    0.0000000000000000E+00    0.0000000000000000E+00
             0.0000000000000000E+00    0.0000000000000000E+00    0.0000000000000000E+00
             0.0000000000000000E+00    0.0000000000000000E+00    0.0000000000000000E+00
             0.0000000000000000E+00    0.0000000000000000E+00    0.0000000000000000E+00
             0.0000000000000000E+00    0.0000000000000000E+00    0.0000000000000000E+00
             0.0000000000000000E+00    0.0000000000000000E+00    0.0000000000000000E+00
             0.0000000000000000E+00    0.0000000000000000E+00    0.0000000000000000E+00
             0.0000000000000000E+00    0.0000000000000000E+00    0.0000000000000000E+00
             0.0000000000000000E+00    0.0000000000000000E+00    0.0000000000000000E+00
             0.0000000000000000E+00    0.0000000000000000E+00    0.0000000000000000E+00
             0.0000000000000000E+00    0.0000000000000000E+00    0.0000000000000000E+00
             0.0000000000000000E+00    0.0000000000000000E+00    0.0000000000000000E+00
             0.0000000000000000E+00    0.0000000000000000E+00    0.0000000000000000E+00
             0.0000000000000000E+00    0.0000000000000000E+00    0.0000000000000000E+00
             0.0000000000000000E+00    0.0000000000000000E+00    0.0000000000000000E+00
             0.0000000000000000E+00    0.0000000000000000E+00    0.0000000000000000E+00
             0.0000000000000000E+00    0.0000000000000000E+00    0.0000000000000000E+00
             0.0000000000000000E+00    0.0000000000000000E+00    0.0000000000000000E+00
             0.0000000000000000E+00    0.0000000000000000E+00    0.0000000000000000E+00
             0.0000000000000000E+00    0.0000000000000000E+00    0.0000000000000000E+00
             0.0000000000000000E+00    0.0000000000000000E+00    0.0000000000000000E+00
             0.0000000000000000E+00    0.0000000000000000E+00    0.0000000000000000E+00
             0.0000000000000000E+00    0.0000000000000000E+00    0.0000000000000000E+00
             0.0000000000000000E+00    0.0000000000000000E+00    0.0000000000000000E+00
             0.0000000000000000E+00    0.0000000000000000E+00    0.0000000000000000E+00
             0.0000000000000000E+00    0.0000000000000000E+00    0.0000000000000000E+00
             0.0000000000000000E+00    0.0000000000000000E+00    0.0000000000000000E+00
             0.0000000000000000E+00    0.0000000000000000E+00    0.0000000000000000E+00