 # Version information for this restart file 
 # current date 2024-01-13 13:32:57.769
 # current working dir /gpfs/home/cahart/transport/melamine/au_from-h2/ci-neb/ts2-fixed/dft_leads-sz_tip-dzvp_surf-dzvp_kpoints-2-4-20_replicas-7
 # Program compiled at                              Thu 21 Sep 19:20:17 BST 2023
 # Program compiled on                                           hx1-c12-login-1
 # Program compiled for                                                    local
 # Source code revision number                                       git:5518aa6
 &GLOBAL
   EXTENDED_FFT_LENGTHS  T
   PRINT_LEVEL  MEDIUM
   PROJECT_NAME 2_dft_wfn-r-0
   OUTPUT_FILE_NAME 2_dft_wfn-r-0.out
   RUN_TYPE  BAND
 &END GLOBAL
 &MOTION
   &BAND
     NPROC_REP  64
     BAND_TYPE  CI-NEB
     NUMBER_OF_REPLICA  7
     K_SPRING     5.0000000000000003E-02
     &CI_NEB
       NSTEPS_IT  5
     &END CI_NEB
     &OPTIMIZE_BAND
       OPT_TYPE  DIIS
       &DIIS
         MAX_STEPS  1000
       &END DIIS
     &END OPTIMIZE_BAND
     &REPLICA
       &COORD
             0.0000000000000000E+00    0.0000000000000000E+00    0.0000000000000000E+00
             0.0000000000000000E+00    2.9550000000000116E+00    0.0000000000000000E+00
             0.0000000000000000E+00    5.9110000000000138E+00    0.0000000000000000E+00
             2.9560000000000062E+00    0.0000000000000000E+00    0.0000000000000000E+00
             2.9560000000000062E+00    2.9550000000000116E+00    0.0000000000000000E+00
             2.9560000000000062E+00    5.9110000000000138E+00    0.0000000000000000E+00
             5.9120000000000124E+00    0.0000000000000000E+00    0.0000000000000000E+00
             5.9120000000000124E+00    2.9550000000000116E+00    0.0000000000000000E+00
             5.9120000000000124E+00    5.9110000000000138E+00    0.0000000000000000E+00
             8.6700000000000177E+00    0.0000000000000000E+00    0.0000000000000000E+00
             8.6700000000000177E+00    2.9550000000000116E+00    0.0000000000000000E+00
             8.6700000000000177E+00    5.9110000000000138E+00    0.0000000000000000E+00
             1.1626000000000010E+01    0.0000000000000000E+00    0.0000000000000000E+00
             1.1626000000000010E+01    2.9550000000000116E+00    0.0000000000000000E+00
             1.1626000000000010E+01    5.9110000000000138E+00    0.0000000000000000E+00
             1.4780000000000031E+00    1.4780000000000031E+00    2.0900000000000007E+00
             1.4780000000000031E+00    4.4330000000000105E+00    2.0900000000000007E+00
             1.4780000000000031E+00    7.3890000000000189E+00    2.0900000000000007E+00
             4.4340000000000144E+00    1.4780000000000031E+00    2.0900000000000007E+00
             4.4340000000000144E+00    4.4330000000000105E+00    2.0900000000000007E+00
             4.4340000000000144E+00    7.3890000000000189E+00    2.0900000000000007E+00
             7.1920000000000170E+00    1.4780000000000031E+00    2.0900000000000007E+00
             7.1920000000000170E+00    4.4330000000000105E+00    2.0900000000000007E+00
             7.1920000000000170E+00    7.3890000000000189E+00    2.0900000000000007E+00
             1.0148000000000023E+01    1.4780000000000031E+00    2.0900000000000007E+00
             1.0148000000000023E+01    4.4330000000000105E+00    2.0900000000000007E+00
             1.0148000000000023E+01    7.3890000000000189E+00    2.0900000000000007E+00
             1.3104000000000010E+01    1.4780000000000031E+00    2.0900000000000007E+00
             1.3104000000000010E+01    4.4330000000000105E+00    2.0900000000000007E+00
             1.3104000000000010E+01    7.3890000000000189E+00    2.0900000000000007E+00
             0.0000000000000000E+00    0.0000000000000000E+00    4.1800000000000015E+00
             0.0000000000000000E+00    2.9550000000000116E+00    4.1800000000000015E+00
             0.0000000000000000E+00    5.9110000000000138E+00    4.1800000000000015E+00
             2.9560000000000062E+00    0.0000000000000000E+00    4.1800000000000015E+00
             2.9560000000000062E+00    2.9550000000000116E+00    4.1800000000000015E+00
             2.9560000000000062E+00    5.9110000000000138E+00    4.1800000000000015E+00
             5.9120000000000124E+00    0.0000000000000000E+00    4.1800000000000015E+00
             5.9120000000000124E+00    2.9550000000000116E+00    4.1800000000000015E+00
             5.9120000000000124E+00    5.9110000000000138E+00    4.1800000000000015E+00
             8.6700000000000177E+00    0.0000000000000000E+00    4.1800000000000015E+00
             8.6700000000000177E+00    2.9550000000000116E+00    4.1800000000000015E+00
             8.6700000000000177E+00    5.9110000000000138E+00    4.1800000000000015E+00
             1.1626000000000010E+01    0.0000000000000000E+00    4.1800000000000015E+00
             1.1626000000000010E+01    2.9550000000000116E+00    4.1800000000000015E+00
             1.1626000000000010E+01    5.9110000000000138E+00    4.1800000000000015E+00
             1.4780000000000031E+00    1.4780000000000031E+00    6.2700000000000236E+00
             1.4780000000000031E+00    4.4330000000000105E+00    6.2700000000000236E+00
             1.4780000000000031E+00    7.3890000000000189E+00    6.2700000000000236E+00
             4.4340000000000144E+00    1.4780000000000031E+00    6.2700000000000236E+00
             4.4340000000000144E+00    4.4330000000000105E+00    6.2700000000000236E+00
             4.4340000000000144E+00    7.3890000000000189E+00    6.2700000000000236E+00
             7.1920000000000170E+00    1.4780000000000031E+00    6.2700000000000236E+00
             7.1920000000000170E+00    4.4330000000000105E+00    6.2700000000000236E+00
             7.1920000000000170E+00    7.3890000000000189E+00    6.2700000000000236E+00
             1.0148000000000023E+01    1.4780000000000031E+00    6.2700000000000236E+00
             1.0148000000000023E+01    4.4330000000000105E+00    6.2700000000000236E+00
             1.0148000000000023E+01    7.3890000000000189E+00    6.2700000000000236E+00
             1.3104000000000010E+01    1.4780000000000031E+00    6.2700000000000236E+00
             1.3104000000000010E+01    4.4330000000000105E+00    6.2700000000000236E+00
             1.3104000000000010E+01    7.3890000000000189E+00    6.2700000000000236E+00
             0.0000000000000000E+00    0.0000000000000000E+00    8.3600000000000030E+00
             0.0000000000000000E+00    2.9550000000000116E+00    8.3600000000000030E+00
             0.0000000000000000E+00    5.9110000000000138E+00    8.3600000000000030E+00
             2.9560000000000062E+00    0.0000000000000000E+00    8.3600000000000030E+00
             2.9560000000000062E+00    2.9550000000000116E+00    8.3600000000000030E+00
             2.9560000000000062E+00    5.9110000000000138E+00    8.3600000000000030E+00
             5.9120000000000124E+00    0.0000000000000000E+00    8.3600000000000030E+00
             5.9120000000000124E+00    2.9550000000000116E+00    8.3600000000000030E+00
             5.9120000000000124E+00    5.9110000000000138E+00    8.3600000000000030E+00
             8.6700000000000177E+00    0.0000000000000000E+00    8.3600000000000030E+00
             8.6700000000000177E+00    2.9550000000000116E+00    8.3600000000000030E+00
             8.6700000000000177E+00    5.9110000000000138E+00    8.3600000000000030E+00
             1.1626000000000010E+01    0.0000000000000000E+00    8.3600000000000030E+00
             1.1626000000000010E+01    2.9550000000000116E+00    8.3600000000000030E+00
             1.1626000000000010E+01    5.9110000000000138E+00    8.3600000000000030E+00
             1.4780000000000031E+00    1.4780000000000031E+00    1.0450000000000008E+01
             1.4780000000000031E+00    4.4330000000000105E+00    1.0450000000000008E+01
             1.4780000000000031E+00    7.3890000000000189E+00    1.0450000000000008E+01
             4.4340000000000144E+00    1.4780000000000031E+00    1.0450000000000008E+01
             4.4340000000000144E+00    4.4330000000000105E+00    1.0450000000000008E+01
             4.4340000000000144E+00    7.3890000000000189E+00    1.0450000000000008E+01
             7.1920000000000170E+00    1.4780000000000031E+00    1.0450000000000008E+01
             7.1920000000000170E+00    4.4330000000000105E+00    1.0450000000000008E+01
             7.1920000000000170E+00    7.3890000000000189E+00    1.0450000000000008E+01
             1.0148000000000023E+01    1.4780000000000031E+00    1.0450000000000008E+01
             1.0148000000000023E+01    4.4330000000000105E+00    1.0450000000000008E+01
             1.0148000000000023E+01    7.3890000000000189E+00    1.0450000000000008E+01
             1.3104000000000010E+01    1.4780000000000031E+00    1.0450000000000008E+01
             1.3104000000000010E+01    4.4330000000000105E+00    1.0450000000000008E+01
             1.3104000000000010E+01    7.3890000000000189E+00    1.0450000000000008E+01
             4.8554000000000181E+00    5.9119000000000055E+00    1.2031800000000009E+01
             9.5280000000000165E+00    5.9137000000000182E+00    1.2034000000000042E+01
             7.1920000000000170E+00    5.9340000000000188E+00    1.2040000000000017E+01
             4.0673339928000098E+00    5.9059993220000067E+00    1.2687741368900038E+01
             1.0318905404800025E+01    5.9087793826000246E+00    1.2685747073200002E+01
             5.9989554222000097E+00    5.9152564166000126E+00    1.2792642411200038E+01
             8.3738707293000232E+00    5.9179777707000047E+00    1.2731457252200011E+01
             8.3227525762000312E+00    5.9051536095000232E+00    1.4080497642100017E+01
             5.9344285049000183E+00    5.8981604865000117E+00    1.4101749969600016E+01
             7.1039653576999990E+00    5.8899410689000060E+00    1.4828703219100028E+01
             7.2416021047000294E+00    5.8657702092000106E+00    1.6106466757300026E+01
             6.3118250323000185E+00    5.8547577071000161E+00    1.6539601306200044E+01
             9.1743570613000038E+00    5.8876302392000124E+00    1.4641017735300009E+01
             7.3120000000000269E+00    5.9340000000000188E+00    2.1043000000000063E+01
             5.8130000000000051E+00    7.4340000000000153E+00    2.2992000000000044E+01
             8.8130000000000237E+00    4.4340000000000144E+00    2.2992000000000044E+01
             5.8130000000000051E+00    4.4330000000000105E+00    2.2992000000000044E+01
             8.8130000000000237E+00    7.4340000000000153E+00    2.2992000000000044E+01
             1.4780000000000031E+00    1.4780000000000031E+00    2.5082000000000061E+01
             1.4780000000000031E+00    4.4330000000000105E+00    2.5082000000000061E+01
             1.4780000000000031E+00    7.3890000000000189E+00    2.5082000000000061E+01
             4.4340000000000144E+00    1.4780000000000031E+00    2.5082000000000061E+01
             4.4340000000000144E+00    4.4330000000000105E+00    2.5082000000000061E+01
             4.4340000000000144E+00    7.3890000000000189E+00    2.5082000000000061E+01
             7.1920000000000170E+00    1.4780000000000031E+00    2.5082000000000061E+01
             7.1920000000000170E+00    4.4330000000000105E+00    2.5082000000000061E+01
             7.1920000000000170E+00    7.3890000000000189E+00    2.5082000000000061E+01
             1.0148000000000023E+01    1.4780000000000031E+00    2.5082000000000061E+01
             1.0148000000000023E+01    4.4330000000000105E+00    2.5082000000000061E+01
             1.0148000000000023E+01    7.3890000000000189E+00    2.5082000000000061E+01
             1.3104000000000010E+01    1.4780000000000031E+00    2.5082000000000061E+01
             1.3104000000000010E+01    4.4330000000000105E+00    2.5082000000000061E+01
             1.3104000000000010E+01    7.3890000000000189E+00    2.5082000000000061E+01
             0.0000000000000000E+00    0.0000000000000000E+00    2.7172000000000121E+01
             0.0000000000000000E+00    2.9550000000000116E+00    2.7172000000000121E+01
             0.0000000000000000E+00    5.9110000000000138E+00    2.7172000000000121E+01
             2.9560000000000062E+00    0.0000000000000000E+00    2.7172000000000121E+01
             2.9560000000000062E+00    2.9550000000000116E+00    2.7172000000000121E+01
             2.9560000000000062E+00    5.9110000000000138E+00    2.7172000000000121E+01
             5.9120000000000124E+00    0.0000000000000000E+00    2.7172000000000121E+01
             5.9120000000000124E+00    2.9550000000000116E+00    2.7172000000000121E+01
             5.9120000000000124E+00    5.9110000000000138E+00    2.7172000000000121E+01
             8.6700000000000177E+00    0.0000000000000000E+00    2.7172000000000121E+01
             8.6700000000000177E+00    2.9550000000000116E+00    2.7172000000000121E+01
             8.6700000000000177E+00    5.9110000000000138E+00    2.7172000000000121E+01
             1.1626000000000010E+01    0.0000000000000000E+00    2.7172000000000121E+01
             1.1626000000000010E+01    2.9550000000000116E+00    2.7172000000000121E+01
             1.1626000000000010E+01    5.9110000000000138E+00    2.7172000000000121E+01
             1.4780000000000031E+00    1.4780000000000031E+00    2.9262000000000043E+01
             1.4780000000000031E+00    4.4330000000000105E+00    2.9262000000000043E+01
             1.4780000000000031E+00    7.3890000000000189E+00    2.9262000000000043E+01
             4.4340000000000144E+00    1.4780000000000031E+00    2.9262000000000043E+01
             4.4340000000000144E+00    4.4330000000000105E+00    2.9262000000000043E+01
             4.4340000000000144E+00    7.3890000000000189E+00    2.9262000000000043E+01
             7.1920000000000170E+00    1.4780000000000031E+00    2.9262000000000043E+01
             7.1920000000000170E+00    4.4330000000000105E+00    2.9262000000000043E+01
             7.1920000000000170E+00    7.3890000000000189E+00    2.9262000000000043E+01
             1.0148000000000023E+01    1.4780000000000031E+00    2.9262000000000043E+01
             1.0148000000000023E+01    4.4330000000000105E+00    2.9262000000000043E+01
             1.0148000000000023E+01    7.3890000000000189E+00    2.9262000000000043E+01
             1.3104000000000010E+01    1.4780000000000031E+00    2.9262000000000043E+01
             1.3104000000000010E+01    4.4330000000000105E+00    2.9262000000000043E+01
             1.3104000000000010E+01    7.3890000000000189E+00    2.9262000000000043E+01
             0.0000000000000000E+00    0.0000000000000000E+00    3.1352000000000057E+01
             0.0000000000000000E+00    2.9550000000000116E+00    3.1352000000000057E+01
             0.0000000000000000E+00    5.9110000000000138E+00    3.1352000000000057E+01
             2.9560000000000062E+00    0.0000000000000000E+00    3.1352000000000057E+01
             2.9560000000000062E+00    2.9550000000000116E+00    3.1352000000000057E+01
             2.9560000000000062E+00    5.9110000000000138E+00    3.1352000000000057E+01
             5.9120000000000124E+00    0.0000000000000000E+00    3.1352000000000057E+01
             5.9120000000000124E+00    2.9550000000000116E+00    3.1352000000000057E+01
             5.9120000000000124E+00    5.9110000000000138E+00    3.1352000000000057E+01
             8.6700000000000177E+00    0.0000000000000000E+00    3.1352000000000057E+01
             8.6700000000000177E+00    2.9550000000000116E+00    3.1352000000000057E+01
             8.6700000000000177E+00    5.9110000000000138E+00    3.1352000000000057E+01
             1.1626000000000010E+01    0.0000000000000000E+00    3.1352000000000057E+01
             1.1626000000000010E+01    2.9550000000000116E+00    3.1352000000000057E+01
             1.1626000000000010E+01    5.9110000000000138E+00    3.1352000000000057E+01
             1.4780000000000031E+00    1.4780000000000031E+00    3.3442000000000078E+01
             1.4780000000000031E+00    4.4330000000000105E+00    3.3442000000000078E+01
             1.4780000000000031E+00    7.3890000000000189E+00    3.3442000000000078E+01
             4.4340000000000144E+00    1.4780000000000031E+00    3.3442000000000078E+01
             4.4340000000000144E+00    4.4330000000000105E+00    3.3442000000000078E+01
             4.4340000000000144E+00    7.3890000000000189E+00    3.3442000000000078E+01
             7.1920000000000170E+00    1.4780000000000031E+00    3.3442000000000078E+01
             7.1920000000000170E+00    4.4330000000000105E+00    3.3442000000000078E+01
             7.1920000000000170E+00    7.3890000000000189E+00    3.3442000000000078E+01
             1.0148000000000023E+01    1.4780000000000031E+00    3.3442000000000078E+01
             1.0148000000000023E+01    4.4330000000000105E+00    3.3442000000000078E+01
             1.0148000000000023E+01    7.3890000000000189E+00    3.3442000000000078E+01
             1.3104000000000010E+01    1.4780000000000031E+00    3.3442000000000078E+01
             1.3104000000000010E+01    4.4330000000000105E+00    3.3442000000000078E+01
             1.3104000000000010E+01    7.3890000000000189E+00    3.3442000000000078E+01
       &END COORD
       &VELOCITY
             0.0000000000000000E+00    0.0000000000000000E+00    0.0000000000000000E+00
             0.0000000000000000E+00    0.0000000000000000E+00    0.0000000000000000E+00
             0.0000000000000000E+00    0.0000000000000000E+00    0.0000000000000000E+00
             0.0000000000000000E+00    0.0000000000000000E+00    0.0000000000000000E+00
             0.0000000000000000E+00    0.0000000000000000E+00    0.0000000000000000E+00
             0.0000000000000000E+00    0.0000000000000000E+00    0.0000000000000000E+00
             0.0000000000000000E+00    0.0000000000000000E+00    0.0000000000000000E+00
             0.0000000000000000E+00    0.0000000000000000E+00    0.0000000000000000E+00
             0.0000000000000000E+00    0.0000000000000000E+00    0.0000000000000000E+00
             0.0000000000000000E+00    0.0000000000000000E+00    0.0000000000000000E+00
             0.0000000000000000E+00    0.0000000000000000E+00    0.0000000000000000E+00
             0.0000000000000000E+00    0.0000000000000000E+00    0.0000000000000000E+00
             0.0000000000000000E+00    0.0000000000000000E+00    0.0000000000000000E+00
             0.0000000000000000E+00    0.0000000000000000E+00    0.0000000000000000E+00
             0.0000000000000000E+00    0.0000000000000000E+00    0.0000000000000000E+00
             0.0000000000000000E+00    0.0000000000000000E+00    0.0000000000000000E+00
             0.0000000000000000E+00    0.0000000000000000E+00    0.0000000000000000E+00
             0.0000000000000000E+00    0.0000000000000000E+00    0.0000000000000000E+00
             0.0000000000000000E+00    0.0000000000000000E+00    0.0000000000000000E+00
             0.0000000000000000E+00    0.0000000000000000E+00    0.0000000000000000E+00
             0.0000000000000000E+00    0.0000000000000000E+00    0.0000000000000000E+00
             0.0000000000000000E+00    0.0000000000000000E+00    0.0000000000000000E+00
             0.0000000000000000E+00    0.0000000000000000E+00    0.0000000000000000E+00
             0.0000000000000000E+00    0.0000000000000000E+00    0.0000000000000000E+00
             0.0000000000000000E+00    0.0000000000000000E+00    0.0000000000000000E+00
             0.0000000000000000E+00    0.0000000000000000E+00    0.0000000000000000E+00
             0.0000000000000000E+00    0.0000000000000000E+00    0.0000000000000000E+00
             0.0000000000000000E+00    0.0000000000000000E+00    0.0000000000000000E+00
             0.0000000000000000E+00    0.0000000000000000E+00    0.0000000000000000E+00
             0.0000000000000000E+00    0.0000000000000000E+00    0.0000000000000000E+00
             0.0000000000000000E+00    0.0000000000000000E+00    0.0000000000000000E+00
             0.0000000000000000E+00    0.0000000000000000E+00    0.0000000000000000E+00
             0.0000000000000000E+00    0.0000000000000000E+00    0.0000000000000000E+00
             0.0000000000000000E+00    0.0000000000000000E+00    0.0000000000000000E+00
             0.0000000000000000E+00    0.0000000000000000E+00    0.0000000000000000E+00
             0.0000000000000000E+00    0.0000000000000000E+00    0.0000000000000000E+00
             0.0000000000000000E+00    0.0000000000000000E+00    0.0000000000000000E+00
             0.0000000000000000E+00    0.0000000000000000E+00    0.0000000000000000E+00
             0.0000000000000000E+00    0.0000000000000000E+00    0.0000000000000000E+00
             0.0000000000000000E+00    0.0000000000000000E+00    0.0000000000000000E+00
             0.0000000000000000E+00    0.0000000000000000E+00    0.0000000000000000E+00
             0.0000000000000000E+00    0.0000000000000000E+00    0.0000000000000000E+00
             0.0000000000000000E+00    0.0000000000000000E+00    0.0000000000000000E+00
             0.0000000000000000E+00    0.0000000000000000E+00    0.0000000000000000E+00
             0.0000000000000000E+00    0.0000000000000000E+00    0.0000000000000000E+00
             0.0000000000000000E+00    0.0000000000000000E+00    0.0000000000000000E+00
             0.0000000000000000E+00    0.0000000000000000E+00    0.0000000000000000E+00
             0.0000000000000000E+00    0.0000000000000000E+00    0.0000000000000000E+00
             0.0000000000000000E+00    0.0000000000000000E+00    0.0000000000000000E+00
             0.0000000000000000E+00    0.0000000000000000E+00    0.0000000000000000E+00
             0.0000000000000000E+00    0.0000000000000000E+00    0.0000000000000000E+00
             0.0000000000000000E+00    0.0000000000000000E+00    0.0000000000000000E+00
             0.0000000000000000E+00    0.0000000000000000E+00    0.0000000000000000E+00
             0.0000000000000000E+00    0.0000000000000000E+00    0.0000000000000000E+00
             0.0000000000000000E+00    0.0000000000000000E+00    0.0000000000000000E+00
             0.0000000000000000E+00    0.0000000000000000E+00    0.0000000000000000E+00
             0.0000000000000000E+00    0.0000000000000000E+00    0.0000000000000000E+00
             0.0000000000000000E+00    0.0000000000000000E+00    0.0000000000000000E+00
             0.0000000000000000E+00    0.0000000000000000E+00    0.0000000000000000E+00
             0.0000000000000000E+00    0.0000000000000000E+00    0.0000000000000000E+00
             0.0000000000000000E+00    0.0000000000000000E+00    0.0000000000000000E+00
             0.0000000000000000E+00    0.0000000000000000E+00    0.0000000000000000E+00
             0.0000000000000000E+00    0.0000000000000000E+00    0.0000000000000000E+00
             0.0000000000000000E+00    0.0000000000000000E+00    0.0000000000000000E+00
             0.0000000000000000E+00    0.0000000000000000E+00    0.0000000000000000E+00
             0.0000000000000000E+00    0.0000000000000000E+00    0.0000000000000000E+00
             0.0000000000000000E+00    0.0000000000000000E+00    0.0000000000000000E+00
             0.0000000000000000E+00    0.0000000000000000E+00    0.0000000000000000E+00
             0.0000000000000000E+00    0.0000000000000000E+00    0.0000000000000000E+00
             0.0000000000000000E+00    0.0000000000000000E+00    0.0000000000000000E+00
             0.0000000000000000E+00    0.0000000000000000E+00    0.0000000000000000E+00
             0.0000000000000000E+00    0.0000000000000000E+00    0.0000000000000000E+00
             0.0000000000000000E+00    0.0000000000000000E+00    0.0000000000000000E+00
             0.0000000000000000E+00    0.0000000000000000E+00    0.0000000000000000E+00
             0.0000000000000000E+00    0.0000000000000000E+00    0.0000000000000000E+00
             0.0000000000000000E+00    0.0000000000000000E+00    0.0000000000000000E+00
             0.0000000000000000E+00    0.0000000000000000E+00    0.0000000000000000E+00
             0.0000000000000000E+00    0.0000000000000000E+00    0.0000000000000000E+00
             0.0000000000000000E+00    0.0000000000000000E+00    0.0000000000000000E+00
             0.0000000000000000E+00    0.0000000000000000E+00    0.0000000000000000E+00
             0.0000000000000000E+00    0.0000000000000000E+00    0.0000000000000000E+00
             0.0000000000000000E+00    0.0000000000000000E+00    0.0000000000000000E+00
             0.0000000000000000E+00    0.0000000000000000E+00    0.0000000000000000E+00
             0.0000000000000000E+00    0.0000000000000000E+00    0.0000000000000000E+00
             0.0000000000000000E+00    0.0000000000000000E+00    0.0000000000000000E+00
             0.0000000000000000E+00    0.0000000000000000E+00    0.0000000000000000E+00
             0.0000000000000000E+00    0.0000000000000000E+00    0.0000000000000000E+00
             0.0000000000000000E+00    0.0000000000000000E+00    0.0000000000000000E+00
             0.0000000000000000E+00    0.0000000000000000E+00    0.0000000000000000E+00
             0.0000000000000000E+00    0.0000000000000000E+00    0.0000000000000000E+00
             0.0000000000000000E+00    0.0000000000000000E+00    0.0000000000000000E+00
             0.0000000000000000E+00    0.0000000000000000E+00    0.0000000000000000E+00
             0.0000000000000000E+00    0.0000000000000000E+00    0.0000000000000000E+00
             0.0000000000000000E+00    0.0000000000000000E+00    0.0000000000000000E+00
             0.0000000000000000E+00    0.0000000000000000E+00    0.0000000000000000E+00
             0.0000000000000000E+00    0.0000000000000000E+00    0.0000000000000000E+00
             0.0000000000000000E+00    0.0000000000000000E+00    0.0000000000000000E+00
             0.0000000000000000E+00    0.0000000000000000E+00    0.0000000000000000E+00
             0.0000000000000000E+00    0.0000000000000000E+00    0.0000000000000000E+00
             0.0000000000000000E+00    0.0000000000000000E+00    0.0000000000000000E+00
             0.0000000000000000E+00    0.0000000000000000E+00    0.0000000000000000E+00
             0.0000000000000000E+00    0.0000000000000000E+00    0.0000000000000000E+00
             0.0000000000000000E+00    0.0000000000000000E+00    0.0000000000000000E+00
             0.0000000000000000E+00    0.0000000000000000E+00    0.0000000000000000E+00
             0.0000000000000000E+00    0.0000000000000000E+00    0.0000000000000000E+00
             0.0000000000000000E+00    0.0000000000000000E+00    0.0000000000000000E+00
             0.0000000000000000E+00    0.0000000000000000E+00    0.0000000000000000E+00
             0.0000000000000000E+00    0.0000000000000000E+00    0.0000000000000000E+00
             0.0000000000000000E+00    0.0000000000000000E+00    0.0000000000000000E+00
             0.0000000000000000E+00    0.0000000000000000E+00    0.0000000000000000E+00
             0.0000000000000000E+00    0.0000000000000000E+00    0.0000000000000000E+00
             0.0000000000000000E+00    0.0000000000000000E+00    0.0000000000000000E+00
             0.0000000000000000E+00    0.0000000000000000E+00    0.0000000000000000E+00
             0.0000000000000000E+00    0.0000000000000000E+00    0.0000000000000000E+00
             0.0000000000000000E+00    0.0000000000000000E+00    0.0000000000000000E+00
             0.0000000000000000E+00    0.0000000000000000E+00    0.0000000000000000E+00
             0.0000000000000000E+00    0.0000000000000000E+00    0.0000000000000000E+00
             0.0000000000000000E+00    0.0000000000000000E+00    0.0000000000000000E+00
             0.0000000000000000E+00    0.0000000000000000E+00    0.0000000000000000E+00
             0.0000000000000000E+00    0.0000000000000000E+00    0.0000000000000000E+00
             0.0000000000000000E+00    0.0000000000000000E+00    0.0000000000000000E+00
             0.0000000000000000E+00    0.0000000000000000E+00    0.0000000000000000E+00
             0.0000000000000000E+00    0.0000000000000000E+00    0.0000000000000000E+00
             0.0000000000000000E+00    0.0000000000000000E+00    0.0000000000000000E+00
             0.0000000000000000E+00    0.0000000000000000E+00    0.0000000000000000E+00
             0.0000000000000000E+00    0.0000000000000000E+00    0.0000000000000000E+00
             0.0000000000000000E+00    0.0000000000000000E+00    0.0000000000000000E+00
             0.0000000000000000E+00    0.0000000000000000E+00    0.0000000000000000E+00
             0.0000000000000000E+00    0.0000000000000000E+00    0.0000000000000000E+00
             0.0000000000000000E+00    0.0000000000000000E+00    0.0000000000000000E+00
             0.0000000000000000E+00    0.0000000000000000E+00    0.0000000000000000E+00
             0.0000000000000000E+00    0.0000000000000000E+00    0.0000000000000000E+00
             0.0000000000000000E+00    0.0000000000000000E+00    0.0000000000000000E+00
             0.0000000000000000E+00    0.0000000000000000E+00    0.0000000000000000E+00
             0.0000000000000000E+00    0.0000000000000000E+00    0.0000000000000000E+00
             0.0000000000000000E+00    0.0000000000000000E+00    0.0000000000000000E+00
             0.0000000000000000E+00    0.0000000000000000E+00    0.0000000000000000E+00
             0.0000000000000000E+00    0.0000000000000000E+00    0.0000000000000000E+00
             0.0000000000000000E+00    0.0000000000000000E+00    0.0000000000000000E+00
             0.0000000000000000E+00    0.0000000000000000E+00    0.0000000000000000E+00
             0.0000000000000000E+00    0.0000000000000000E+00    0.0000000000000000E+00
             0.0000000000000000E+00    0.0000000000000000E+00    0.0000000000000000E+00
             0.0000000000000000E+00    0.0000000000000000E+00    0.0000000000000000E+00
             0.0000000000000000E+00    0.0000000000000000E+00    0.0000000000000000E+00
             0.0000000000000000E+00    0.0000000000000000E+00    0.0000000000000000E+00