 # Version information for this restart file 
 # current date 2024-01-13 00:51:15.132
 # current working dir /gpfs/home/cahart/transport/melamine/au_from-h2/ci-neb/ts2-fixed/dft_leads-sz_tip-dzvp_surf-dzvp_kpoints-2-4-20_replicas-7
 # Program compiled at                              Thu 21 Sep 19:20:17 BST 2023
 # Program compiled on                                           hx1-c12-login-1
 # Program compiled for                                                    local
 # Source code revision number                                       git:5518aa6
 &GLOBAL
   EXTENDED_FFT_LENGTHS  T
   PRINT_LEVEL  MEDIUM
   PROJECT_NAME 2_dft_wfn-r-0
   OUTPUT_FILE_NAME 2_dft_wfn-r-0.out
   RUN_TYPE  BAND
 &END GLOBAL
 &MOTION
   &BAND
     NPROC_REP  64
     BAND_TYPE  CI-NEB
     NUMBER_OF_REPLICA  7
     K_SPRING     5.0000000000000003E-02
     &CI_NEB
       NSTEPS_IT  5
     &END CI_NEB
     &OPTIMIZE_BAND
       OPT_TYPE  DIIS
       &DIIS
         MAX_STEPS  1000
       &END DIIS
     &END OPTIMIZE_BAND
     &REPLICA
       &COORD
             0.0000000000000000E+00    0.0000000000000000E+00    0.0000000000000000E+00
             0.0000000000000000E+00    2.9549999999999921E+00    0.0000000000000000E+00
             0.0000000000000000E+00    5.9109999999999712E+00    0.0000000000000000E+00
             2.9559999999999871E+00    0.0000000000000000E+00    0.0000000000000000E+00
             2.9559999999999871E+00    2.9549999999999921E+00    0.0000000000000000E+00
             2.9559999999999871E+00    5.9109999999999712E+00    0.0000000000000000E+00
             5.9119999999999742E+00    0.0000000000000000E+00    0.0000000000000000E+00
             5.9119999999999742E+00    2.9549999999999921E+00    0.0000000000000000E+00
             5.9119999999999742E+00    5.9109999999999712E+00    0.0000000000000000E+00
             8.6699999999999626E+00    0.0000000000000000E+00    0.0000000000000000E+00
             8.6699999999999626E+00    2.9549999999999921E+00    0.0000000000000000E+00
             8.6699999999999626E+00    5.9109999999999712E+00    0.0000000000000000E+00
             1.1625999999999950E+01    0.0000000000000000E+00    0.0000000000000000E+00
             1.1625999999999950E+01    2.9549999999999921E+00    0.0000000000000000E+00
             1.1625999999999950E+01    5.9109999999999712E+00    0.0000000000000000E+00
             1.4779999999999935E+00    1.4779999999999935E+00    2.0899999999999896E+00
             1.4779999999999935E+00    4.4329999999999830E+00    2.0899999999999896E+00
             1.4779999999999935E+00    7.3889999999999745E+00    2.0899999999999896E+00
             4.4339999999999868E+00    1.4779999999999935E+00    2.0899999999999896E+00
             4.4339999999999868E+00    4.4329999999999830E+00    2.0899999999999896E+00
             4.4339999999999868E+00    7.3889999999999745E+00    2.0899999999999896E+00
             7.1919999999999682E+00    1.4779999999999935E+00    2.0899999999999896E+00
             7.1919999999999682E+00    4.4329999999999830E+00    2.0899999999999896E+00
             7.1919999999999682E+00    7.3889999999999745E+00    2.0899999999999896E+00
             1.0147999999999957E+01    1.4779999999999935E+00    2.0899999999999896E+00
             1.0147999999999957E+01    4.4329999999999830E+00    2.0899999999999896E+00
             1.0147999999999957E+01    7.3889999999999745E+00    2.0899999999999896E+00
             1.3103999999999944E+01    1.4779999999999935E+00    2.0899999999999896E+00
             1.3103999999999944E+01    4.4329999999999830E+00    2.0899999999999896E+00
             1.3103999999999944E+01    7.3889999999999745E+00    2.0899999999999896E+00
             0.0000000000000000E+00    0.0000000000000000E+00    4.1799999999999793E+00
             0.0000000000000000E+00    2.9549999999999921E+00    4.1799999999999793E+00
             0.0000000000000000E+00    5.9109999999999712E+00    4.1799999999999793E+00
             2.9559999999999871E+00    0.0000000000000000E+00    4.1799999999999793E+00
             2.9559999999999871E+00    2.9549999999999921E+00    4.1799999999999793E+00
             2.9559999999999871E+00    5.9109999999999712E+00    4.1799999999999793E+00
             5.9119999999999742E+00    0.0000000000000000E+00    4.1799999999999793E+00
             5.9119999999999742E+00    2.9549999999999921E+00    4.1799999999999793E+00
             5.9119999999999742E+00    5.9109999999999712E+00    4.1799999999999793E+00
             8.6699999999999626E+00    0.0000000000000000E+00    4.1799999999999793E+00
             8.6699999999999626E+00    2.9549999999999921E+00    4.1799999999999793E+00
             8.6699999999999626E+00    5.9109999999999712E+00    4.1799999999999793E+00
             1.1625999999999950E+01    0.0000000000000000E+00    4.1799999999999793E+00
             1.1625999999999950E+01    2.9549999999999921E+00    4.1799999999999793E+00
             1.1625999999999950E+01    5.9109999999999712E+00    4.1799999999999793E+00
             1.4779999999999935E+00    1.4779999999999935E+00    6.2699999999999827E+00
             1.4779999999999935E+00    4.4329999999999830E+00    6.2699999999999827E+00
             1.4779999999999935E+00    7.3889999999999745E+00    6.2699999999999827E+00
             4.4339999999999868E+00    1.4779999999999935E+00    6.2699999999999827E+00
             4.4339999999999868E+00    4.4329999999999830E+00    6.2699999999999827E+00
             4.4339999999999868E+00    7.3889999999999745E+00    6.2699999999999827E+00
             7.1919999999999682E+00    1.4779999999999935E+00    6.2699999999999827E+00
             7.1919999999999682E+00    4.4329999999999830E+00    6.2699999999999827E+00
             7.1919999999999682E+00    7.3889999999999745E+00    6.2699999999999827E+00
             1.0147999999999957E+01    1.4779999999999935E+00    6.2699999999999827E+00
             1.0147999999999957E+01    4.4329999999999830E+00    6.2699999999999827E+00
             1.0147999999999957E+01    7.3889999999999745E+00    6.2699999999999827E+00
             1.3103999999999944E+01    1.4779999999999935E+00    6.2699999999999827E+00
             1.3103999999999944E+01    4.4329999999999830E+00    6.2699999999999827E+00
             1.3103999999999944E+01    7.3889999999999745E+00    6.2699999999999827E+00
             0.0000000000000000E+00    0.0000000000000000E+00    8.3599999999999586E+00
             0.0000000000000000E+00    2.9549999999999921E+00    8.3599999999999586E+00
             0.0000000000000000E+00    5.9109999999999712E+00    8.3599999999999586E+00
             2.9559999999999871E+00    0.0000000000000000E+00    8.3599999999999586E+00
             2.9559999999999871E+00    2.9549999999999921E+00    8.3599999999999586E+00
             2.9559999999999871E+00    5.9109999999999712E+00    8.3599999999999586E+00
             5.9119999999999742E+00    0.0000000000000000E+00    8.3599999999999586E+00
             5.9119999999999742E+00    2.9549999999999921E+00    8.3599999999999586E+00
             5.9119999999999742E+00    5.9109999999999712E+00    8.3599999999999586E+00
             8.6699999999999626E+00    0.0000000000000000E+00    8.3599999999999586E+00
             8.6699999999999626E+00    2.9549999999999921E+00    8.3599999999999586E+00
             8.6699999999999626E+00    5.9109999999999712E+00    8.3599999999999586E+00
             1.1625999999999950E+01    0.0000000000000000E+00    8.3599999999999586E+00
             1.1625999999999950E+01    2.9549999999999921E+00    8.3599999999999586E+00
             1.1625999999999950E+01    5.9109999999999712E+00    8.3599999999999586E+00
             1.4779999999999935E+00    1.4779999999999935E+00    1.0449999999999939E+01
             1.4779999999999935E+00    4.4329999999999830E+00    1.0449999999999939E+01
             1.4779999999999935E+00    7.3889999999999745E+00    1.0449999999999939E+01
             4.4339999999999868E+00    1.4779999999999935E+00    1.0449999999999939E+01
             4.4339999999999868E+00    4.4329999999999830E+00    1.0449999999999939E+01
             4.4339999999999868E+00    7.3889999999999745E+00    1.0449999999999939E+01
             7.1919999999999682E+00    1.4779999999999935E+00    1.0449999999999939E+01
             7.1919999999999682E+00    4.4329999999999830E+00    1.0449999999999939E+01
             7.1919999999999682E+00    7.3889999999999745E+00    1.0449999999999939E+01
             1.0147999999999957E+01    1.4779999999999935E+00    1.0449999999999939E+01
             1.0147999999999957E+01    4.4329999999999830E+00    1.0449999999999939E+01
             1.0147999999999957E+01    7.3889999999999745E+00    1.0449999999999939E+01
             1.3103999999999944E+01    1.4779999999999935E+00    1.0449999999999939E+01
             1.3103999999999944E+01    4.4329999999999830E+00    1.0449999999999939E+01
             1.3103999999999944E+01    7.3889999999999745E+00    1.0449999999999939E+01
             4.8553999999999844E+00    5.9118999999999780E+00    1.2031799999999958E+01
             9.5279999999999703E+00    5.9136999999999782E+00    1.2033999999999956E+01
             7.1919999999999682E+00    5.9339999999999860E+00    1.2039999999999953E+01
             4.0673339927999832E+00    5.9059993219999773E+00    1.2687741368899951E+01
             1.0318905404799951E+01    5.9087793825999881E+00    1.2685747073199938E+01
             5.9989554221999750E+00    5.9152564165999744E+00    1.2792642411199953E+01
             8.3738707292999734E+00    5.9179777706999772E+00    1.2731457252199945E+01
             8.3227525761999797E+00    5.9051536094999815E+00    1.4080497642099944E+01
             5.9344285048999739E+00    5.8981604864999726E+00    1.4101749969599938E+01
             7.1039653576999644E+00    5.8899410688999740E+00    1.4828703219099944E+01
             7.2416021046999877E+00    5.8657702091999706E+00    1.6106466757299927E+01
             6.3118250322999785E+00    5.8547577070999806E+00    1.6539601306199941E+01
             9.1743570612999648E+00    5.8876302391999760E+00    1.4641017735299926E+01
             7.3119999999999701E+00    5.9339999999999860E+00    2.1042999999999928E+01
             5.8129999999999749E+00    7.4339999999999700E+00    2.2991999999999909E+01
             8.8129999999999704E+00    4.4339999999999868E+00    2.2991999999999909E+01
             5.8129999999999749E+00    4.4329999999999830E+00    2.2991999999999909E+01
             8.8129999999999704E+00    7.4339999999999700E+00    2.2991999999999909E+01
             1.4779999999999935E+00    1.4779999999999935E+00    2.5081999999999898E+01
             1.4779999999999935E+00    4.4329999999999830E+00    2.5081999999999898E+01
             1.4779999999999935E+00    7.3889999999999745E+00    2.5081999999999898E+01
             4.4339999999999868E+00    1.4779999999999935E+00    2.5081999999999898E+01
             4.4339999999999868E+00    4.4329999999999830E+00    2.5081999999999898E+01
             4.4339999999999868E+00    7.3889999999999745E+00    2.5081999999999898E+01
             7.1919999999999682E+00    1.4779999999999935E+00    2.5081999999999898E+01
             7.1919999999999682E+00    4.4329999999999830E+00    2.5081999999999898E+01
             7.1919999999999682E+00    7.3889999999999745E+00    2.5081999999999898E+01
             1.0147999999999957E+01    1.4779999999999935E+00    2.5081999999999898E+01
             1.0147999999999957E+01    4.4329999999999830E+00    2.5081999999999898E+01
             1.0147999999999957E+01    7.3889999999999745E+00    2.5081999999999898E+01
             1.3103999999999944E+01    1.4779999999999935E+00    2.5081999999999898E+01
             1.3103999999999944E+01    4.4329999999999830E+00    2.5081999999999898E+01
             1.3103999999999944E+01    7.3889999999999745E+00    2.5081999999999898E+01
             0.0000000000000000E+00    0.0000000000000000E+00    2.7171999999999926E+01
             0.0000000000000000E+00    2.9549999999999921E+00    2.7171999999999926E+01
             0.0000000000000000E+00    5.9109999999999712E+00    2.7171999999999926E+01
             2.9559999999999871E+00    0.0000000000000000E+00    2.7171999999999926E+01
             2.9559999999999871E+00    2.9549999999999921E+00    2.7171999999999926E+01
             2.9559999999999871E+00    5.9109999999999712E+00    2.7171999999999926E+01
             5.9119999999999742E+00    0.0000000000000000E+00    2.7171999999999926E+01
             5.9119999999999742E+00    2.9549999999999921E+00    2.7171999999999926E+01
             5.9119999999999742E+00    5.9109999999999712E+00    2.7171999999999926E+01
             8.6699999999999626E+00    0.0000000000000000E+00    2.7171999999999926E+01
             8.6699999999999626E+00    2.9549999999999921E+00    2.7171999999999926E+01
             8.6699999999999626E+00    5.9109999999999712E+00    2.7171999999999926E+01
             1.1625999999999950E+01    0.0000000000000000E+00    2.7171999999999926E+01
             1.1625999999999950E+01    2.9549999999999921E+00    2.7171999999999926E+01
             1.1625999999999950E+01    5.9109999999999712E+00    2.7171999999999926E+01
             1.4779999999999935E+00    1.4779999999999935E+00    2.9261999999999894E+01
             1.4779999999999935E+00    4.4329999999999830E+00    2.9261999999999894E+01
             1.4779999999999935E+00    7.3889999999999745E+00    2.9261999999999894E+01
             4.4339999999999868E+00    1.4779999999999935E+00    2.9261999999999894E+01
             4.4339999999999868E+00    4.4329999999999830E+00    2.9261999999999894E+01
             4.4339999999999868E+00    7.3889999999999745E+00    2.9261999999999894E+01
             7.1919999999999682E+00    1.4779999999999935E+00    2.9261999999999894E+01
             7.1919999999999682E+00    4.4329999999999830E+00    2.9261999999999894E+01
             7.1919999999999682E+00    7.3889999999999745E+00    2.9261999999999894E+01
             1.0147999999999957E+01    1.4779999999999935E+00    2.9261999999999894E+01
             1.0147999999999957E+01    4.4329999999999830E+00    2.9261999999999894E+01
             1.0147999999999957E+01    7.3889999999999745E+00    2.9261999999999894E+01
             1.3103999999999944E+01    1.4779999999999935E+00    2.9261999999999894E+01
             1.3103999999999944E+01    4.4329999999999830E+00    2.9261999999999894E+01
             1.3103999999999944E+01    7.3889999999999745E+00    2.9261999999999894E+01
             0.0000000000000000E+00    0.0000000000000000E+00    3.1351999999999872E+01
             0.0000000000000000E+00    2.9549999999999921E+00    3.1351999999999872E+01
             0.0000000000000000E+00    5.9109999999999712E+00    3.1351999999999872E+01
             2.9559999999999871E+00    0.0000000000000000E+00    3.1351999999999872E+01
             2.9559999999999871E+00    2.9549999999999921E+00    3.1351999999999872E+01
             2.9559999999999871E+00    5.9109999999999712E+00    3.1351999999999872E+01
             5.9119999999999742E+00    0.0000000000000000E+00    3.1351999999999872E+01
             5.9119999999999742E+00    2.9549999999999921E+00    3.1351999999999872E+01
             5.9119999999999742E+00    5.9109999999999712E+00    3.1351999999999872E+01
             8.6699999999999626E+00    0.0000000000000000E+00    3.1351999999999872E+01
             8.6699999999999626E+00    2.9549999999999921E+00    3.1351999999999872E+01
             8.6699999999999626E+00    5.9109999999999712E+00    3.1351999999999872E+01
             1.1625999999999950E+01    0.0000000000000000E+00    3.1351999999999872E+01
             1.1625999999999950E+01    2.9549999999999921E+00    3.1351999999999872E+01
             1.1625999999999950E+01    5.9109999999999712E+00    3.1351999999999872E+01
             1.4779999999999935E+00    1.4779999999999935E+00    3.3441999999999872E+01
             1.4779999999999935E+00    4.4329999999999830E+00    3.3441999999999872E+01
             1.4779999999999935E+00    7.3889999999999745E+00    3.3441999999999872E+01
             4.4339999999999868E+00    1.4779999999999935E+00    3.3441999999999872E+01
             4.4339999999999868E+00    4.4329999999999830E+00    3.3441999999999872E+01
             4.4339999999999868E+00    7.3889999999999745E+00    3.3441999999999872E+01
             7.1919999999999682E+00    1.4779999999999935E+00    3.3441999999999872E+01
             7.1919999999999682E+00    4.4329999999999830E+00    3.3441999999999872E+01
             7.1919999999999682E+00    7.3889999999999745E+00    3.3441999999999872E+01
             1.0147999999999957E+01    1.4779999999999935E+00    3.3441999999999872E+01
             1.0147999999999957E+01    4.4329999999999830E+00    3.3441999999999872E+01
             1.0147999999999957E+01    7.3889999999999745E+00    3.3441999999999872E+01
             1.3103999999999944E+01    1.4779999999999935E+00    3.3441999999999872E+01
             1.3103999999999944E+01    4.4329999999999830E+00    3.3441999999999872E+01
             1.3103999999999944E+01    7.3889999999999745E+00    3.3441999999999872E+01
       &END COORD
       &VELOCITY
             0.0000000000000000E+00    0.0000000000000000E+00    0.0000000000000000E+00
             0.0000000000000000E+00    0.0000000000000000E+00    0.0000000000000000E+00
             0.0000000000000000E+00    0.0000000000000000E+00    0.0000000000000000E+00
             0.0000000000000000E+00    0.0000000000000000E+00    0.0000000000000000E+00
             0.0000000000000000E+00    0.0000000000000000E+00    0.0000000000000000E+00
             0.0000000000000000E+00    0.0000000000000000E+00    0.0000000000000000E+00
             0.0000000000000000E+00    0.0000000000000000E+00    0.0000000000000000E+00
             0.0000000000000000E+00    0.0000000000000000E+00    0.0000000000000000E+00
             0.0000000000000000E+00    0.0000000000000000E+00    0.0000000000000000E+00
             0.0000000000000000E+00    0.0000000000000000E+00    0.0000000000000000E+00
             0.0000000000000000E+00    0.0000000000000000E+00    0.0000000000000000E+00
             0.0000000000000000E+00    0.0000000000000000E+00    0.0000000000000000E+00
             0.0000000000000000E+00    0.0000000000000000E+00    0.0000000000000000E+00
             0.0000000000000000E+00    0.0000000000000000E+00    0.0000000000000000E+00
             0.0000000000000000E+00    0.0000000000000000E+00    0.0000000000000000E+00
             0.0000000000000000E+00    0.0000000000000000E+00    0.0000000000000000E+00
             0.0000000000000000E+00    0.0000000000000000E+00    0.0000000000000000E+00
             0.0000000000000000E+00    0.0000000000000000E+00    0.0000000000000000E+00
             0.0000000000000000E+00    0.0000000000000000E+00    0.0000000000000000E+00
             0.0000000000000000E+00    0.0000000000000000E+00    0.0000000000000000E+00
             0.0000000000000000E+00    0.0000000000000000E+00    0.0000000000000000E+00
             0.0000000000000000E+00    0.0000000000000000E+00    0.0000000000000000E+00
             0.0000000000000000E+00    0.0000000000000000E+00    0.0000000000000000E+00
             0.0000000000000000E+00    0.0000000000000000E+00    0.0000000000000000E+00
             0.0000000000000000E+00    0.0000000000000000E+00    0.0000000000000000E+00
             0.0000000000000000E+00    0.0000000000000000E+00    0.0000000000000000E+00
             0.0000000000000000E+00    0.0000000000000000E+00    0.0000000000000000E+00
             0.0000000000000000E+00    0.0000000000000000E+00    0.0000000000000000E+00
             0.0000000000000000E+00    0.0000000000000000E+00    0.0000000000000000E+00
             0.0000000000000000E+00    0.0000000000000000E+00    0.0000000000000000E+00
             0.0000000000000000E+00    0.0000000000000000E+00    0.0000000000000000E+00
             0.0000000000000000E+00    0.0000000000000000E+00    0.0000000000000000E+00
             0.0000000000000000E+00    0.0000000000000000E+00    0.0000000000000000E+00
             0.0000000000000000E+00    0.0000000000000000E+00    0.0000000000000000E+00
             0.0000000000000000E+00    0.0000000000000000E+00    0.0000000000000000E+00
             0.0000000000000000E+00    0.0000000000000000E+00    0.0000000000000000E+00
             0.0000000000000000E+00    0.0000000000000000E+00    0.0000000000000000E+00
             0.0000000000000000E+00    0.0000000000000000E+00    0.0000000000000000E+00
             0.0000000000000000E+00    0.0000000000000000E+00    0.0000000000000000E+00
             0.0000000000000000E+00    0.0000000000000000E+00    0.0000000000000000E+00
             0.0000000000000000E+00    0.0000000000000000E+00    0.0000000000000000E+00
             0.0000000000000000E+00    0.0000000000000000E+00    0.0000000000000000E+00
             0.0000000000000000E+00    0.0000000000000000E+00    0.0000000000000000E+00
             0.0000000000000000E+00    0.0000000000000000E+00    0.0000000000000000E+00
             0.0000000000000000E+00    0.0000000000000000E+00    0.0000000000000000E+00
             0.0000000000000000E+00    0.0000000000000000E+00    0.0000000000000000E+00
             0.0000000000000000E+00    0.0000000000000000E+00    0.0000000000000000E+00
             0.0000000000000000E+00    0.0000000000000000E+00    0.0000000000000000E+00
             0.0000000000000000E+00    0.0000000000000000E+00    0.0000000000000000E+00
             0.0000000000000000E+00    0.0000000000000000E+00    0.0000000000000000E+00
             0.0000000000000000E+00    0.0000000000000000E+00    0.0000000000000000E+00
             0.0000000000000000E+00    0.0000000000000000E+00    0.0000000000000000E+00
             0.0000000000000000E+00    0.0000000000000000E+00    0.0000000000000000E+00
             0.0000000000000000E+00    0.0000000000000000E+00    0.0000000000000000E+00
             0.0000000000000000E+00    0.0000000000000000E+00    0.0000000000000000E+00
             0.0000000000000000E+00    0.0000000000000000E+00    0.0000000000000000E+00
             0.0000000000000000E+00    0.0000000000000000E+00    0.0000000000000000E+00
             0.0000000000000000E+00    0.0000000000000000E+00    0.0000000000000000E+00
             0.0000000000000000E+00    0.0000000000000000E+00    0.0000000000000000E+00
             0.0000000000000000E+00    0.0000000000000000E+00    0.0000000000000000E+00
             0.0000000000000000E+00    0.0000000000000000E+00    0.0000000000000000E+00
             0.0000000000000000E+00    0.0000000000000000E+00    0.0000000000000000E+00
             0.0000000000000000E+00    0.0000000000000000E+00    0.0000000000000000E+00
             0.0000000000000000E+00    0.0000000000000000E+00    0.0000000000000000E+00
             0.0000000000000000E+00    0.0000000000000000E+00    0.0000000000000000E+00
             0.0000000000000000E+00    0.0000000000000000E+00    0.0000000000000000E+00
             0.0000000000000000E+00    0.0000000000000000E+00    0.0000000000000000E+00
             0.0000000000000000E+00    0.0000000000000000E+00    0.0000000000000000E+00
             0.0000000000000000E+00    0.0000000000000000E+00    0.0000000000000000E+00
             0.0000000000000000E+00    0.0000000000000000E+00    0.0000000000000000E+00
             0.0000000000000000E+00    0.0000000000000000E+00    0.0000000000000000E+00
             0.0000000000000000E+00    0.0000000000000000E+00    0.0000000000000000E+00
             0.0000000000000000E+00    0.0000000000000000E+00    0.0000000000000000E+00
             0.0000000000000000E+00    0.0000000000000000E+00    0.0000000000000000E+00
             0.0000000000000000E+00    0.0000000000000000E+00    0.0000000000000000E+00
             0.0000000000000000E+00    0.0000000000000000E+00    0.0000000000000000E+00
             0.0000000000000000E+00    0.0000000000000000E+00    0.0000000000000000E+00
             0.0000000000000000E+00    0.0000000000000000E+00    0.0000000000000000E+00
             0.0000000000000000E+00    0.0000000000000000E+00    0.0000000000000000E+00
             0.0000000000000000E+00    0.0000000000000000E+00    0.0000000000000000E+00
             0.0000000000000000E+00    0.0000000000000000E+00    0.0000000000000000E+00
             0.0000000000000000E+00    0.0000000000000000E+00    0.0000000000000000E+00
             0.0000000000000000E+00    0.0000000000000000E+00    0.0000000000000000E+00
             0.0000000000000000E+00    0.0000000000000000E+00    0.0000000000000000E+00
             0.0000000000000000E+00    0.0000000000000000E+00    0.0000000000000000E+00
             0.0000000000000000E+00    0.0000000000000000E+00    0.0000000000000000E+00
             0.0000000000000000E+00    0.0000000000000000E+00    0.0000000000000000E+00
             0.0000000000000000E+00    0.0000000000000000E+00    0.0000000000000000E+00
             0.0000000000000000E+00    0.0000000000000000E+00    0.0000000000000000E+00
             0.0000000000000000E+00    0.0000000000000000E+00    0.0000000000000000E+00
             0.0000000000000000E+00    0.0000000000000000E+00    0.0000000000000000E+00
             0.0000000000000000E+00    0.0000000000000000E+00    0.0000000000000000E+00
             0.0000000000000000E+00    0.0000000000000000E+00    0.0000000000000000E+00
             0.0000000000000000E+00    0.0000000000000000E+00    0.0000000000000000E+00
             0.0000000000000000E+00    0.0000000000000000E+00    0.0000000000000000E+00
             0.0000000000000000E+00    0.0000000000000000E+00    0.0000000000000000E+00
             0.0000000000000000E+00    0.0000000000000000E+00    0.0000000000000000E+00
             0.0000000000000000E+00    0.0000000000000000E+00    0.0000000000000000E+00
             0.0000000000000000E+00    0.0000000000000000E+00    0.0000000000000000E+00
             0.0000000000000000E+00    0.0000000000000000E+00    0.0000000000000000E+00
             0.0000000000000000E+00    0.0000000000000000E+00    0.0000000000000000E+00
             0.0000000000000000E+00    0.0000000000000000E+00    0.0000000000000000E+00
             0.0000000000000000E+00    0.0000000000000000E+00    0.0000000000000000E+00
             0.0000000000000000E+00    0.0000000000000000E+00    0.0000000000000000E+00
             0.0000000000000000E+00    0.0000000000000000E+00    0.0000000000000000E+00
             0.0000000000000000E+00    0.0000000000000000E+00    0.0000000000000000E+00
             0.0000000000000000E+00    0.0000000000000000E+00    0.0000000000000000E+00
             0.0000000000000000E+00    0.0000000000000000E+00    0.0000000000000000E+00
             0.0000000000000000E+00    0.0000000000000000E+00    0.0000000000000000E+00
             0.0000000000000000E+00    0.0000000000000000E+00    0.0000000000000000E+00
             0.0000000000000000E+00    0.0000000000000000E+00    0.0000000000000000E+00
             0.0000000000000000E+00    0.0000000000000000E+00    0.0000000000000000E+00
             0.0000000000000000E+00    0.0000000000000000E+00    0.0000000000000000E+00
             0.0000000000000000E+00    0.0000000000000000E+00    0.0000000000000000E+00
             0.0000000000000000E+00    0.0000000000000000E+00    0.0000000000000000E+00
             0.0000000000000000E+00    0.0000000000000000E+00    0.0000000000000000E+00
             0.0000000000000000E+00    0.0000000000000000E+00    0.0000000000000000E+00
             0.0000000000000000E+00    0.0000000000000000E+00    0.0000000000000000E+00
             0.0000000000000000E+00    0.0000000000000000E+00    0.0000000000000000E+00
             0.0000000000000000E+00    0.0000000000000000E+00    0.0000000000000000E+00
             0.0000000000000000E+00    0.0000000000000000E+00    0.0000000000000000E+00
             0.0000000000000000E+00    0.0000000000000000E+00    0.0000000000000000E+00
             0.0000000000000000E+00    0.0000000000000000E+00    0.0000000000000000E+00
             0.0000000000000000E+00    0.0000000000000000E+00    0.0000000000000000E+00
             0.0000000000000000E+00    0.0000000000000000E+00    0.0000000000000000E+00
             0.0000000000000000E+00    0.0000000000000000E+00    0.0000000000000000E+00
             0.0000000000000000E+00    0.0000000000000000E+00    0.0000000000000000E+00
             0.0000000000000000E+00    0.0000000000000000E+00    0.0000000000000000E+00
             0.0000000000000000E+00    0.0000000000000000E+00    0.0000000000000000E+00
             0.0000000000000000E+00    0.0000000000000000E+00    0.0000000000000000E+00
             0.0000000000000000E+00    0.0000000000000000E+00    0.0000000000000000E+00
             0.0000000000000000E+00    0.0000000000000000E+00    0.0000000000000000E+00
             0.0000000000000000E+00    0.0000000000000000E+00    0.0000000000000000E+00
             0.0000000000000000E+00    0.0000000000000000E+00    0.0000000000000000E+00
             0.0000000000000000E+00    0.0000000000000000E+00    0.0000000000000000E+00
             0.0000000000000000E+00    0.0000000000000000E+00    0.0000000000000000E+00
             0.0000000000000000E+00    0.0000000000000000E+00    0.0000000000000000E+00
             0.0000000000000000E+00    0.0000000000000000E+00    0.0000000000000000E+00
             0.0000000000000000E+00    0.0000000000000000E+00    0.0000000000000000E+00
             0.0000000000000000E+00    0.0000000000000000E+00    0.0000000000000000E+00
             0.0000000000000000E+00    0.0000000000000000E+00    0.0000000000000000E+00
             0.0000000000000000E+00    0.0000000000000000E+00    0.0000000000000000E+00
             0.0000000000000000E+00    0.0000000000000000E+00    0.0000000000000000E+00
             0.0000000000000000E+00    0.0000000000000000E+00    0.0000000000000000E+00
             0.0000000000000000E+00    0.0000000000000000E+00    0.0000000000000000E+00