[csg018.tchpc.tcd.ie:29789] mca: base: component_find: unable to open ras tm: file not found (ignored)
[csg018.tchpc.tcd.ie:29789] mca: base: component_find: unable to open pls tm: file not found (ignored)
[csg018.tchpc.tcd.ie:29793] mca: base: component_find: unable to open ras tm: file not found (ignored)
[csg018.tchpc.tcd.ie:29792] mca: base: component_find: unable to open ras tm: file not found (ignored)
[csg018.tchpc.tcd.ie:29793] mca: base: component_find: unable to open pls tm: file not found (ignored)
[csg018.tchpc.tcd.ie:29792] mca: base: component_find: unable to open pls tm: file not found (ignored)
SIESTA 1.4.13  -- [TDDFT/O(N)/Spin-Orbit branch] (4 November 2004)
Architecture  : 
Compiler flags:  -O2
PARALLEL version

* Running on    2 nodes in parallel
>> Start of run:  11-FEB-2011  20:56:15

                           ***********************       
                           *  WELCOME TO SIESTA  *       
                           ***********************       

reinit: Reading from standard input
************************** Dump of input data file ****************************
SystemName       H2CO     # Descriptive name of the system
SystemLabel      H2CO        # Short name for naming files
# Output options
WriteMullikenPop       1
# Species and atoms
NumberOfSpecies        3
NumberOfAtoms          4
%block ChemicalSpeciesLabel
  1  1  H
  2  6  C
  3  8  O
%endblock ChemicalSpeciesLabel
# Basis
PAO.EnergyShift       25 meV
%block PAO.BasisSizes
H   DZP
C   DZP
O   DZP
%endblock PAO.BasisSizes
# System
LatticeConstant       1.000 Ang
%block LatticeVectors
 15.000000   0.000000   0.000000
  0.000000  15.000000   0.000000
  0.000000   0.000000  15.000000
%endblock LatticeVectors
xc.functional         GGA           # Exchange-correlation functional
xc.authors            PBE           # Exchange-correlation version
MeshCutoff           200. Ry        # Mesh cutoff. real space mesh
# SCF options
MaxSCFIterations      100           # Maximum number of SCF iter
DM.MixingWeight       0.02          # New DM amount for next SCF cycle
DM.Tolerance         0.5d-3         # Tolerance in maximum difference
DM.NumberPulay        20
SolutionMethod        diagon        # OrderN or Diagon
OccupationFunction       FD
ElectronicTemperature   150 K       # Temp. for Fermi smearing
#Spin
SpinPolarized   .false.
FixSpin         .false.
# MD options
MD.TypeOfRun            neb         # Type of dynamics:
MD.NumNEBsteps          1           # Maximum Number of NEB steps
MD.NumOfImages          4           # Number of Images
MD.Kspring              0.02        # Spring force; default works well
MD.IndexOfNEB           2           # n>0 => CI-NEB from nth step
                                    # n>NumNEBsteps => IT-NEB
                                    # n=-1 => bisection-NEB
NEB.UseBroyden          .true.      # .true. oprimizes whole elastic band
NEB.SkipEdge            .true.      # Skip calculations of initial and
                                    #  final states if UseSaveNEB = .ture.
MD.MaxForceTol          0.06 eV/Ang # Tolerance of force for each images
MD.Broyden.Cycle.On.Maxit  .true.   # We recommend .true. for global hessian,
                                    # .false. for individual hessian
#MD.VariableCell         .true.     ! under construction !
MD.UseSaveNEB           .true.      # You can start from arbitary continuations
%block GeometryConstraints
position 2
%endblock GeometryConstraints
# Atomic coordinates
AtomicCoordinatesFormat     Ang
%block AtomicCoordinatesAndAtomicSpecies
  0.00000000   1.22438253   0.00000000 3 #   O 1
  0.00000000   0.00000000   0.00000000 2 #   C 2
 -0.96361063  -0.60270000   0.00000000 1 #   H 3
  0.96361023  -0.60270000   0.00000000 1 #   H 4
%endblock AtomicCoordinatesAndAtomicSpecies
%block FinalAtomicCoordinatesAndAtomicSpecies
  0.02064949   1.36663632   0.00000717 3 #   O 1
  0.00000000   0.00000000   0.00000000 2 #   C 2
 -0.89472184   1.71362007   0.00000000 1 #   H 3
  0.94082249  -0.58978180  -0.00000009 1 #   H 4
%endblock FinalAtomicCoordinatesAndAtomicSpecies
************************** End of input data file *****************************

reinit: -----------------------------------------------------------------------
reinit: System Name: H2CO                                                       
reinit: -----------------------------------------------------------------------
reinit: System Label: H2CO                
reinit: -----------------------------------------------------------------------

initatom: Reading input for the pseudopotentials and atomic orbitals ----------
 Species number:            1  Label: H Atomic number:           1
 Species number:            2  Label: C Atomic number:           6
 Species number:            3  Label: O Atomic number:           8
Ground state valence configuration:   1s01
Reading pseudopotential information in formatted form from H.psf
Ground state valence configuration:   2s02  2p02
Reading pseudopotential information in formatted form from C.psf
Ground state valence configuration:   2s02  2p04
Reading pseudopotential information in formatted form from O.psf
resizes: Read basis size for species H = dzp                 
resizes: Read basis size for species C = dzp                 
resizes: Read basis size for species O = dzp                 
For H, standard SIESTA heuristics set lmxkb to 2
 (one more than the basis l, including polarization orbitals).
Use PS.lmax or PS.KBprojectors blocks to override.
For C, standard SIESTA heuristics set lmxkb to 3
 (one more than the basis l, including polarization orbitals).
Use PS.lmax or PS.KBprojectors blocks to override.
For O, standard SIESTA heuristics set lmxkb to 3
 (one more than the basis l, including polarization orbitals).
Use PS.lmax or PS.KBprojectors blocks to override.

<basis_specs>
===============================================================================
H                    Z=   1    Mass=  1.0100        Charge=  0.0000    
Lmxo=0 Lmxkb=2     BasisType=split      Semic=F
L=0  Nsemic=0  Cnfigmx=1
          n=1  nzeta=2  polorb=1
               vcte:    0.0000    
               rinn:    0.0000    
                rcs:    0.0000      0.0000    
            lambdas:    1.0000      1.0000    
-------------------------------------------------------------------------------
L=0  Nkbl=1  erefs: 0.17977+309
L=1  Nkbl=1  erefs: 0.17977+309
L=2  Nkbl=1  erefs: 0.17977+309
===============================================================================
</basis_specs>

atom: Called for H   (Z =   1)

read_vps: Pseudopotential generation method:
read_vps: ATM 3.2.2 Troullier-Martins                       

read_vps: Pseudopotential generated from a relativistic atomic calculation
read_vps: There are spin-orbit pseudopotentials available

read_vps: Valence configuration (pseudopotential and basis set generation):
1s( 1.00) rc: 1.30
2p( 0.00) rc: 1.30
3d( 0.00) rc: 0.36
Total valence charge:    1.00000

xc_check: Exchange-correlation functional:
xc_check: GGA Perdew, Burke & Ernzerhof 1996
V l=0 = -2*Zval/r beyond r=  1.2815
V l=1 = -2*Zval/r beyond r=  1.2656
V l=2 = -2*Zval/r beyond r=  1.2498
All V_l potentials equal beyond r=  1.2815
This should be close to max(r_c) in ps generation
All pots = -2*Zval/r beyond r=  1.2815

VLOCAL1: 99.0% of the norm of Vloc inside     26.430 Ry
VLOCAL1: 99.9% of the norm of Vloc inside     60.235 Ry
atom: Maximum radius for 4*pi*r*r*local-pseudopot. charge    1.50811
atom: Maximum radius for r*vlocal+2*Zval:    1.26560
GHOST: No ghost state for L =  0
GHOST: No ghost state for L =  1
GHOST: No ghost state for L =  2

KBgen: Kleinman-Bylander projectors: 
   l= 0   rc=  1.434438   el= -0.477184   Ekb= -1.973462   kbcos= -0.357338
   l= 1   rc=  1.774652   el=  0.001076   Ekb= -0.432348   kbcos= -0.024685
   l= 2   rc=  1.961554   el=  0.002010   Ekb= -0.405414   kbcos= -0.001877

KBgen: Total number of  Kleinman-Bylander projectors:    9
atom: -------------------------------------------------------------------------

atom: SANKEY-TYPE ORBITALS:
atom: Selected multiple-zeta basis: split     

SPLIT: Orbitals with angular momentum L= 0

SPLIT: Basis orbitals for state 1s

SPLIT: PAO cut-off radius determinated from an
SPLIT: energy shift=  0.001837 Ry

   izeta = 1
                 lambda =    1.000000
                     rc =    6.518340
                 energy =   -0.475311
                kinetic =    0.880142
    potential(screened) =   -1.355453
       potential(ionic) =   -1.874678

   izeta = 2
                 rmatch =    4.103729
              splitnorm =    0.150000
                 energy =   -0.382672
                kinetic =    1.429370
    potential(screened) =   -1.812042
       potential(ionic) =   -2.358995

POLgen: Perturbative polarization orbital with L=  1

POLgen: Polarization orbital for state 1s

   izeta = 1
                     rc =    6.518340
                 energy =    0.536287
                kinetic =    1.135918
    potential(screened) =   -0.599631
       potential(ionic) =   -1.065150
atom: Total number of Sankey-type orbitals:  5

atm_pop: Valence configuration(local Pseudopot. screening):
 1s( 1.00)                                                            
Vna: chval, zval:    1.00000   1.00000

Vna:  Cut-off radius for the neutral-atom potential:   6.518340

atom: _________________________________________________________________________

<basis_specs>
===============================================================================
C                    Z=   6    Mass=  12.010        Charge=  0.0000    
Lmxo=1 Lmxkb=3     BasisType=split      Semic=F
L=0  Nsemic=0  Cnfigmx=2
          n=1  nzeta=2  polorb=0
               vcte:    0.0000    
               rinn:    0.0000    
                rcs:    0.0000      0.0000    
            lambdas:    1.0000      1.0000    
L=1  Nsemic=0  Cnfigmx=2
          n=1  nzeta=2  polorb=1
               vcte:    0.0000    
               rinn:    0.0000    
                rcs:    0.0000      0.0000    
            lambdas:    1.0000      1.0000    
-------------------------------------------------------------------------------
L=0  Nkbl=1  erefs: 0.17977+309
L=1  Nkbl=1  erefs: 0.17977+309
L=2  Nkbl=1  erefs: 0.17977+309
L=3  Nkbl=1  erefs: 0.17977+309
===============================================================================
</basis_specs>

atom: Called for C   (Z =   6)

read_vps: Pseudopotential generation method:
read_vps: ATM 3.2.2 Troullier-Martins                       

read_vps: Valence configuration (pseudopotential and basis set generation):
2s( 2.00) rc: 1.52
2p( 2.00) rc: 1.52
3d( 0.00) rc: 1.52
4f( 0.00) rc: 1.52
read_vps: Spin-orbit interaction is not included in this calculation
Total valence charge:    4.00000

xc_check: Exchange-correlation functional:
xc_check: GGA Perdew, Burke & Ernzerhof 1996
V l=0 = -2*Zval/r beyond r=  1.6008
V l=1 = -2*Zval/r beyond r=  1.6008
V l=2 = -2*Zval/r beyond r=  1.6008
V l=3 = -2*Zval/r beyond r=  1.6008
All V_l potentials equal beyond r=  1.5038
This should be close to max(r_c) in ps generation
All pots = -2*Zval/r beyond r=  1.6008

VLOCAL1: 99.0% of the norm of Vloc inside     19.196 Ry
VLOCAL1: 99.9% of the norm of Vloc inside     43.748 Ry
atom: Maximum radius for 4*pi*r*r*local-pseudopot. charge    1.81396
atom: Maximum radius for r*vlocal+2*Zval:    1.56123
GHOST: No ghost state for L =  0
GHOST: No ghost state for L =  1
GHOST: No ghost state for L =  2
GHOST: No ghost state for L =  3

KBgen: Kleinman-Bylander projectors: 
   l= 0   rc=  1.813961   el= -1.009806   Ekb=  5.100177   kbcos=  0.320080
   l= 1   rc=  1.836783   el= -0.388709   Ekb= -4.033581   kbcos= -0.357127
   l= 2   rc=  2.055542   el=  0.001971   Ekb= -1.013540   kbcos= -0.008744
   l= 3   rc=  2.188140   el=  0.003065   Ekb= -0.413203   kbcos= -0.001127

KBgen: Total number of  Kleinman-Bylander projectors:   16
atom: -------------------------------------------------------------------------

atom: SANKEY-TYPE ORBITALS:
atom: Selected multiple-zeta basis: split     

SPLIT: Orbitals with angular momentum L= 0

SPLIT: Basis orbitals for state 2s

SPLIT: PAO cut-off radius determinated from an
SPLIT: energy shift=  0.001837 Ry

   izeta = 1
                 lambda =    1.000000
                     rc =    5.382558
                 energy =   -1.007989
                kinetic =    0.830980
    potential(screened) =   -1.838969
       potential(ionic) =   -5.400011

   izeta = 2
                 rmatch =    3.475094
              splitnorm =    0.150000
                 energy =   -0.876687
                kinetic =    1.284095
    potential(screened) =   -2.160782
       potential(ionic) =   -5.975966

SPLIT: Orbitals with angular momentum L= 1

SPLIT: Basis orbitals for state 2p

SPLIT: PAO cut-off radius determinated from an
SPLIT: energy shift=  0.001837 Ry

   izeta = 1
                 lambda =    1.000000
                     rc =    6.911459
                 energy =   -0.387090
                kinetic =    2.325875
    potential(screened) =   -2.712964
       potential(ionic) =   -6.112452

   izeta = 2
                 rmatch =    3.792903
              splitnorm =    0.150000
                 energy =   -0.263871
                kinetic =    3.467894
    potential(screened) =   -3.731765
       potential(ionic) =   -7.528815

POLgen: Perturbative polarization orbital with L=  2

POLgen: Polarization orbital for state 2p

   izeta = 1
                     rc =    6.911459
                 energy =    0.962317
                kinetic =    2.032319
    potential(screened) =   -1.070002
       potential(ionic) =   -3.758235
atom: Total number of Sankey-type orbitals: 13

atm_pop: Valence configuration(local Pseudopot. screening):
 2s( 2.00)                                                            
 2p( 2.00)                                                            
Vna: chval, zval:    4.00000   4.00000

Vna:  Cut-off radius for the neutral-atom potential:   6.911459

atom: _________________________________________________________________________

<basis_specs>
===============================================================================
O                    Z=   8    Mass=  16.000        Charge=  0.0000    
Lmxo=1 Lmxkb=3     BasisType=split      Semic=F
L=0  Nsemic=0  Cnfigmx=2
          n=1  nzeta=2  polorb=0
               vcte:    0.0000    
               rinn:    0.0000    
                rcs:    0.0000      0.0000    
            lambdas:    1.0000      1.0000    
L=1  Nsemic=0  Cnfigmx=2
          n=1  nzeta=2  polorb=1
               vcte:    0.0000    
               rinn:    0.0000    
                rcs:    0.0000      0.0000    
            lambdas:    1.0000      1.0000    
-------------------------------------------------------------------------------
L=0  Nkbl=1  erefs: 0.17977+309
L=1  Nkbl=1  erefs: 0.17977+309
L=2  Nkbl=1  erefs: 0.17977+309
L=3  Nkbl=1  erefs: 0.17977+309
===============================================================================
</basis_specs>

atom: Called for O   (Z =   8)

read_vps: Pseudopotential generation method:
read_vps: ATM 3.2.2 Troullier-Martins                       

read_vps: Valence configuration (pseudopotential and basis set generation):
2s( 2.00) rc: 1.41
2p( 4.00) rc: 1.41
3d( 0.00) rc: 1.41
4f( 0.00) rc: 1.41
read_vps: Spin-orbit interaction is not included in this calculation
Total valence charge:    6.00000

xc_check: Exchange-correlation functional:
xc_check: GGA Perdew, Burke & Ernzerhof 1996
V l=0 = -2*Zval/r beyond r=  1.3949
V l=1 = -2*Zval/r beyond r=  1.3949
V l=2 = -2*Zval/r beyond r=  1.3949
V l=3 = -2*Zval/r beyond r=  1.3949
All V_l potentials equal beyond r=  1.3949
This should be close to max(r_c) in ps generation
All pots = -2*Zval/r beyond r=  1.3949

VLOCAL1: 99.0% of the norm of Vloc inside     22.308 Ry
VLOCAL1: 99.9% of the norm of Vloc inside     50.841 Ry
atom: Maximum radius for 4*pi*r*r*local-pseudopot. charge    1.68266
atom: Maximum radius for r*vlocal+2*Zval:    1.46645
GHOST: No ghost state for L =  0
GHOST: No ghost state for L =  1
GHOST: No ghost state for L =  2
GHOST: No ghost state for L =  3

KBgen: Kleinman-Bylander projectors: 
   l= 0   rc=  1.561052   el= -1.757696   Ekb=  4.823828   kbcos=  0.320436
   l= 1   rc=  1.541657   el= -0.664256   Ekb= -7.155351   kbcos= -0.482185
   l= 2   rc=  1.620715   el=  0.002031   Ekb= -1.601916   kbcos= -0.006134
   l= 3   rc=  1.661751   el=  0.003153   Ekb= -0.593356   kbcos= -0.000831

KBgen: Total number of  Kleinman-Bylander projectors:   16
atom: -------------------------------------------------------------------------

atom: SANKEY-TYPE ORBITALS:
atom: Selected multiple-zeta basis: split     

SPLIT: Orbitals with angular momentum L= 0

SPLIT: Basis orbitals for state 2s

SPLIT: PAO cut-off radius determinated from an
SPLIT: energy shift=  0.001837 Ry

   izeta = 1
                 lambda =    1.000000
                     rc =    4.243912
                 energy =   -1.756063
                kinetic =    1.526969
    potential(screened) =   -3.283032
       potential(ionic) =  -11.195603

   izeta = 2
                 rmatch =    2.541963
              splitnorm =    0.150000
                 energy =   -1.517103
                kinetic =    2.349578
    potential(screened) =   -3.866681
       potential(ionic) =  -12.413641

SPLIT: Orbitals with angular momentum L= 1

SPLIT: Basis orbitals for state 2p

SPLIT: PAO cut-off radius determinated from an
SPLIT: energy shift=  0.001837 Ry

   izeta = 1
                 lambda =    1.000000
                     rc =    5.314825
                 energy =   -0.662389
                kinetic =    4.523732
    potential(screened) =   -5.186121
       potential(ionic) =  -12.776017

   izeta = 2
                 rmatch =    2.705925
              splitnorm =    0.150000
                 energy =   -0.428112
                kinetic =    6.677649
    potential(screened) =   -7.105761
       potential(ionic) =  -15.606481

POLgen: Perturbative polarization orbital with L=  2

POLgen: Polarization orbital for state 2p

   izeta = 1
                     rc =    5.314825
                 energy =    1.979410
                kinetic =    4.000934
    potential(screened) =   -2.021523
       potential(ionic) =   -7.898947
atom: Total number of Sankey-type orbitals: 13

atm_pop: Valence configuration(local Pseudopot. screening):
 2s( 2.00)                                                            
 2p( 4.00)                                                            
Vna: chval, zval:    6.00000   6.00000

Vna:  Cut-off radius for the neutral-atom potential:   5.314825

atom: _________________________________________________________________________

prinput: Basis input ----------------------------------------------------------

PAO.BasisType split     

%block ChemicalSpeciesLabel
    1    1 H                       # Species index, atomic number, species label
    2    6 C                       # Species index, atomic number, species label
    3    8 O                       # Species index, atomic number, species label
%endblock ChemicalSpeciesLabel

%block PAO.Basis                 # Define Basis set
H           1                    # Species label, number of l-shells
 n=1   0   2 P   1                   # n, l, Nzeta, Polarization, NzetaPol
   6.518      4.104   
   1.000      1.000   
C           2                    # Species label, number of l-shells
 n=2   0   2                         # n, l, Nzeta 
   5.383      3.475   
   1.000      1.000   
 n=2   1   2 P   1                   # n, l, Nzeta, Polarization, NzetaPol
   6.911      3.793   
   1.000      1.000   
O           2                    # Species label, number of l-shells
 n=2   0   2                         # n, l, Nzeta 
   4.244      2.542   
   1.000      1.000   
 n=2   1   2 P   1                   # n, l, Nzeta, Polarization, NzetaPol
   5.315      2.706   
   1.000      1.000   
%endblock PAO.Basis

prinput: ----------------------------------------------------------------------


siesta: ******************** Simulation parameters ****************************
siesta:
siesta: The following are some of the parameters of the simulation.
siesta: A complete list of the parameters used, including defect values,
siesta: can be found in file out.fdf
siesta:
coor:   Atomic-coordinates input format  =     Cartesian coordinates
coor:                                          (in Angstroms)
redata: Number of spin components        =     1
redata: SpinOrbit                        =     0
redata: Long output                      =     F
redata: Number of Atomic Species         =     3
redata: Charge density info will appear in .RHO file
redata: Write Mulliken Pop.              =     Atomic and Orbital charges
redata: Mesh Cutoff                      =   200.0000  Ry
redata: Net charge of the system         =     0.0000 |e|
redata: Max. number of SCF Iter          =   100
redata: One Pulay mixing every           =    20 iterations
redata: Mix DM in first SCF step ?       =     F
redata: Write Pulay info on disk?        =     F
redata: New DM Mixing Weight             =     0.0200
redata: No kicks to SCF
redata: DM Mixing Weight for Kicks       =     0.5000
redata: DM Tolerance for SCF             =     0.000500
redata: Use continuation files for DM    =     F
redata: Neglect nonoverlap interactions  =     F
redata: Method of Calculation            =     Diagonalization
redata: Divide and Conquer               =     F
redata: Electronic Temperature           =     0.0010  Ry
redata: Fix the spin of the system       =     F
redata: Dynamics option                  =     Nudged Elastic Band
redata: Initial MD time step             =     1
redata:   Final MD time step             =     1
redata: Length of MD time step           =     1.0000  fs
redata: Length of MD time step           =     1.0000  fs

redata: Initial Temperature of MD run    =     0.0000  K
redata: Perform a MD quench              =     F
redata: ***********************************************************************

neb: ***Information of NEB calculation***
neb: Spring constant (Ry/Bohr**2):0.02000000
neb: Solves Improved Tangent NEB
neb: Optimized with Broyden
Broyden_optim: max_history for broyden:   5
Broyden_optim: cycle on maxit: T
Broyden_optim: initial inverse jacobian:   1.0000
 

ioneb: Reading NEB continuation file

siesta: Atomic coordinates (Bohr) and species
siesta:      0.11484   2.31960   0.00003  3        1
siesta:      0.00000   0.00000   0.00000  2        2
siesta:     -2.09575  -0.25962   0.00000  1        3
siesta:      1.78657  -1.17525   0.00000  1        4

initatomlists: Number of atoms, orbitals, and projectors:      4    36    50

siesta: System type = molecule  

* ProcessorY, Blocksize:    1   8

 timereversal= T
 label:           1 O                              1 s      
 label:           2 O                              1 s      
 label:           3 O                              1 py     
 label:           4 O                              1 pz     
 label:           5 O                              1 px     
 label:           6 O                              1 py     
 label:           7 O                              1 pz     
 label:           8 O                              1 px     
 label:           9 O                              1 Pdxy   
 label:          10 O                              1 Pdyz   
 label:          11 O                              1 Pdz2   
 label:          12 O                              1 Pdxz   
 label:          13 O                              1 Pdx2-y2
 label:          14 C                              2 s      
 label:          15 C                              2 s      
 label:          16 C                              2 py     
 label:          17 C                              2 pz     
 label:          18 C                              2 px     
 label:          19 C                              2 py     
 label:          20 C                              2 pz     
 label:          21 C                              2 px     
 label:          22 C                              2 Pdxy   
 label:          23 C                              2 Pdyz   
 label:          24 C                              2 Pdz2   
 label:          25 C                              2 Pdxz   
 label:          26 C                              2 Pdx2-y2
 label:          27 H                   timereversal= T
            3 s      
 label:          28 H                              3 s      
 label:          29 H                              3 Ppy    
 label:          30 H                              3 Ppz    
 label:          31 H                              3 Ppx    
 label:          32 H                              4 s      
 label:          33 H                              4 s      
 label:          34 H                              4 Ppy    
 label:          35 H                              4 Ppz    
 label:          36 H                              4 Ppx    
 
* Maximum dynamic memory allocated =     2 MB

siesta:                 ==============================
                            NEB calculation...  
                            Total step   =      0
                            NEB step     =      1
                            current bead =      1
                        ==============================

read_ldau The LDA+U method used is from Czyzky PRB 49 14211

neb: Read density matrix (if it exists) number =  1                 

InitMesh: MESH =   128 x   128 x   128 =     2097152
InitMesh: Mesh cutoff (required, used) =   200.000   201.251 Ry
 
* Maximum dynamic memory allocated =    69 MB

stepf: Fermi-Dirac step function

siesta: Program's energy decomposition (eV):
siesta: Eions   =       924.539859
siesta: Ena     =       147.141887
siesta: Ekin    =       397.607018
siesta: Enl     =       -83.393743
siesta: DEna    =        -0.000025
siesta: DUscf   =         0.000000
siesta: DUext   =         0.000000
siesta: Exc     =      -152.384479
siesta: eta*DQ  =         0.000000
siesta: Emadel  =         0.000000
siesta: Eharris =      -621.172565
siesta: Eso     =         0.000000
siesta: Etot    =      -615.569201
siesta: FreeEng =      -615.569201

siesta: iscf   Eharris(eV)      E_KS(eV)   FreeEng(eV)   dDmax  Ef(eV)
siesta:    1     -621.1726     -615.5692     -615.5692  1.9227 -7.2011
timer: Routine,Calls,Time,% = IterSCF        1      14.120  62.62
siesta:    2     -623.3731     -618.3100     -618.3100  0.5213 -1.7880
siesta:    3     -620.7952     -618.1220     -618.1220  0.5699 -2.3715
siesta:    4     -620.9038     -618.4259     -618.4259  0.4531 -1.9304
siesta:    5     -620.0768     -618.8619     -618.8619  0.1861 -4.0656
siesta:    6     -619.9308     -618.9617     -618.9617  0.1447 -3.7472
siesta:    7     -619.8194     -619.3657     -619.3657  0.0406 -3.8266
siesta:    8     -619.8113     -619.4120     -619.4120  0.0259 -3.9633
siesta:    9     -619.8064     -619.6323     -619.6323  0.0128 -3.8386
siesta:   10     -619.8052     -619.6966     -619.6966  0.0068 -3.8124
siesta:   11     -619.8051     -619.7674     -619.7674  0.0023 -3.8225
siesta:   12     -619.8051     -619.7980     -619.7980  0.0004 -3.8290

siesta: E_KS(eV) =             -619.8001

siesta: E_KS - E_eggbox =      -619.8001

siesta: Atomic forces (eV/Ang):
----------------------------------------
 Tot   -0.004275    0.013217    0.000021
----------------------------------------
 Max    2.609711
 Res    1.190242    sqrt( Sum f_i^2 / 3N )
----------------------------------------
 Max    2.609711    constrained

siesta: Stress tensor (static) (eV/Ang**3):
         0.000066   -0.000728    0.000000
        -0.000728   -0.000689    0.000000
         0.000000    0.000000    0.000001

siesta: Pressure (static):          0.33222645  kBar

siesta: Stress tensor (total) (eV/Ang**3):
         0.000066   -0.000728    0.000000
        -0.000728   -0.000689    0.000000
         0.000000    0.000000    0.000001

siesta: Pressure (total):          0.33222645  kBar
 
mulliken: Atomic and Orbital Populations:

Species: H                   
Atom  Qatom  Qorb
               1s      1s      1Ppy    1Ppz    1Ppx    
   3  1.149   0.726   0.346   0.007   0.017   0.052
   4  1.168   0.727   0.357   0.010   0.019   0.055

Species: C                   
Atom  Qatom  Qorb
               2s      2s      2py     2pz     2px     2py     2pz     2px     
               2Pdxy   2Pdyz   2Pdz2   2Pdxz   2Pdx2-y2
   2  3.595   0.065   0.806   0.394   0.438   0.000   0.530   0.263   0.884
              0.132   0.035   0.005   0.000   0.043

Species: O                   
Atom  Qatom  Qorb
               2s      2s      2py     2pz     2px     2py     2pz     2px     
               2Pdxy   2Pdyz   2Pdz2   2Pdxz   2Pdx2-y2
   1  6.087   1.396   0.279   1.101   1.091   1.821   0.250   0.117  -0.009
              0.008   0.020   0.003   0.000   0.010

mulliken: Qtot =   12.000

ioneb: Writing NEB continuation file
 
* Maximum dynamic memory allocated =    69 MB

siesta:                 ==============================
                            NEB calculation...  
                            Total step   =      1
                            NEB step     =      1
                            current bead =      2
                        ==============================

neb: Read density matrix (if it exists) number =  2                 

siesta: iscf   Eharris(eV)      E_KS(eV)   FreeEng(eV)   dDmax  Ef(eV)
siesta:    1     -824.5823     -535.9387     -535.9387  4.1408-10.4658
siesta:    2    -1194.6066     -242.3335     -242.3335 11.7479-12.6762
siesta:    3     -690.3493     -568.3646     -568.3674  2.8113 -8.3616
siesta:    4     -645.1161     -577.0866     -577.0866  2.5101 -8.6047
siesta:    5     -609.9061     -581.5448     -581.5448  1.9174 -9.6189
siesta:    6     -608.5541     -582.2896     -582.2896  1.8446-10.3868
siesta:    7     -606.5511     -586.3629     -586.3629  1.5013-10.1751
siesta:    8     -609.3578     -591.5245     -591.5245  1.1959-10.6917
siesta:    9     -613.1005     -605.3950     -605.3950  0.7051 -5.9882
siesta:   10     -615.0494     -610.4516     -610.4516  0.6348 -3.9037
siesta:   11     -615.0810     -610.4200     -610.4200  0.6407 -3.8812
siesta:   12     -614.8044     -612.4830     -612.4830  0.5795 -4.5118
siesta:   13     -619.1520     -628.9342     -628.9342  0.6254 -4.9023
siesta:   14     -619.0384     -628.0772     -628.0772  0.5783 -4.8791
siesta:   15     -618.9947     -627.7910     -627.7910  0.5613 -4.8816
siesta:   16     -618.0703     -625.0479     -625.0479  0.4904 -4.7294
siesta:   17     -617.8624     -623.9302     -623.9302  0.4282 -4.6247
siesta:   18     -618.4918     -622.3864     -622.3864  0.1867 -4.4070
siesta:   19     -618.4736     -622.1190     -622.1190  0.1771 -4.4253
siesta:   20     -618.3661     -618.8984     -618.8984  0.0133 -4.3853
siesta:   21     -618.4062     -618.5002     -618.5002  0.0288 -4.3432
siesta:   22     -618.4054     -618.5327     -618.5327  0.0247 -4.3525
siesta:   23     -618.4044     -618.5294     -618.5294  0.0229 -4.3521
siesta:   24     -618.3254     -619.1629     -619.1629  0.0385 -4.3788
siesta:   25     -618.3782     -618.7127     -618.7127  0.0096 -4.3673
siesta:   26     -618.4009     -618.4305     -618.4305  0.0018 -4.3705
siesta:   27     -618.3858     -618.6534     -618.6534  0.0071 -4.3642
siesta:   28     -618.4020     -618.3851     -618.3851  0.0020 -4.3735
siesta:   29     -618.3946     -618.4753     -618.4753  0.0026 -4.3715
siesta:   30     -618.4030     -618.3960     -618.3960  0.0005 -4.3710
siesta:   31     -618.3999     -618.4648     -618.4648  0.0026 -4.3719
siesta:   32     -618.4029     -618.4043     -618.4043  0.0001 -4.3712

siesta: E_KS(eV) =             -618.4043

siesta: Atomic forces (eV/Ang):
----------------------------------------
 Tot    0.060133   -0.002727   -0.000601
----------------------------------------
 Max    5.736302
 Res    2.171263    sqrt( Sum f_i^2 / 3N )
----------------------------------------
 Max    3.752444    constrained

siesta: Stress tensor (static) (eV/Ang**3):
        -0.000116   -0.000954    0.000000
        -0.000954    0.000734    0.000000
         0.000000    0.000000    0.000001

siesta: Pressure (static):         -0.33042627  kBar

siesta: Stress tensor (total) (eV/Ang**3):
        -0.000116   -0.000954    0.000000
        -0.000954    0.000734    0.000000
         0.000000    0.000000    0.000001

siesta: Pressure (total):         -0.33042627  kBar
 
mulliken: Atomic and Orbital Populations:

Species: H                   
Atom  Qatom  Qorb
               1s      1s      1Ppy    1Ppz    1Ppx    
   3  1.121   0.701   0.301   0.053   0.023   0.044
   4  1.164   0.716   0.358   0.012   0.020   0.058

Species: C                   
Atom  Qatom  Qorb
               2s      2s      2py     2pz     2px     2py     2pz     2px     
               2Pdxy   2Pdyz   2Pdz2   2Pdxz   2Pdx2-y2
   2  3.582   0.146   0.787   0.351   0.460   0.084   0.533   0.218   0.824
              0.096   0.033   0.007   0.000   0.043

Species: O                   
Atom  Qatom  Qorb
               2s      2s      2py     2pz     2px     2py     2pz     2px     
               2Pdxy   2Pdyz   2Pdz2   2Pdxz   2Pdx2-y2
   1  6.132   1.526   0.202   1.135   1.155   1.887   0.181   0.073  -0.065
              0.006   0.018   0.002   0.000   0.010

mulliken: Qtot =   12.000

ioneb: Writing NEB continuation file
 
* Maximum dynamic memory allocated =    69 MB

siesta:                 ==============================
                            NEB calculation...  
                            Total step   =      2
                            NEB step     =      1
                            current bead =      3
                        ==============================

neb: Read density matrix (if it exists) number =  3                 

siesta: iscf   Eharris(eV)      E_KS(eV)   FreeEng(eV)   dDmax  Ef(eV)
siesta:    1     -885.3311     -552.5967     -552.5967  3.2942 -4.0360
siesta:    2    -1192.6850     -230.3336     -230.3336 10.1713-15.4249
siesta:    3     -724.3741     -589.4688     -589.4688  3.7244 -1.6079
siesta:    4     -688.2623     -594.9599     -594.9599  2.6119 -3.3404
siesta:    5     -658.5820     -598.1265     -598.1265  2.3147 -3.7207
siesta:    6     -644.5124     -599.4081     -599.4081  2.1241 -4.3557
siesta:    7     -640.3822     -602.6706     -602.6706  2.0128 -4.1973
siesta:    8     -625.6551     -630.9456     -630.9456  1.3600 -2.2067
siesta:    9     -628.9148     -624.2192     -624.2192  1.2415 -3.7772
siesta:   10     -628.6269     -624.8946     -624.8946  1.2545 -3.6405
siesta:   11     -627.8978     -621.6843     -621.6843  1.1350 -3.7954
siesta:   12     -620.8439     -612.4528     -612.4528  0.7668 -3.9579
siesta:   13     -619.1966     -606.6773     -606.6773  0.6127 -4.2279
siesta:   14     -617.7902     -600.8285     -600.8285  0.7514 -3.9682
siesta:   15     -617.1880     -608.7492     -608.7492  0.4162 -4.0040
siesta:   16     -617.0714     -616.5559     -616.5559  0.2574 -4.0033
siesta:   17     -617.1164     -616.0368     -616.0368  0.2739 -4.0666
siesta:   18     -616.9103     -618.7681     -618.7681  0.1258 -3.8253
siesta:   19     -616.8917     -618.9381     -618.9381  0.1074 -3.7934
siesta:   20     -616.8493     -617.8116     -617.8116  0.1067 -3.7193
siesta:   21     -616.8586     -615.5544     -615.5544  0.2009 -4.3695
siesta:   22     -616.8575     -615.7620     -615.7620  0.1958 -4.3658
siesta:   23     -616.8502     -615.5113     -615.5113  0.1716 -3.6650
siesta:   24     -617.0039     -616.6087     -616.6087  0.1804 -3.8684
siesta:   25     -616.9336     -616.6605     -616.6605  0.0694 -3.6909
siesta:   26     -616.8579     -617.6059     -617.6059  0.0515 -4.2714
siesta:   27     -616.8574     -617.5234     -617.5234  0.0443 -4.2789
siesta:   28     -616.8514     -616.8167     -616.8167  0.0100 -3.5562
siesta:   29     -616.8514     -616.8212     -616.8212  0.0100 -3.5550
siesta:   30     -616.8512     -616.8544     -616.8544  0.0007 -4.3291
siesta:   31     -616.8509     -616.8243     -616.8243  0.0072 -3.5542
siesta:   32     -616.8491     -616.8335     -616.8335  0.0014 -4.3345
siesta:   33     -616.8488     -616.8385     -616.8385  0.0007 -4.3337
siesta:   34     -616.8494     -616.8422     -616.8422  0.0017 -4.3340
siesta:   35     -616.8491     -616.8468     -616.8468  0.0002 -4.3321

siesta: E_KS(eV) =             -616.8433

siesta: Atomic forces (eV/Ang):
----------------------------------------
 Tot   -0.026327    0.014742    0.000286
----------------------------------------
 Max    0.968893
 Res    0.534556    sqrt( Sum f_i^2 / 3N )
----------------------------------------
 Max    0.968893    constrained

siesta: Stress tensor (static) (eV/Ang**3):
        -0.000096   -0.000318    0.000000
        -0.000318    0.000248    0.000000
         0.000000    0.000000    0.000002

siesta: Pressure (static):         -0.08192458  kBar

siesta: Stress tensor (total) (eV/Ang**3):
        -0.000096   -0.000318    0.000000
        -0.000318    0.000248    0.000000
         0.000000    0.000000    0.000002

siesta: Pressure (total):         -0.08192458  kBar
 
mulliken: Atomic and Orbital Populations:

Species: H                   
Atom  Qatom  Qorb
               1s      1s      1Ppy    1Ppz    1Ppx    
   3  1.091   0.630   0.252   0.132   0.035   0.042
   4  1.182   0.715   0.377   0.010   0.015   0.065

Species: C                   
Atom  Qatom  Qorb
               2s      2s      2py     2pz     2px     2py     2pz     2px     
               2Pdxy   2Pdyz   2Pdz2   2Pdxz   2Pdx2-y2
   2  3.671   0.480   0.638   0.290   0.316   0.486   0.518   0.181   0.604
              0.078   0.039   0.008   0.000   0.031

Species: O                   
Atom  Qatom  Qorb
               2s      2s      2py     2pz     2px     2py     2pz     2px     
               2Pdxy   2Pdyz   2Pdz2   2Pdxz   2Pdx2-y2
   1  6.057   1.503   0.220   1.118   1.323   1.448   0.205   0.073   0.116
              0.016   0.016   0.004   0.001   0.014

mulliken: Qtot =   12.000

ioneb: Writing NEB continuation file
 
* Maximum dynamic memory allocated =    69 MB

siesta:                 ==============================
                            NEB calculation...  
                            Total step   =      3
                            NEB step     =      1
                            current bead =      4
                        ==============================

neb: Read density matrix (if it exists) number =  4                 

siesta: iscf   Eharris(eV)      E_KS(eV)   FreeEng(eV)   dDmax  Ef(eV)
siesta:    1     -802.0255     -528.2464     -528.2464  3.6490-13.9001
siesta:    2    -1140.9647     -281.3746     -281.3746  9.7758-12.9695
siesta:    3     -688.7020     -560.6421     -560.6421  3.1122 -8.8386
siesta:    4     -598.1183     -576.7735     -576.7735  1.9188-13.1727
siesta:    5     -597.6129     -577.3592     -577.3592  1.8715-13.2707
siesta:    6     -600.3368     -583.9662     -583.9662  1.4473 -9.4296
siesta:    7     -606.7759     -594.9437     -594.9437  0.9960 -6.5369
siesta:    8     -610.5109     -606.7287     -606.7287  0.7851 -5.5150
siesta:    9     -612.2490     -609.8493     -609.8493  0.7230 -4.2937
siesta:   10     -614.6550     -613.6135     -613.6135  0.3980 -4.2137
siesta:   11     -616.6640     -615.3432     -615.3432  0.1430 -4.3496
siesta:   12     -616.5628     -615.4912     -615.4912  0.1217 -4.2196
siesta:   13     -617.4990     -617.9745     -617.9745  0.0387 -4.2569
siesta:   14     -617.4544     -617.7648     -617.7648  0.0341 -3.5509
siesta:   15     -617.4603     -617.7727     -617.7727  0.0329 -3.5481
siesta:   16     -617.4121     -617.4201     -617.4201  0.0102 -3.6858
siesta:   17     -617.4121     -617.4128     -617.4128  0.0101 -3.6852
siesta:   18     -617.3953     -617.1531     -617.1531  0.0104 -3.7004
siesta:   19     -617.4063     -617.3847     -617.3847  0.0090 -3.6844
siesta:   20     -617.4060     -617.3848     -617.3848  0.0088 -3.6857
siesta:   21     -617.4057     -617.3850     -617.3850  0.0086 -3.6870
siesta:   22     -617.4054     -617.3851     -617.3851  0.0084 -3.6883
siesta:   23     -617.4051     -617.3852     -617.3852  0.0082 -3.6894
siesta:   24     -617.4048     -617.3854     -617.3854  0.0080 -3.6905
siesta:   25     -617.4046     -617.3855     -617.3855  0.0078 -3.6916
siesta:   26     -617.4043     -617.3856     -617.3856  0.0076 -3.6926
siesta:   27     -617.4040     -617.3857     -617.3857  0.0074 -3.6935
siesta:   28     -617.4038     -617.3858     -617.3858  0.0073 -3.6944
siesta:   29     -617.4035     -617.3860     -617.3860  0.0071 -3.6953
siesta:   30     -617.4033     -617.3861     -617.3861  0.0069 -3.6961
siesta:   31     -617.4031     -617.3862     -617.3862  0.0068 -3.6969
siesta:   32     -617.4028     -617.3863     -617.3863  0.0066 -3.6976
siesta:   33     -617.4026     -617.3864     -617.3864  0.0065 -3.6983
siesta:   34     -617.4024     -617.3865     -617.3865  0.0063 -3.6990
siesta:   35     -617.4022     -617.3866     -617.3866  0.0062 -3.6996
siesta:   36     -617.4019     -617.3867     -617.3867  0.0060 -3.7002
siesta:   37     -617.4017     -617.3868     -617.3868  0.0059 -3.7007
siesta:   38     -617.4015     -617.3869     -617.3869  0.0058 -3.7013
siesta:   39     -617.4013     -617.3870     -617.3870  0.0056 -3.7018
siesta:   40     -617.4011     -617.3871     -617.3871  0.0055 -3.7023
siesta:   41     -617.4009     -617.3872     -617.3872  0.0054 -3.7028
siesta:   42     -617.4007     -617.3872     -617.3872  0.0053 -3.7032
siesta:   43     -617.4006     -617.3873     -617.3873  0.0052 -3.7037
siesta:   44     -617.4004     -617.3874     -617.3874  0.0050 -3.7041
siesta:   45     -617.4002     -617.3875     -617.3875  0.0049 -3.7044
siesta:   46     -617.4000     -617.3876     -617.3876  0.0048 -3.7048
siesta:   47     -617.3999     -617.3877     -617.3877  0.0047 -3.7052
siesta:   48     -617.3997     -617.3877     -617.3877  0.0046 -3.7055
siesta:   49     -617.3995     -617.3878     -617.3878  0.0045 -3.7058
siesta:   50     -617.3994     -617.3879     -617.3879  0.0044 -3.7061
siesta:   51     -617.3992     -617.3880     -617.3880  0.0043 -3.7064
siesta:   52     -617.3991     -617.3880     -617.3880  0.0042 -3.7067
siesta:   53     -617.3989     -617.3881     -617.3881  0.0041 -3.7070
siesta:   54     -617.3988     -617.3882     -617.3882  0.0040 -3.7073
siesta:   55     -617.3986     -617.3882     -617.3882  0.0039 -3.7075
siesta:   56     -617.3985     -617.3883     -617.3883  0.0039 -3.7077
siesta:   57     -617.3983     -617.3884     -617.3884  0.0038 -3.7080
siesta:   58     -617.3982     -617.3884     -617.3884  0.0037 -3.7082
siesta:   59     -617.3981     -617.3885     -617.3885  0.0036 -3.7084
siesta:   60     -617.3979     -617.3886     -617.3886  0.0035 -3.7086
siesta:   61     -617.3978     -617.3886     -617.3886  0.0035 -3.7088
siesta:   62     -617.3977     -617.3887     -617.3887  0.0034 -3.7090
siesta:   63     -617.3976     -617.3887     -617.3887  0.0033 -3.7092
siesta:   64     -617.3974     -617.3888     -617.3888  0.0032 -3.7093
siesta:   65     -617.3973     -617.3889     -617.3889  0.0032 -3.7095
siesta:   66     -617.3972     -617.3889     -617.3889  0.0031 -3.7096
siesta:   67     -617.3971     -617.3889     -617.3889  0.0030 -3.7098
siesta:   68     -617.3970     -617.3890     -617.3890  0.0030 -3.7099
siesta:   69     -617.3969     -617.3890     -617.3890  0.0029 -3.7101
siesta:   70     -617.3968     -617.3891     -617.3891  0.0028 -3.7102
siesta:   71     -617.3967     -617.3891     -617.3891  0.0028 -3.7103
siesta:   72     -617.3966     -617.3892     -617.3892  0.0027 -3.7105
siesta:   73     -617.3965     -617.3892     -617.3892  0.0027 -3.7106
siesta:   74     -617.3964     -617.3893     -617.3893  0.0026 -3.7107
siesta:   75     -617.3963     -617.3893     -617.3893  0.0026 -3.7108
siesta:   76     -617.3962     -617.3894     -617.3894  0.0025 -3.7109
siesta:   77     -617.3961     -617.3894     -617.3894  0.0024 -3.7110
siesta:   78     -617.3960     -617.3895     -617.3895  0.0024 -3.7111
siesta:   79     -617.3959     -617.3895     -617.3895  0.0023 -3.7112
siesta:   80     -617.3958     -617.3896     -617.3896  0.0023 -3.7113
siesta:   81     -617.3957     -617.3896     -617.3896  0.0022 -3.7114
siesta:   82     -617.3956     -617.3896     -617.3896  0.0022 -3.7115
siesta:   83     -617.3956     -617.3897     -617.3897  0.0022 -3.7115
siesta:   84     -617.3955     -617.3897     -617.3897  0.0021 -3.7116
siesta:   85     -617.3954     -617.3897     -617.3897  0.0021 -3.7117
siesta:   86     -617.3953     -617.3898     -617.3898  0.0020 -3.7118
siesta:   87     -617.3952     -617.3898     -617.3898  0.0020 -3.7118
siesta:   88     -617.3951     -617.3898     -617.3898  0.0019 -3.7119
siesta:   89     -617.3951     -617.3899     -617.3899  0.0019 -3.7120
siesta:   90     -617.3950     -617.3899     -617.3899  0.0019 -3.7120
siesta:   91     -617.3949     -617.3899     -617.3899  0.0018 -3.7121
siesta:   92     -617.3949     -617.3900     -617.3900  0.0018 -3.7122
siesta:   93     -617.3948     -617.3900     -617.3900  0.0017 -3.7122
siesta:   94     -617.3947     -617.3900     -617.3900  0.0017 -3.7123
siesta:   95     -617.3947     -617.3901     -617.3901  0.0017 -3.7123
siesta:   96     -617.3946     -617.3901     -617.3901  0.0016 -3.7124
siesta:   97     -617.3946     -617.3901     -617.3901  0.0016 -3.7124
siesta:   98     -617.3945     -617.3902     -617.3902  0.0016 -3.7125
siesta:   99     -617.3944     -617.3902     -617.3902  0.0015 -3.7125

siesta: E_KS(eV) =             -617.3902

siesta: Atomic forces (eV/Ang):
----------------------------------------
 Tot    0.028931    0.021951    0.009281
----------------------------------------
 Max    2.885381
 Res    1.044122    sqrt( Sum f_i^2 / 3N )
----------------------------------------
 Max    1.683637    constrained

siesta: Stress tensor (static) (eV/Ang**3):
        -0.000077    0.000125    0.000000
         0.000128   -0.000436    0.000000
         0.000000    0.000000    0.000003

siesta: Pressure (static):          0.27274920  kBar

siesta: Stress tensor (total) (eV/Ang**3):
        -0.000077    0.000125    0.000000
         0.000128   -0.000436    0.000000
         0.000000    0.000000    0.000003

siesta: Pressure (total):          0.27274920  kBar
 
mulliken: Atomic and Orbital Populations:

Species: H                   
Atom  Qatom  Qorb
               1s      1s      1Ppy    1Ppz    1Ppx    
   3  1.046   0.443   0.435   0.075   0.041   0.052
   4  1.189   0.709   0.391   0.007   0.009   0.073

Species: C                   
Atom  Qatom  Qorb
               2s      2s      2py     2pz     2px     2py     2pz     2px     
               2Pdxy   2Pdyz   2Pdz2   2Pdxz   2Pdx2-y2
   2  3.858   0.904   0.404   0.383   0.208   0.923   0.406   0.141   0.360
              0.049   0.040   0.010   0.000   0.030

Species: O                   
Atom  Qatom  Qorb
               2s      2s      2py     2pz     2px     2py     2pz     2px     
               2Pdxy   2Pdyz   2Pdz2   2Pdxz   2Pdx2-y2
   1  5.907   1.233   0.381   1.062   1.442   0.890   0.305   0.106   0.429
              0.020   0.012   0.005   0.002   0.021

mulliken: Qtot =   12.000

neb: Energy Height (eV) of image:        0.32649
neb: Atomic forces (eV/Ang) for image:    1
     1    0.073866   -0.003665    0.000247
     2    0.000000    0.000000    0.000000
     3    0.004851   -0.021584   -0.000034
     4   -0.000421   -0.012301   -0.000010
----------------------------------------
   Tot    0.078297   -0.037549    0.000204
----------------------------------------
   Max    0.073866
   Res    0.022566    sqrt( Sum f_i^2 / 3N )

neb: Energy Height (eV) of image:        2.00424
neb: Atomic forces (eV/Ang) for image:    2
     1    0.039540   -0.036837    0.000182
     2    0.000000    0.000000    0.000000
     3    0.005689    0.002808   -0.000045
     4   -0.001636    0.016675   -0.000089
----------------------------------------
   Tot    0.043593   -0.017354    0.000048
----------------------------------------
   Max    0.039540
   Res    0.016435    sqrt( Sum f_i^2 / 3N )

neb: Energy Height (eV) of image:        3.43835
neb: Atomic forces (eV/Ang) for image:    3
     1    0.010817   -0.005233   -0.000065
     2    0.000000    0.000000    0.000000
     3   -0.000405   -0.003066    0.000349
     4    0.006795   -0.000480   -0.000137
----------------------------------------
   Tot    0.017206   -0.008780    0.000148
----------------------------------------
   Max    0.010817
   Res    0.004088    sqrt( Sum f_i^2 / 3N )

neb: Energy Height (eV) of image:        2.91462
neb: Atomic forces (eV/Ang) for image:    4
     1   -0.063449    0.108403    0.000595
     2    0.000000    0.000000    0.000000
     3    0.033347    0.030159   -0.000140
     4   -0.197329    0.612943    0.001808
----------------------------------------
   Tot   -0.227432    0.751505    0.002263
----------------------------------------
   Max    0.612943
   Res    0.189833    sqrt( Sum f_i^2 / 3N )

ioneb: Writing NEB continuation file
 
* Maximum dynamic memory allocated =    69 MB

siesta: Eigenvalues (eV):
  ik is    eps
   1  1 -28.32 -15.89 -12.83 -11.39 -10.60  -4.68  -2.93   0.02   1.81   4.48
          6.18   7.36   8.17   8.36   9.69  11.47  12.36  14.66  14.91  16.11
         16.47  18.23  22.32  24.44  28.96  32.06  33.71  34.62  37.19  41.33
         44.54  46.85  53.12  54.38  73.96  80.47
siesta: Fermi energy =      -3.712515 eV

siesta: Program's energy decomposition (eV):
siesta:-Eions   =    -924.539859
siesta: Ena     =     147.277901
siesta: Ekin    =     427.980843
siesta: Enl     =    -102.512490
siesta: DEna    =      -9.390956
siesta: DUscf   =       1.688600
siesta: DUext   =       0.000000
siesta: Exc     =    -157.894247
siesta: eta*DQ  =       0.000000
siesta: Emadel  =       0.000000
siesta: Ekinion =       0.000000
siesta: Eharris =    -617.394428
siesta: Eso     =       0.000000
siesta: Etot    =    -617.390208
siesta: FreeEng =    -617.390208

siesta: Final energy (eV):
siesta:       Kinetic =     427.980843
siesta:       Hartree =     783.640982
siesta:    Ext. field =       0.000000
siesta:   Exch.-corr. =    -157.894247
siesta:  Ion-electron =   -1957.821183
siesta:       Ion-ion =     286.703397
siesta:       Ekinion =       0.000000
siesta:         Total =    -617.390208

siesta: Atomic forces (eV/Ang):
siesta:    1   -0.295444    0.052285    0.000614
siesta:    2   -0.398568   -2.885381    0.006983
siesta:    3    0.220446    1.683637   -0.000132
siesta:    4    0.502497    1.171409    0.001816
siesta: ----------------------------------------
siesta:  Tot    0.028931    0.021951    0.009281

siesta: Constrained forces (eV/Ang):
siesta:    1   -0.295444    0.052285    0.000614
siesta:    2    0.000000    0.000000    0.000000
siesta:    3    0.220446    1.683637   -0.000132
siesta:    4    0.502497    1.171409    0.001816
siesta: ----------------------------------------
siesta:  Tot    0.427499    2.907331    0.002298

siesta: Stress tensor (static) (eV/Ang**3):
siesta:    -0.000077    0.000125    0.000000
siesta:     0.000128   -0.000436    0.000000
siesta:     0.000000    0.000000    0.000003

siesta: Cell volume =       3375.000000 Ang**3

siesta: Pressure (static):
siesta:                Solid            Molecule  Units
siesta:           0.00000185         -0.00000006  Ry/Bohr**3
siesta:           0.00017023         -0.00000549  eV/Ang**3
siesta:           0.27274920         -0.00879317  kBar

siesta: Total spin p* Maximum dynamic memory allocated : Node    1 =    67 MB
olarization (Qup-Qdown) =    0.000000
siesta: Spin vector =    0.000000    0.000000    0.000000
siesta: No SpinPolK block detected...

siesta: Electric dipole (a.u.)  =   -0.005083    0.381276    0.000048
siesta: Electric dipole (Debye) =   -0.012919    0.969108    0.000121
 
* Maximum dynamic memory allocated : Node    0 =    69 MB
* Maximum memory occured during redistribXZ                   

timer: CPU execution times:
timer:  Routine       Calls   Time/call    Tot.time        %
timer:  siesta            1     540.050     540.050   100.00
timer:  Setup             1       6.950       6.950     1.29
timer:  bands             1       0.000       0.000     0.00
timer:  writewave         1       0.010       0.010     0.00
timer:  KSV_init          1       0.000       0.000     0.00
timer:  IterMD            4     133.230     532.920    98.68
timer:  hsparse           5       0.000       0.000     0.00
timer:  overfsm           8       0.185       1.480     0.27
timer:  IterSCF         182       2.909     529.490    98.04
timer:  kinefsm           8       0.181       1.450     0.27
timer:  nlefsm            8       0.916       7.330     1.36
timer:  DHSCF           182       2.669     485.780    89.95
timer:  DHSCF1            1       0.300       0.300     0.06
timer:  DHSCF2            4       2.163       8.650     1.60
timer:  REORD          2192       0.011      23.450     4.34
timer:  POISON          186       1.363     253.600    46.96
timer:  DHSCF3          182       2.601     473.460    87.67
timer:  rhoofd          182       0.140      25.430     4.71
timer:  CELLXC          182       0.586     106.580    19.74
timer:  vmat            182       0.076      13.830     2.56
timer:  diagon          178       0.013       2.320     0.43
timer:  rdiag           178       0.005       0.850     0.16
timer:  DHSCF4            4       0.770       3.080     0.57
timer:  dfscf             4       0.652       2.610     0.48
  
>> End of run:  11-FEB-2011  21:01:06
